Title
81370
    1CHL1    C3    1   5.434   3.558  10.316  0.7307 -0.2842 -0.3205
    1CHL1    H3    2   5.499   3.472  10.287  1.0334 -0.8097  1.7098
    1CHL1    O3    3   5.431   3.556  10.457  0.3046 -0.3746 -0.0389
    1CHL1   H3'    4   5.397   3.642  10.482 -0.0205 -0.8029  1.0253
    1CHL1    C4    5   5.496   3.692  10.269 -0.4716 -0.5144 -0.5006
    1CHL1   H4A    6   5.438   3.776  10.312  0.9913  1.5388 -2.3383
    1CHL1   H4B    7   5.600   3.693  10.309 -0.0415 -1.4246 -1.5431
    1CHL1    C5    8   5.492   3.710  10.125  0.0170 -0.0109  0.2849
    1CHL1    C6    9   5.606   3.749  10.055  0.0799 -0.0355 -0.2610
    1CHL1    H6   10   5.706   3.771  10.095  0.4254 -2.0958  0.0904
    1CHL1    C7   11   5.612   3.768   9.901  0.1549 -0.0457 -1.1973
    1CHL1   H7A   12   5.647   3.872   9.883  0.9891  0.4646  2.5120
    1CHL1   H7B   13   5.660   3.695   9.833 -1.7700 -1.2801 -1.3267
    1CHL1    C8   14   5.462   3.775   9.840 -0.4158  0.1698 -0.0774
    1CHL1    H8   15   5.420   3.876   9.857  2.0656  0.9981  1.8220
    1CHL1   C14   16   5.466   3.745   9.687 -0.1323  0.2087 -0.7663
    1CHL1   H14   17   5.509   3.643   9.682 -0.4077  0.1568 -3.4575
    1CHL1   C15   18   5.564   3.827   9.591  0.0918  0.3099  0.1883
    1CHL1  H15A   19   5.569   3.932   9.629  0.5624  0.8462 -1.3059
    1CHL1  H15B   20   5.667   3.787   9.598  0.8781  2.3236  0.9067
    1CHL1   C16   21   5.506   3.830   9.452  0.5785  0.0550 -0.4911
    1CHL1  H16A   22   5.482   3.934   9.422 -0.7510 -0.6230 -1.9277
    1CHL1  H16B   23   5.585   3.785   9.388 -0.1993 -4.3634  1.2525
    1CHL1   C17   24   5.376   3.742   9.465 -0.3521 -0.1239  0.0317
    1CHL1   H17   25   5.407   3.636   9.450 -1.1885 -0.9778  3.4255
    1CHL1   C13   26   5.329   3.742   9.613 -0.1914  0.5895 -0.4570
    1CHL1   C18   27   5.245   3.873   9.640  0.1023  0.6262 -0.2110
    1CHL1  H18A   28   5.307   3.958   9.605  0.0758 -0.2700 -2.5611
    1CHL1  H18B   29   5.157   3.876   9.573  0.3466 -1.4606 -0.6930
    1CHL1  H18C   30   5.197   3.897   9.738  1.8207 -0.0495  0.8454
    1CHL1   C12   31   5.253   3.614   9.666  0.1218 -0.6506 -0.0666
    1CHL1  H12A   32   5.150   3.613   9.623  0.3583  0.2946 -0.6994
    1CHL1  H12B   33   5.303   3.517   9.643 -0.6511 -1.4181  1.3827
    1CHL1   C11   34   5.249   3.629   9.820 -0.3853 -0.1065  0.2190
    1CHL1  H11A   35   5.170   3.704   9.841  1.1706  1.6199  0.1727
    1CHL1  H11B   36   5.208   3.536   9.864  0.1393  1.1170  3.6005
    1CHL1    C9   37   5.378   3.661   9.900 -0.2453 -0.5351 -0.3518
    1CHL1    H9   38   5.442   3.571   9.895 -0.0347 -0.4529  0.6019
    1CHL1   C10   39   5.354   3.679  10.055 -0.1948 -0.1979 -0.0823
    1CHL1   C19   40   5.254   3.800  10.073 -0.1687  0.4643 -0.5827
    1CHL1  H19A   41   5.247   3.834  10.178  0.3110  1.4879 -0.8633
    1CHL1  H19B   42   5.277   3.888  10.008 -0.8574 -0.3268 -1.9394
    1CHL1  H19C   43   5.155   3.762  10.041  0.7415 -1.9339 -0.7903
    1CHL1    C1   44   5.280   3.548  10.124 -0.7749 -0.4246  0.0258
    1CHL1   H1A   45   5.176   3.554  10.086 -0.2503  0.7906 -1.2912
    1CHL1   H1B   46   5.322   3.468  10.061 -2.3823 -0.8973 -0.5135
    1CHL1    C2   47   5.286   3.536  10.268 -0.4305  1.0890  0.6869
    1CHL1   H2A   48   5.268   3.428  10.288 -0.5935  1.4377  2.6479
    1CHL1   H2B   49   5.219   3.602  10.328  0.9299  1.8142  1.4681
    1CHL1   C20   50   5.274   3.771   9.351  1.1132 -1.4567  0.1670
    1CHL1   H20   51   5.236   3.874   9.364  1.1229 -1.4683  0.2895
    1CHL1   C21   52   5.152   3.680   9.364  0.0679  0.6688 -0.1814
    1CHL1  H21A   53   5.185   3.574   9.358 -2.0857 -0.0121 -1.0971
    1CHL1  H21B   54   5.082   3.694   9.279  0.2477  0.3421 -0.3883
    1CHL1  H21C   55   5.086   3.689   9.452 -1.7246  0.5238 -1.4652
    1CHL1   C22   56   5.347   3.765   9.212 -0.0246 -0.9034  0.2934
    1CHL1  H22A   57   5.430   3.838   9.205  0.4445 -1.1148  2.6937
    1CHL1  H22B   58   5.392   3.664   9.195 -0.7322 -1.3276  0.8723
    1CHL1   C23   59   5.255   3.769   9.085 -0.0267  0.4582 -0.3798
    1CHL1  H23A   60   5.186   3.682   9.080  0.3567 -0.0106  1.6977
    1CHL1  H23B   61   5.196   3.863   9.094  1.1930  1.2158 -0.0282
    1CHL1   C24   62   5.335   3.784   8.958  0.0533 -0.2081 -0.1992
    1CHL1  H24A   63   5.391   3.878   8.977 -3.2267  1.4639  2.1387
    1CHL1  H24B   64   5.407   3.701   8.939  1.5189  0.7984  0.7324
    1CHL1   C25   65   5.256   3.807   8.831  0.1025  0.6571  0.4025
    1CHL1   H25   66   5.172   3.733   8.823 -0.7300  1.6393 -0.2192
    1CHL1   C26   67   5.190   3.942   8.814 -0.0436 -0.9194 -0.7546
    1CHL1  H26A   68   5.111   3.955   8.892  0.8400  1.0509 -0.1105
    1CHL1  H26B   69   5.266   4.023   8.822  1.2635 -1.9793 -1.9525
    1CHL1  H26C   70   5.140   3.952   8.715 -0.5195  1.8721 -0.3370
    1CHL1   C27   71   5.349   3.782   8.713 -0.1469 -0.1758 -0.1657
    1CHL1  H27A   72   5.282   3.783   8.624 -0.6987  2.5647  0.1848
    1CHL1  H27B   73   5.416   3.870   8.700 -0.3444 -0.0397 -0.2623
    1CHL1  H27C   74   5.407   3.688   8.725 -0.3300 -0.1795  0.7805
    2CHL1    C3   75   5.861   2.132   9.848  0.0711  0.0671 -0.6719
    2CHL1    H3   76   5.970   2.151   9.835  0.4948 -1.1495  0.7911
    2CHL1    O3   77   5.833   2.144   9.990 -0.0988 -0.2327 -0.3346
    2CHL1   H3'   78   5.738   2.130   9.992 -0.2077  0.3986 -0.5650
    2CHL1    C4   79   5.773   2.227   9.763  0.3312 -0.3223 -0.5019
    2CHL1   H4A   80   5.665   2.201   9.776  0.5692 -0.1057  2.6096
    2CHL1   H4B   81   5.785   2.328   9.809  1.9135 -0.1242 -1.3027
    2CHL1    C5   82   5.821   2.219   9.616  0.5795 -0.4472  0.3964
    2CHL1    C6   83   5.873   2.323   9.549 -0.1137 -0.3376  0.1446
    2CHL1    H6   84   5.871   2.417   9.607 -1.2317 -0.4394  0.2970
    2CHL1    C7   85   5.914   2.309   9.404  0.2387 -0.1222 -0.0897
    2CHL1   H7A   86   5.879   2.395   9.343  0.8954  0.1088 -0.1474
    2CHL1   H7B   87   6.024   2.314   9.410  0.1935  1.1248 -0.0394
    2CHL1    C8   88   5.864   2.186   9.329  0.0909  0.4296 -1.4814
    2CHL1    H8   89   5.754   2.193   9.320 -0.0743 -0.6395 -0.5497
    2CHL1   C14   90   5.940   2.176   9.199  0.2649 -0.1770 -0.5273
    2CHL1   H14   91   6.048   2.167   9.222  0.1067  1.6431  1.2485
    2CHL1   C15   92   5.932   2.289   9.103  0.4237 -0.0485  0.2963
    2CHL1  H15A   93   5.836   2.344   9.112  0.1148 -0.5887  0.3511
    2CHL1  H15B   94   6.002   2.374   9.119  1.4665 -0.2428 -2.6599
    2CHL1   C16   95   5.956   2.230   8.959  0.0253  0.4577  0.0493
    2CHL1  H16A   96   5.883   2.275   8.888  2.2338  2.4280 -1.0976
    2CHL1  H16B   97   6.053   2.259   8.914  1.0139 -2.6116  0.0077
    2CHL1   C17   98   5.967   2.079   8.981 -0.2225  0.3084 -0.0852
    2CHL1   H17   99   6.075   2.066   9.000 -0.2838  0.5372  0.4532
    2CHL1   C13  100   5.897   2.056   9.120  0.1720  0.5247  0.6186
    2CHL1   C18  101   5.746   2.054   9.087 -0.0767 -0.8604  0.4938
    2CHL1  H18A  102   5.712   1.980   9.012 -3.3078  1.3183 -0.4002
    2CHL1  H18B  103   5.695   2.046   9.185 -3.3718 -0.0360 -1.0005
    2CHL1  H18C  104   5.725   2.156   9.046 -1.5490 -1.2957  0.1023
    2CHL1   C12  105   5.938   1.936   9.192 -0.0520  0.0616 -0.0354
    2CHL1  H12A  106   5.924   1.844   9.132 -0.3687  0.2098 -0.1936
    2CHL1  H12B  107   6.045   1.953   9.214 -0.7110  3.4444  1.1952
    2CHL1   C11  108   5.873   1.923   9.333  0.7717 -0.1909 -0.0895
    2CHL1  H11A  109   5.769   1.891   9.308  0.6631  0.8698 -1.0858
    2CHL1  H11B  110   5.913   1.840   9.395  1.3752  0.6217  0.6184
    2CHL1    C9  111   5.888   2.063   9.416  0.8305  0.4355 -0.5739
    2CHL1    H9  112   5.997   2.057   9.433  0.7876 -0.6227 -0.6020
    2CHL1   C10  113   5.812   2.071   9.556  0.3738  0.5046  0.0940
    2CHL1   C19  114   5.666   2.026   9.540 -0.8591  0.0805  0.5527
    2CHL1  H19A  115   5.619   2.096   9.468 -1.6168  2.7387  3.3878
    2CHL1  H19B  116   5.674   1.918   9.515  0.1053 -0.3208  2.3852
    2CHL1  H19C  117   5.609   2.025   9.636  0.7681 -1.0853  1.5680
    2CHL1    C1  118   5.887   1.978   9.654 -0.1439 -0.0701 -0.5252
    2CHL1   H1A  119   5.863   1.873   9.624 -2.1614  0.1866  0.0290
    2CHL1   H1B  120   5.995   2.003   9.643  0.0066  0.3422  1.5745
    2CHL1    C2  121   5.837   1.989   9.802  0.7158  0.0474  0.1157
    2CHL1   H2A  122   5.876   1.911   9.871 -1.5831 -0.4114  1.0014
    2CHL1   H2B  123   5.728   1.969   9.815  1.0800 -1.1943  1.5263
    2CHL1   C20  124   5.934   1.987   8.865  0.1918 -0.0810  0.2004
    2CHL1   H20  125   5.883   1.895   8.901 -1.3848  0.3889 -0.7376
    2CHL1   C21  126   6.067   1.946   8.792 -0.3675  0.1458 -0.6728
    2CHL1  H21A  127   6.136   1.892   8.860 -1.6711  0.0041  0.5904
    2CHL1  H21B  128   6.122   2.036   8.757 -0.7390  1.0683  0.9997
    2CHL1  H21C  129   6.049   1.871   8.712  0.0759 -0.3242 -0.3394
    2CHL1   C22  130   5.836   2.044   8.762 -0.1634 -0.2911  0.0757
    2CHL1  H22A  131   5.750   2.095   8.809 -0.8519 -1.1101 -0.2699
    2CHL1  H22B  132   5.882   2.127   8.704 -0.9867  0.1900  0.1097
    2CHL1   C23  133   5.772   1.944   8.662  0.0593  0.2224 -0.1628
    2CHL1  H23A  134   5.840   1.888   8.594  1.2138 -1.3853  2.1551
    2CHL1  H23B  135   5.711   1.871   8.719  1.7180  0.2855  1.8467
    2CHL1   C24  136   5.681   2.025   8.562  0.3709  0.4517 -0.3518
    2CHL1  H24A  137   5.606   2.084   8.619 -0.7399  0.6153 -1.9304
    2CHL1  H24B  138   5.739   2.099   8.504 -0.3018  0.9137 -0.4359
    2CHL1   C25  139   5.595   1.929   8.486 -0.4627 -0.1905  0.5636
    2CHL1   H25  140   5.519   1.873   8.546 -0.7070 -1.6830 -1.0489
    2CHL1   C26  141   5.505   2.019   8.386 -0.1419  0.1103 -0.3150
    2CHL1  H26A  142   5.560   2.099   8.332 -1.3214 -0.6133 -2.7141
    2CHL1  H26B  143   5.458   1.947   8.316  0.3859  0.1548 -0.7161
    2CHL1  H26C  144   5.416   2.065   8.435 -0.4358 -0.9763  0.2034
    2CHL1   C27  145   5.687   1.828   8.410 -0.9883  0.6625  0.5405
    2CHL1  H27A  146   5.698   1.739   8.475 -0.9950 -0.8262 -1.4023
    2CHL1  H27B  147   5.634   1.785   8.322  0.6922 -1.9891  0.7294
    2CHL1  H27C  148   5.779   1.874   8.368 -0.4333 -2.3220 -1.8757
    3CHL1    C3  149   6.192   2.127  10.049 -0.2147 -0.1548 -0.1753
    3CHL1    H3  150   6.098   2.103   9.995 -0.0638  0.0093 -0.5163
    3CHL1    O3  151   6.177   2.085  10.184 -0.4221 -0.1649 -0.3842
    3CHL1   H3'  152   6.266   2.100  10.218 -0.1747  1.5979 -1.6815
    3CHL1    C4  153   6.300   2.045   9.985  0.4008  0.1178 -0.5785
    3CHL1   H4A  154   6.395   2.082  10.030 -0.3586  0.4394  0.7949
    3CHL1   H4B  155   6.293   1.938  10.013  3.9507 -0.2145 -0.4655
    3CHL1    C5  156   6.315   2.066   9.837  0.7983  0.0821  0.1195
    3CHL1    C6  157   6.302   1.971   9.748  0.2111  0.2274  0.5939
    3CHL1    H6  158   6.287   1.867   9.782  2.4558 -0.2404  0.2865
    3CHL1    C7  159   6.306   1.988   9.599 -0.2311 -0.5094 -0.3460
    3CHL1   H7A  160   6.376   1.912   9.559  1.0934  0.4444  0.0616
    3CHL1   H7B  161   6.202   1.987   9.562 -0.8217 -1.7923  1.2250
    3CHL1    C8  162   6.363   2.128   9.559  0.2255  0.2287  0.2122
    3CHL1    H8  163   6.473   2.116   9.567 -0.0198 -1.9729  1.0939
    3CHL1   C14  164   6.326   2.152   9.413  0.4449  0.0067 -0.3584
    3CHL1   H14  165   6.215   2.161   9.416  0.5623  1.4320  0.7444
    3CHL1   C15  166   6.345   2.047   9.307  0.0510  0.6868  0.3510
    3CHL1  H15A  167   6.443   2.000   9.332  1.5774  3.7314  0.5983
    3CHL1  H15B  168   6.262   1.974   9.300  0.5273  0.2942 -2.6670
    3CHL1   C16  169   6.357   2.120   9.176 -0.3297  0.2709 -0.5749
    3CHL1  H16A  170   6.455   2.097   9.130  1.4357  1.9320  2.0476
    3CHL1  H16B  171   6.269   2.095   9.114 -1.1380 -0.8366  0.9488
    3CHL1   C17  172   6.346   2.271   9.214 -0.4658 -0.1453 -0.0431
    3CHL1   H17  173   6.236   2.290   9.214 -0.3979  0.2491 -0.4537
    3CHL1   C13  174   6.383   2.283   9.362  0.0042  0.5086 -0.0669
    3CHL1   C18  175   6.541   2.300   9.376 -0.3156 -0.0660  0.4019
    3CHL1  H18A  176   6.564   2.408   9.374  2.2804 -0.5659 -1.9356
    3CHL1  H18B  177   6.579   2.265   9.475  0.4010 -0.3019  0.0493
    3CHL1  H18C  178   6.587   2.253   9.287 -0.9939 -0.5493  0.2963
    3CHL1   C12  179   6.307   2.393   9.453 -0.4104 -0.1176  0.1507
    3CHL1  H12A  180   6.332   2.493   9.413 -1.6309  0.8056  1.5769
    3CHL1  H12B  181   6.197   2.381   9.441 -0.3519 -1.5283  0.8165
    3CHL1   C11  182   6.341   2.378   9.599 -0.4407 -0.5754 -0.1820
    3CHL1  H11A  183   6.449   2.401   9.612 -0.4451  1.4204 -2.9111
    3CHL1  H11B  184   6.276   2.441   9.663 -1.2987 -1.5946 -0.0214
    3CHL1    C9  185   6.303   2.239   9.648 -0.2298 -0.8388  0.6772
    3CHL1    H9  186   6.195   2.216   9.636 -0.2811 -0.5530  0.5932
    3CHL1   C10  187   6.325   2.219   9.800  0.3172  0.3430  0.2015
    3CHL1   C19  188   6.477   2.255   9.832 -0.3466  0.2854  0.3741
    3CHL1  H19A  189   6.516   2.236   9.934  0.8403 -0.6157 -0.2259
    3CHL1  H19B  190   6.540   2.195   9.763 -1.1338 -0.2234  0.0796
    3CHL1  H19C  191   6.502   2.360   9.804  1.0490  0.0319  0.6200
    3CHL1    C1  192   6.232   2.307   9.891 -0.2210  0.5853 -0.2557
    3CHL1   H1A  193   6.261   2.414   9.878  1.4383  0.2918  0.7210
    3CHL1   H1B  194   6.133   2.296   9.842  1.3159 -0.7071 -3.3003
    3CHL1    C2  195   6.226   2.274  10.040 -0.0400  0.0520  0.6263
    3CHL1   H2A  196   6.141   2.326  10.088 -0.7530 -1.3407  0.9375
    3CHL1   H2B  197   6.315   2.298  10.102 -0.0064  1.3363  0.0935
    3CHL1   C20  198   6.408   2.366   9.106  0.9051  0.5299 -1.2516
    3CHL1   H20  199   6.514   2.339   9.088  0.5154  0.4932 -3.7997
    3CHL1   C21  200   6.403   2.514   9.153 -0.3088  0.1548  0.6254
    3CHL1  H21A  201   6.300   2.528   9.193 -0.0744  1.3830  0.8515
    3CHL1  H21B  202   6.424   2.585   9.070  0.7545  0.8999  1.5065
    3CHL1  H21C  203   6.478   2.525   9.234  3.0810 -2.3333 -1.8969
    3CHL1   C22  204   6.341   2.343   8.969 -1.0687 -0.2275  0.0116
    3CHL1  H22A  205   6.340   2.233   8.955 -1.8545 -0.1995 -0.1613
    3CHL1  H22B  206   6.234   2.373   8.970 -1.0719 -0.2460  0.7937
    3CHL1   C23  207   6.423   2.401   8.857 -0.1169  0.1281  0.8402
    3CHL1  H23A  208   6.436   2.511   8.864  1.5285 -0.0012  0.3109
    3CHL1  H23B  209   6.520   2.351   8.840 -0.8118 -0.3647 -2.3761
    3CHL1   C24  210   6.346   2.380   8.720 -0.3535 -0.6426  0.7455
    3CHL1  H24A  211   6.335   2.272   8.696  0.8829 -1.4578  3.5302
    3CHL1  H24B  212   6.245   2.424   8.734 -0.8369 -0.7965 -1.7221
    3CHL1   C25  213   6.417   2.454   8.603 -0.1809  0.7139 -0.6862
    3CHL1   H25  214   6.528   2.442   8.604  0.0718  2.7077  0.7643
    3CHL1   C26  215   6.378   2.388   8.465  0.3203 -0.1498  0.1363
    3CHL1  H26A  216   6.427   2.442   8.381 -0.5635  2.3408  1.1262
    3CHL1  H26B  217   6.410   2.282   8.472  0.2920 -0.3972 -2.4473
    3CHL1  H26C  218   6.269   2.396   8.445  0.4363  0.4344 -0.2757
    3CHL1   C27  219   6.382   2.599   8.591 -0.5440 -0.0687 -0.0773
    3CHL1  H27A  220   6.436   2.658   8.668 -2.5762 -0.6811  1.9151
    3CHL1  H27B  221   6.393   2.644   8.490 -1.8320  1.4721  0.4291
    3CHL1  H27C  222   6.276   2.619   8.616 -0.8106 -1.9741  0.4102
    4CHL1    C3  223   6.105   4.800  10.203  0.3416 -0.4937  0.4645
    4CHL1    H3  224   6.001   4.770  10.179  1.0778 -1.9287 -1.2142
    4CHL1    O3  225   6.115   4.833  10.339  0.0479  0.2830  0.1598
    4CHL1   H3'  226   6.086   4.924  10.349  0.1428  0.3289  0.0115
    4CHL1    C4  227   6.188   4.669  10.173 -0.3903  0.5208  0.5362
    4CHL1   H4A  228   6.287   4.671  10.223 -0.1136 -0.1095  0.0309
    4CHL1   H4B  229   6.133   4.589  10.227 -1.8342  0.8471 -0.4142
    4CHL1    C5  230   6.203   4.635  10.025  0.3434 -0.4190  0.5259
    4CHL1    C6  231   6.152   4.520   9.970 -1.0167 -0.5486 -0.6675
    4CHL1    H6  232   6.115   4.440  10.037 -0.7737  0.3919  0.6313
    4CHL1    C7  233   6.155   4.486   9.819 -0.0902 -0.1045 -0.0901
    4CHL1   H7A  234   6.177   4.381   9.790 -0.0565 -1.0237  2.9600
    4CHL1   H7B  235   6.058   4.525   9.782  1.5489  2.8452 -1.7073
    4CHL1    C8  236   6.253   4.579   9.744 -0.2315  0.0567 -0.0313
    4CHL1    H8  237   6.357   4.544   9.762  0.4986  1.2813 -1.5964
    4CHL1   C14  238   6.217   4.580   9.598  0.2387 -0.2651  0.7821
    4CHL1   H14  239   6.124   4.636   9.571  0.4872 -0.4636 -0.5781
    4CHL1   C15  240   6.190   4.443   9.524 -0.7951  0.9505  0.0939
    4CHL1  H15A  241   6.269   4.368   9.547 -2.4068 -1.0166 -0.4529
    4CHL1  H15B  242   6.091   4.403   9.554 -0.8658  2.0328  1.3851
    4CHL1   C16  243   6.210   4.470   9.379 -0.0274 -0.0346 -0.7590
    4CHL1  H16A  244   6.286   4.402   9.334 -1.5353 -0.9646 -1.9861
    4CHL1  H16B  245   6.112   4.455   9.328 -0.3126 -3.3757  0.5412
    4CHL1   C17  246   6.239   4.619   9.369 -0.3414 -0.4774  0.2488
    4CHL1   H17  247   6.143   4.675   9.366 -0.1928  0.1002  3.0550
    4CHL1   C13  248   6.318   4.651   9.507  0.4680  0.6990  0.3032
    4CHL1   C18  249   6.456   4.594   9.510 -0.3165 -0.0514  0.1028
    4CHL1  H18A  250   6.498   4.600   9.613 -3.1188 -0.6548  1.4043
    4CHL1  H18B  251   6.462   4.490   9.469 -0.9260  0.1131 -0.4161
    4CHL1  H18C  252   6.518   4.655   9.441 -0.1307 -0.6116 -0.2318
    4CHL1   C12  253   6.317   4.803   9.550  0.1443  0.1306  0.1251
    4CHL1  H12A  254   6.398   4.863   9.504  1.7211 -2.1302 -0.2039
    4CHL1  H12B  255   6.215   4.837   9.524 -0.7237 -3.2887 -1.4923
    4CHL1   C11  256   6.341   4.817   9.701 -1.2978  0.0344  0.2744
    4CHL1  H11A  257   6.443   4.776   9.716 -2.3137 -1.9081  2.5415
    4CHL1  H11B  258   6.353   4.922   9.736  2.0839 -1.0636  2.9460
    4CHL1    C9  259   6.241   4.727   9.792  0.6452  0.7678  0.9700
    4CHL1    H9  260   6.137   4.752   9.764  0.5475 -0.5510  0.0991
    4CHL1   C10  261   6.255   4.753   9.942 -0.2806  0.7377 -0.1167
    4CHL1   C19  262   6.409   4.767   9.979 -0.7435 -0.1669 -0.0456
    4CHL1  H19A  263   6.469   4.675   9.962 -0.3279 -0.0021  0.5190
    4CHL1  H19B  264   6.449   4.859   9.933 -1.2576 -0.1471 -0.4696
    4CHL1  H19C  265   6.412   4.782  10.089 -3.2485  1.1845 -0.0792
    4CHL1    C1  266   6.168   4.880   9.971 -0.1798 -0.3504  0.4993
    4CHL1   H1A  267   6.198   4.968   9.911  1.8724  0.4068  2.4850
    4CHL1   H1B  268   6.062   4.860   9.943 -1.2722  2.4063  2.2127
    4CHL1    C2  269   6.158   4.917  10.119 -0.0660 -0.5402 -0.0137
    4CHL1   H2A  270   6.098   5.009  10.134  1.1442  0.9207 -3.1981
    4CHL1   H2B  271   6.257   4.956  10.152 -0.1800  0.0822 -0.3925
    4CHL1   C20  272   6.325   4.650   9.247 -0.3135 -0.1454  0.0690
    4CHL1   H20  273   6.406   4.576   9.237 -0.5122 -0.5904  1.6268
    4CHL1   C21  274   6.380   4.792   9.240 -0.2312 -0.1813 -0.7861
    4CHL1  H21A  275   6.452   4.838   9.312 -0.4096  3.3123 -2.5887
    4CHL1  H21B  276   6.291   4.859   9.233  1.8890  2.7973 -1.3890
    4CHL1  H21C  277   6.422   4.811   9.138 -2.8265  0.6747 -1.7709
    4CHL1   C22  278   6.235   4.643   9.117  0.2963 -0.1643 -0.2888
    4CHL1  H22A  279   6.130   4.653   9.151  0.7228  2.9498  0.3595
    4CHL1  H22B  280   6.250   4.726   9.045 -0.2219 -2.2517 -2.9568
    4CHL1   C23  281   6.240   4.522   9.025 -0.0287 -0.3919  0.2992
    4CHL1  H23A  282   6.343   4.504   8.986  0.3490  2.0017  0.0135
    4CHL1  H23B  283   6.220   4.423   9.071  0.2231 -0.1891  0.8499
    4CHL1   C24  284   6.139   4.533   8.904 -0.1978 -0.0178  0.3673
    4CHL1  H24A  285   6.147   4.445   8.836 -0.7540 -0.2505  0.5991
    4CHL1  H24B  286   6.033   4.536   8.937 -0.4898  1.0328 -0.5821
    4CHL1   C25  287   6.150   4.654   8.809 -0.5377 -0.2514 -0.5464
    4CHL1   H25  288   6.236   4.718   8.836 -1.8156  1.3927 -0.2013
    4CHL1   C26  289   6.195   4.613   8.669 -0.0052  0.7587 -0.6829
    4CHL1  H26A  290   6.270   4.531   8.674 -0.5999  0.2704  1.6785
    4CHL1  H26B  291   6.103   4.573   8.623 -0.1654  0.9307 -0.5156
    4CHL1  H26C  292   6.221   4.708   8.618 -2.6353  1.7860 -0.2702
    4CHL1   C27  293   6.021   4.737   8.805 -0.5045  0.9006 -0.4665
    4CHL1  H27A  294   5.986   4.728   8.910  1.0477 -0.1690 -0.0092
    4CHL1  H27B  295   6.029   4.845   8.781 -1.4495  1.0655 -0.0410
    4CHL1  H27C  296   5.944   4.695   8.737  0.0950 -0.0673 -0.5627
    5CHL1    C3  297   0.244   2.018  10.159 -0.2179 -0.0124  0.2943
    5CHL1    H3  298   0.310   1.935  10.126  0.0706  0.0861  0.6232
    5CHL1    O3  299   0.244   2.011  10.299  0.6877  0.1019 -0.2843
    5CHL1   H3'  300   0.217   1.922  10.321  0.5553  0.2148  0.0289
    5CHL1    C4  301   0.303   2.154  10.124 -0.2437  0.4363 -0.1024
    5CHL1   H4A  302   0.235   2.219  10.182 -0.9338 -1.1100  0.8536
    5CHL1   H4B  303   0.407   2.158  10.163 -0.0637 -2.5995 -0.0811
    5CHL1    C5  304   0.300   2.180   9.974  0.1962  0.5198  0.5534
    5CHL1    C6  305   0.414   2.194   9.909  0.0199 -0.1458 -0.1537
    5CHL1    H6  306   0.507   2.191   9.968  0.6276 -1.1645 -1.1213
    5CHL1    C7  307   0.426   2.231   9.767 -0.8221 -0.1144 -0.7831
    5CHL1   H7A  308   0.495   2.318   9.759  0.2012 -0.6733  1.2585
    5CHL1   H7B  309   0.479   2.155   9.706 -1.5248 -0.0764 -1.4471
    5CHL1    C8  310   0.290   2.261   9.703 -0.8346  0.4769  0.1803
    5CHL1    H8  311   0.258   2.362   9.736 -1.0632 -0.2940  2.5703
    5CHL1   C14  312   0.299   2.248   9.556  0.1539 -0.0335 -0.3947
    5CHL1   H14  313   0.323   2.142   9.532  1.7240 -0.2407  1.7975
    5CHL1   C15  314   0.407   2.331   9.486  0.1994  0.2228 -0.2503
    5CHL1  H15A  315   0.404   2.438   9.518  1.0652  0.1420  0.1220
    5CHL1  H15B  316   0.509   2.296   9.513  0.2976 -1.2582 -2.2976
    5CHL1   C16  317   0.379   2.312   9.338  0.4283 -0.3778 -0.6025
    5CHL1  H16A  318   0.391   2.413   9.293  0.7517 -0.4978 -0.7930
    5CHL1  H16B  319   0.453   2.236   9.303 -1.1325 -1.0432 -2.6318
    5CHL1   C17  320   0.235   2.264   9.326  0.1599  0.8959  0.3753
    5CHL1   H17  321   0.242   2.155   9.308  1.0866  0.6458  2.0080
    5CHL1   C13  322   0.173   2.269   9.470  0.4570 -0.0997 -0.4710
    5CHL1   C18  323   0.109   2.412   9.506 -0.2651 -0.8739  0.1262
    5CHL1  H18A  324   0.178   2.495   9.479 -1.7616  1.3606  2.6497
    5CHL1  H18B  325   0.012   2.426   9.454 -0.5186  1.5543  1.1442
    5CHL1  H18C  326   0.085   2.423   9.614  0.3365  0.7845  0.1079
    5CHL1   C12  327   0.081   2.144   9.504  0.1956 -0.3101  0.1174
    5CHL1  H12A  328  -0.007   2.152   9.437  1.4345 -1.2854 -1.6961
    5CHL1  H12B  329   0.126   2.050   9.468 -0.4851 -0.9243  0.8351
    5CHL1   C11  330   0.056   2.137   9.650 -0.0868 -0.1766 -0.2451
    5CHL1  H11A  331  -0.004   2.227   9.675  1.2709  0.6636  0.0980
    5CHL1  H11B  332   0.007   2.041   9.679  3.4845 -1.5822  1.8169
    5CHL1    C9  333   0.184   2.155   9.749  0.9028  0.2145 -0.0618
    5CHL1    H9  334   0.233   2.056   9.736  1.8735  0.4916  1.3381
    5CHL1   C10  335   0.158   2.162   9.894 -0.2440  0.1718  0.3075
    5CHL1   C19  336   0.093   2.295   9.936  0.3825 -0.7380  0.2670
    5CHL1  H19A  337   0.161   2.378   9.908  1.2014 -0.8144  1.9058
    5CHL1  H19B  338  -0.005   2.315   9.888  0.7872 -1.5802 -0.9651
    5CHL1  H19C  339   0.074   2.308  10.045 -0.4894 -0.2824  0.0664
    5CHL1    C1  340   0.088   2.035   9.958 -0.4111  0.0469  0.9079
    5CHL1   H1A  341  -0.022   2.049   9.948 -0.4148 -0.4272  0.2245
    5CHL1   H1B  342   0.106   1.947   9.893  1.7685  1.2710 -0.2760
    5CHL1    C2  343   0.107   2.010  10.108  0.0321 -0.6038  0.5268
    5CHL1   H2A  344   0.066   1.908  10.124 -3.1175  0.8305  2.5698
    5CHL1   H2B  345   0.041   2.077  10.165 -1.1204  1.1656 -2.6234
    5CHL1   C20  346   0.154   2.294   9.198  0.1069 -0.2450  1.0836
    5CHL1   H20  347   0.056   2.247   9.221  0.7543 -2.2672 -0.0352
    5CHL1   C21  348   0.232   2.229   9.075  0.5591 -0.4358  0.7788
    5CHL1  H21A  349   0.334   2.272   9.067  1.4486 -2.5075  0.3344
    5CHL1  H21B  350   0.170   2.235   8.983  0.5077  1.8016  0.9125
    5CHL1  H21C  351   0.243   2.124   9.111  1.4555 -0.5559  0.1752
    5CHL1   C22  352   0.141   2.444   9.167 -0.3079  0.2871 -0.8850
    5CHL1  H22A  353   0.112   2.491   9.264 -0.7417 -2.2539  0.2878
    5CHL1  H22B  354   0.242   2.479   9.137  1.2989 -1.5089  1.9697
    5CHL1   C23  355   0.032   2.464   9.063  0.2080  0.0687 -0.5843
    5CHL1  H23A  356   0.050   2.399   8.974 -0.1698 -0.2604 -0.4243
    5CHL1  H23B  357  -0.058   2.418   9.109  1.2191  0.3920  1.8705
    5CHL1   C24  358   0.013   2.612   9.032 -0.2175 -0.1168  0.4755
    5CHL1  H24A  359  -0.004   2.664   9.129 -0.1151 -0.5761  0.7389
    5CHL1  H24B  360   0.112   2.642   8.992 -0.8285 -0.5951 -1.4855
    5CHL1   C25  361  -0.091   2.652   8.930 -0.1049  0.3696 -0.0031
    5CHL1   H25  362  -0.182   2.597   8.963  0.9898 -1.0814  0.6569
    5CHL1   C26  363  -0.115   2.805   8.919  0.1598 -0.1422 -0.2149
    5CHL1  H26A  364  -0.209   2.818   8.861 -1.8613 -0.9625  2.6335
    5CHL1  H26B  365  -0.133   2.852   9.018  0.8948 -0.9117  0.2931
    5CHL1  H26C  366  -0.025   2.856   8.877  0.4560  0.2847  0.8932
    5CHL1   C27  367  -0.069   2.603   8.788 -0.5901 -0.3895 -0.0763
    5CHL1  H27A  368   0.003   2.661   8.726 -3.3317  2.1773 -1.0983
    5CHL1  H27B  369  -0.062   2.492   8.780 -1.2271 -0.4680  0.4534
    5CHL1  H27C  370  -0.158   2.623   8.725  0.1358 -1.5548 -1.5441
    6CHL1    C3  371   6.669   0.113  10.194 -0.7570 -0.5576 -0.8179
    6CHL1    H3  372   6.578   0.173  10.176 -0.9765 -1.3156 -2.4052
    6CHL1    O3  373   6.697   0.110  10.338 -0.4862  0.2298  0.0946
    6CHL1   H3'  374   6.764   0.043  10.352 -1.7113 -0.9042  0.8000
    6CHL1    C4  375   6.659  -0.026  10.143  0.2908 -0.0154 -1.3888
    6CHL1   H4A  376   6.753  -0.083  10.153  0.2924  0.1930  0.0043
    6CHL1   H4B  377   6.591  -0.085  10.208  0.9806  0.4654 -0.2034
    6CHL1    C5  378   6.622  -0.012   9.995  0.3454 -0.1536 -0.0872
    6CHL1    C6  379   6.504  -0.068   9.959 -0.0060  0.5546  0.0000
    6CHL1    H6  380   6.444  -0.126  10.031  3.3221 -0.5606  2.0590
    6CHL1    C7  381   6.470  -0.080   9.805  0.1749  0.1435  0.5955
    6CHL1   H7A  382   6.426  -0.182   9.796  0.1809  0.0583  1.4256
    6CHL1   H7B  383   6.386  -0.011   9.782  0.8505  0.9780  0.5796
    6CHL1    C8  384   6.586  -0.050   9.706  0.3481 -0.1015  0.0345
    6CHL1    H8  385   6.648  -0.142   9.707 -0.7129 -0.9444 -2.6504
    6CHL1   C14  386   6.536  -0.014   9.566  0.8417 -0.1643  0.0171
    6CHL1   H14  387   6.479   0.077   9.593  0.3405 -0.7659  1.0467
    6CHL1   C15  388   6.430  -0.100   9.498  0.0444 -0.1059 -0.4501
    6CHL1  H15A  389   6.450  -0.209   9.508 -1.7818 -0.6528 -2.1254
    6CHL1  H15B  390   6.334  -0.075   9.549  0.4089  0.9248 -0.2508
    6CHL1   C16  391   6.446  -0.069   9.351  0.0974  0.2513  0.0976
    6CHL1  H16A  392   6.469  -0.164   9.299 -0.3331  0.8039 -1.1395
    6CHL1  H16B  393   6.348  -0.034   9.314 -0.2074 -0.5302  0.1450
    6CHL1   C17  394   6.541   0.052   9.339 -0.5098 -0.6779 -0.7785
    6CHL1   H17  395   6.473   0.136   9.364  0.0414 -0.6889  0.8560
    6CHL1   C13  396   6.639   0.029   9.463  0.0680 -0.2047  0.5834
    6CHL1   C18  397   6.731  -0.091   9.432 -0.4638 -0.3273  0.7526
    6CHL1  H18A  398   6.680  -0.167   9.369 -0.8262  0.3658  0.2072
    6CHL1  H18B  399   6.820  -0.060   9.373 -0.1701  0.0148  1.3629
    6CHL1  H18C  400   6.767  -0.146   9.522 -0.6150 -1.4304  0.1637
    6CHL1   C12  401   6.718   0.151   9.515 -0.3120  0.1891  0.1506
    6CHL1  H12A  402   6.803   0.174   9.447 -1.2806  0.4147 -0.9940
    6CHL1  H12B  403   6.655   0.243   9.520  0.2566  0.6387 -0.6585
    6CHL1   C11  404   6.777   0.117   9.653 -0.1353 -0.7413 -0.2335
    6CHL1  H11A  405   6.851   0.035   9.638 -0.4306 -0.9614 -0.4949
    6CHL1  H11B  406   6.827   0.210   9.690 -1.1203  0.3815 -1.6160
    6CHL1    C9  407   6.668   0.066   9.760  0.1695  0.1899 -0.3792
    6CHL1    H9  408   6.598   0.152   9.772 -0.1120  0.0467 -0.9755
    6CHL1   C10  409   6.727   0.044   9.898 -0.0932 -0.7495 -0.5433
    6CHL1   C19  410   6.835  -0.059   9.902 -0.2609  0.3639 -0.3514
    6CHL1  H19A  411   6.806  -0.164   9.883 -1.4744  1.0446 -2.5075
    6CHL1  H19B  412   6.898  -0.047   9.811  0.6812 -0.5858  0.1442
    6CHL1  H19C  413   6.907  -0.052   9.987 -0.1014 -2.5601 -0.1423
    6CHL1    C1  414   6.772   0.183   9.968  0.6962  0.2868  0.5212
    6CHL1   H1A  415   6.849   0.235   9.907 -0.5524 -0.1912 -1.5651
    6CHL1   H1B  416   6.679   0.242   9.952  0.9343  1.3428  2.6734
    6CHL1    C2  417   6.792   0.178  10.118 -0.5184  0.1565  0.2231
    6CHL1   H2A  418   6.805   0.279  10.163 -1.5808  0.1382  0.6102
    6CHL1   H2B  419   6.882   0.119  10.142 -0.7947 -0.5798 -0.5223
    6CHL1   C20  420   6.607   0.065   9.201 -0.2269 -0.2710 -0.4178
    6CHL1   H20  421   6.666  -0.029   9.194 -0.6224 -0.7749  1.9446
    6CHL1   C21  422   6.706   0.183   9.183  0.2564  0.3305  0.1212
    6CHL1  H21A  423   6.747   0.192   9.080 -1.4216  0.4469 -0.5849
    6CHL1  H21B  424   6.794   0.164   9.247  0.5341 -2.8384 -1.0366
    6CHL1  H21C  425   6.655   0.280   9.204  1.1874  1.0350 -0.7745
    6CHL1   C22  426   6.495   0.091   9.097  0.2554 -0.4948  0.4378
    6CHL1  H22A  427   6.407   0.025   9.109 -1.8551  1.6199 -2.1013
    6CHL1  H22B  428   6.465   0.198   9.096  2.4661  0.1801  0.1508
    6CHL1   C23  429   6.535   0.044   8.947 -0.3544  0.1219 -0.4011
    6CHL1  H23A  430   6.639   0.078   8.926  0.0021 -0.1158  0.8789
    6CHL1  H23B  431   6.528  -0.066   8.961  0.4789 -0.0933 -1.5357
    6CHL1   C24  432   6.434   0.068   8.827  0.4010 -0.4451 -1.0962
    6CHL1  H24A  433   6.352   0.004   8.865  1.4312 -1.5722 -0.6769
    6CHL1  H24B  434   6.386   0.168   8.832 -0.5006 -0.9291  0.6781
    6CHL1   C25  435   6.479   0.020   8.689  0.2245  0.8712  0.0254
    6CHL1   H25  436   6.476  -0.091   8.691  2.2052  0.7049 -2.2052
    6CHL1   C26  437   6.383   0.065   8.581  0.2664 -0.2511  0.1325
    6CHL1  H26A  438   6.354   0.171   8.599 -0.0912 -0.4697  0.9461
    6CHL1  H26B  439   6.415   0.042   8.477  2.8247 -0.6680  0.9352
    6CHL1  H26C  440   6.290   0.011   8.611  1.0604 -1.8150 -0.1010
    6CHL1   C27  441   6.615   0.073   8.650 -0.3234 -0.0714 -0.1111
    6CHL1  H27A  442   6.611   0.179   8.683  1.0569  0.8959 -2.7074
    6CHL1  H27B  443   6.682   0.026   8.725  0.7711  0.5311 -0.6720
    6CHL1  H27C  444   6.654   0.053   8.547 -1.2545  2.8425 -1.1388
    7CHL1    C3  445   0.979   3.604  10.331 -0.5604 -0.1190 -0.6398
    7CHL1    H3  446   0.935   3.504  10.348 -0.2886 -0.1565 -0.1278
    7CHL1    O3  447   0.967   3.677  10.451  0.6529 -0.5417  0.0141
    7CHL1   H3'  448   1.025   3.753  10.455 -3.1215  2.7223 -0.4806
    7CHL1    C4  449   1.126   3.588  10.315 -0.8964  0.6984  0.4782
    7CHL1   H4A  450   1.176   3.686  10.335  0.5717  0.6974 -2.6555
    7CHL1   H4B  451   1.158   3.519  10.396 -1.9959  0.4323  0.6971
    7CHL1    C5  452   1.167   3.554  10.175 -0.1896  0.6806 -0.1492
    7CHL1    C6  453   1.256   3.459  10.141  0.0107  0.2201 -0.5298
    7CHL1    H6  454   1.305   3.400  10.220 -1.8828  0.0031  0.5454
    7CHL1    C7  455   1.302   3.414  10.009  0.7975  0.9234  0.0106
    7CHL1   H7A  456   1.410   3.389  10.020  0.1073 -2.4044  0.2005
    7CHL1   H7B  457   1.250   3.321   9.981  2.9252 -0.4289  0.3211
    7CHL1    C8  458   1.276   3.534   9.910 -0.0208 -0.3134  0.3778
    7CHL1    H8  459   1.352   3.613   9.924  1.9820 -1.4211 -2.9158
    7CHL1   C14  460   1.287   3.488   9.762  0.3117 -0.0866 -0.3423
    7CHL1   H14  461   1.205   3.415   9.746 -1.1388  1.5914 -0.9017
    7CHL1   C15  462   1.414   3.404   9.734  1.3752 -0.2783 -0.0724
    7CHL1  H15A  463   1.504   3.450   9.781  0.2317  0.7834  1.1653
    7CHL1  H15B  464   1.397   3.300   9.768 -2.9663  0.5069  0.8050
    7CHL1   C16  465   1.416   3.411   9.583  0.4931 -0.5448  0.5095
    7CHL1  H16A  466   1.508   3.463   9.552 -0.1280 -0.2848 -0.9691
    7CHL1  H16B  467   1.410   3.308   9.541 -1.2323 -1.6035  3.0855
    7CHL1   C17  468   1.307   3.508   9.532  0.2201 -0.0816 -0.1686
    7CHL1   H17  469   1.215   3.448   9.521 -0.3029  0.5853  0.4652
    7CHL1   C13  470   1.279   3.597   9.654  0.1654  1.2370  0.5484
    7CHL1   C18  471   1.390   3.707   9.675  0.3156  0.0875  0.3766
    7CHL1  H18A  472   1.380   3.784   9.594 -1.8243  0.5974  1.0688
    7CHL1  H18B  473   1.376   3.764   9.769 -0.0588  1.5384 -0.5202
    7CHL1  H18C  474   1.494   3.668   9.670  0.4234 -0.1728  3.2440
    7CHL1   C12  475   1.130   3.648   9.665 -0.1205 -0.5558 -0.3821
    7CHL1  H12A  476   1.108   3.727   9.590 -1.2153  1.0122  1.4840
    7CHL1  H12B  477   1.068   3.557   9.658  0.4821 -0.8590 -2.4044
    7CHL1   C11  478   1.109   3.697   9.807 -0.3194 -0.0264 -0.7469
    7CHL1  H11A  479   1.167   3.791   9.818 -0.0532 -0.1378 -1.1614
    7CHL1  H11B  480   1.009   3.743   9.822  0.6031  1.6027  0.8426
    7CHL1    C9  481   1.134   3.589   9.921 -0.5316 -0.2639 -0.8167
    7CHL1    H9  482   1.067   3.503   9.897 -0.6207 -0.0576 -1.3245
    7CHL1   C10  483   1.100   3.636  10.060 -0.8343 -0.5307 -0.7952
    7CHL1   C19  484   1.156   3.787  10.075  0.1294  1.1649 -0.6802
    7CHL1  H19A  485   1.166   3.812  10.183 -2.2957 -1.9930  0.4203
    7CHL1  H19B  486   1.255   3.782  10.025  0.1598 -4.4335 -0.6859
    7CHL1  H19C  487   1.101   3.864  10.016 -0.6823  0.0669 -1.4031
    7CHL1    C1  488   0.954   3.631  10.076  0.3078  0.3911 -1.0022
    7CHL1   H1A  489   0.916   3.701   9.998  0.2523 -0.8679 -2.1403
    7CHL1   H1B  490   0.904   3.532  10.076 -1.2639  0.8842  4.5262
    7CHL1    C2  491   0.912   3.678  10.214  0.0174 -0.4168  0.5991
    7CHL1   H2A  492   0.802   3.676  10.227 -0.2823 -1.7435 -1.6771
    7CHL1   H2B  493   0.937   3.784  10.234 -2.6879  0.8053 -1.8321
    7CHL1   C20  494   1.349   3.566   9.392 -0.7761 -0.0661 -1.1271
    7CHL1   H20  495   1.451   3.606   9.406 -1.4015  1.0022  0.7063
    7CHL1   C21  496   1.254   3.667   9.338  0.5872 -0.1970  0.6484
    7CHL1  H21A  497   1.288   3.709   9.241  0.9164 -4.1153 -1.1652
    7CHL1  H21B  498   1.236   3.749   9.410 -2.7111  2.1482 -2.4643
    7CHL1  H21C  499   1.159   3.615   9.311  0.4882 -0.6751  1.8762
    7CHL1   C22  500   1.371   3.452   9.293 -0.1917  0.0687  0.0600
    7CHL1  H22A  501   1.429   3.366   9.333  1.1802  0.0111 -1.9215
    7CHL1  H22B  502   1.273   3.402   9.275  0.0670 -0.9487  1.3060
    7CHL1   C23  503   1.437   3.495   9.160  0.0463 -0.1113  0.1066
    7CHL1  H23A  504   1.384   3.587   9.126  0.1848 -0.1534 -0.2309
    7CHL1  H23B  505   1.544   3.522   9.174  0.3365 -1.2773  0.2047
    7CHL1   C24  506   1.432   3.390   9.048  0.3349  0.2073 -0.1613
    7CHL1  H24A  507   1.471   3.294   9.089  0.9852  0.2990 -0.5376
    7CHL1  H24B  508   1.326   3.376   9.018  0.5036 -2.1154  0.1266
    7CHL1   C25  509   1.499   3.417   8.915 -0.0098  0.6829 -0.3255
    7CHL1   H25  510   1.606   3.436   8.938 -0.6561  0.6816  3.3033
    7CHL1   C26  511   1.496   3.302   8.810  0.1877 -0.2000 -0.4895
    7CHL1  H26A  512   1.541   3.336   8.714  0.0166  3.5909  0.6290
    7CHL1  H26B  513   1.537   3.208   8.853  0.3238 -0.0454 -0.2826
    7CHL1  H26C  514   1.391   3.269   8.795  0.2607 -0.9502  0.5651
    7CHL1   C27  515   1.443   3.545   8.847 -0.1915  1.1617  0.1025
    7CHL1  H27A  516   1.433   3.631   8.915  0.9398  1.7376 -0.4293
    7CHL1  H27B  517   1.516   3.564   8.765 -0.6293 -1.0348 -0.8599
    7CHL1  H27C  518   1.336   3.529   8.824 -0.8036  0.0455  3.3046
    8CHL1    C3  519   0.986   4.590  10.011 -0.6614 -0.0607 -0.5764
    8CHL1    H3  520   1.081   4.533  10.013 -1.2854 -1.1323  0.6739
    8CHL1    O3  521   0.967   4.620  10.154  0.5467  0.0936 -0.6421
    8CHL1   H3'  522   0.876   4.648  10.164  0.3309 -0.4949 -0.9152
    8CHL1    C4  523   0.994   4.715   9.919 -0.1548 -0.3634 -0.1013
    8CHL1   H4A  524   0.900   4.773   9.931  0.0967 -0.1775  1.0634
    8CHL1   H4B  525   1.064   4.793   9.955 -2.6290  3.2298 -2.3936
    8CHL1    C5  526   1.003   4.666   9.773 -0.5989  0.1609  0.2698
    8CHL1    C6  527   1.105   4.697   9.693  0.0147 -0.2203  0.0049
    8CHL1    H6  528   1.181   4.762   9.738 -0.8081  1.6410 -1.1488
    8CHL1    C7  529   1.130   4.646   9.554  0.8294 -0.2040  0.2265
    8CHL1   H7A  530   1.171   4.727   9.491  1.7411 -1.7583 -1.2683
    8CHL1   H7B  531   1.201   4.560   9.546  0.2567 -0.6288 -0.4176
    8CHL1    C8  532   0.994   4.600   9.486 -0.6771  0.4014  0.1517
    8CHL1    H8  533   0.931   4.688   9.459  1.6172  1.8924 -0.6220
    8CHL1   C14  534   1.039   4.511   9.363  0.2566  0.2399  0.4543
    8CHL1   H14  535   1.094   4.423   9.403  1.4393  0.9996  0.5669
    8CHL1   C15  536   1.142   4.580   9.280  0.3555 -0.1001  0.2624
    8CHL1  H15A  537   1.097   4.681   9.273 -2.6769 -1.4333 -1.4897
    8CHL1  H15B  538   1.244   4.575   9.323  0.0882  1.0730  1.0805
    8CHL1   C16  539   1.118   4.518   9.141  0.0350 -0.5649  0.4632
    8CHL1  H16A  540   1.079   4.604   9.083  0.7568 -0.8766 -0.4898
    8CHL1  H16B  541   1.218   4.480   9.112  0.6483  2.0540 -1.1148
    8CHL1   C17  542   1.003   4.410   9.153 -0.3014 -0.4978 -0.9235
    8CHL1   H17  543   1.050   4.318   9.193  0.5054  0.5441  0.6369
    8CHL1   C13  544   0.925   4.465   9.275  0.4140  0.1552 -0.2749
    8CHL1   C18  545   0.824   4.578   9.235  0.1633  0.1351  0.2821
    8CHL1  H18A  546   0.755   4.541   9.156  0.6003 -1.9417  0.8167
    8CHL1  H18B  547   0.769   4.606   9.327 -1.0153  0.9014 -0.6208
    8CHL1  H18C  548   0.877   4.666   9.194  0.8995 -0.4421 -0.0150
    8CHL1   C12  549   0.859   4.368   9.376 -0.5898  0.1683 -0.1891
    8CHL1  H12A  550   0.772   4.312   9.335 -1.8150  2.6493 -1.2273
    8CHL1  H12B  551   0.936   4.296   9.411 -0.5861 -0.0700 -0.6844
    8CHL1   C11  552   0.816   4.431   9.514 -0.6755  0.7955  0.3536
    8CHL1  H11A  553   0.730   4.498   9.496 -1.5173  0.2984  2.2813
    8CHL1  H11B  554   0.790   4.346   9.581 -1.0678  0.7274  0.1192
    8CHL1    C9  555   0.935   4.508   9.586 -0.0631  0.2556 -0.1970
    8CHL1    H9  556   1.013   4.434   9.614 -0.6285  0.1926  1.3098
    8CHL1   C10  557   0.893   4.572   9.721 -0.3048  0.9905  0.4140
    8CHL1   C19  558   0.766   4.661   9.703 -0.2584  0.2874  0.1955
    8CHL1  H19A  559   0.788   4.748   9.637 -0.4506  0.5536  0.4775
    8CHL1  H19B  560   0.678   4.605   9.665 -1.0878  2.2489 -0.9305
    8CHL1  H19C  561   0.731   4.698   9.803 -0.4411 -0.3012  0.3508
    8CHL1    C1  562   0.865   4.459   9.831 -0.0233  0.5003  0.5657
    8CHL1   H1A  563   0.769   4.412   9.799  0.7717 -0.9219  0.1728
    8CHL1   H1B  564   0.950   4.389   9.825  0.8172  1.5782 -0.6726
    8CHL1    C2  565   0.866   4.505   9.972  0.0327  0.6975 -0.3906
    8CHL1   H2A  566   0.853   4.423  10.046  1.9328  0.9120  0.2299
    8CHL1   H2B  567   0.776   4.569   9.983 -0.8462 -0.5983  0.1807
    8CHL1   C20  568   0.934   4.379   9.017  0.2394  0.3766  0.3324
    8CHL1   H20  569   0.903   4.467   8.956  1.1449 -1.7558 -3.5770
    8CHL1   C21  570   0.804   4.300   9.026 -0.1150  0.0380  0.8159
    8CHL1  H21A  571   0.813   4.206   9.084  1.1452 -0.5652 -0.3002
    8CHL1  H21B  572   0.776   4.264   8.925  0.4310  0.1077  0.6369
    8CHL1  H21C  573   0.723   4.369   9.059 -1.3380 -0.2653 -1.3611
    8CHL1   C22  574   1.028   4.294   8.933  0.2695 -0.0058  0.0753
    8CHL1  H22A  575   1.132   4.319   8.962 -0.3946  1.1139  1.6311
    8CHL1  H22B  576   1.006   4.187   8.954 -2.1826 -0.0119 -2.0106
    8CHL1   C23  577   1.012   4.323   8.778  0.4483  0.4027 -0.3594
    8CHL1  H23A  578   0.915   4.281   8.744 -0.9244  2.1730  1.1487
    8CHL1  H23B  579   1.014   4.430   8.749 -0.1626  0.2293 -1.0685
    8CHL1   C24  580   1.117   4.262   8.691 -0.0071  0.3768  0.4744
    8CHL1  H24A  581   1.212   4.314   8.716  0.5947 -0.4864  0.0336
    8CHL1  H24B  582   1.140   4.154   8.700  0.8617  0.2318 -2.4353
    8CHL1   C25  583   1.093   4.271   8.539  0.0669 -0.4370 -0.1129
    8CHL1   H25  584   1.058   4.376   8.527  1.5885  0.1561  0.4907
    8CHL1   C26  585   1.222   4.258   8.452  0.1934  0.6860 -0.7480
    8CHL1  H26A  586   1.206   4.252   8.342  2.0317  1.3797 -1.0766
    8CHL1  H26B  587   1.279   4.351   8.473 -0.2420  0.2036  3.6398
    8CHL1  H26C  588   1.277   4.166   8.480 -1.1299 -0.7505 -2.6214
    8CHL1   C27  589   0.987   4.160   8.500 -0.2655  0.2371  0.1332
    8CHL1  H27A  590   0.889   4.185   8.547  0.7230  2.1825  1.2830
    8CHL1  H27B  591   0.965   4.158   8.391 -0.3869  2.1847  0.0882
    8CHL1  H27C  592   1.024   4.062   8.537  2.4785  0.2823 -2.1737
    9CHL1    C3  593   3.908   0.946  10.085 -0.5866 -0.3613 -0.9907
    9CHL1    H3  594   3.912   1.057  10.088 -2.2798 -0.2785 -0.6618
    9CHL1    O3  595   3.964   0.900  10.213  0.2981  0.1392  0.0073
    9CHL1   H3'  596   4.020   0.825  10.191  1.4165  0.7523  0.7291
    9CHL1    C4  597   3.760   0.900  10.059 -0.1030 -0.0330  1.1348
    9CHL1   H4A  598   3.753   0.789  10.069 -2.0135 -0.2089 -1.2244
    9CHL1   H4B  599   3.688   0.938  10.134  0.0447 -0.5883  1.5718
    9CHL1    C5  600   3.724   0.955   9.920 -0.1810 -0.5705  0.6248
    9CHL1    C6  601   3.609   1.027   9.909 -0.7390  0.1647  0.3082
    9CHL1    H6  602   3.551   1.044  10.001  0.6269 -0.5490  1.3317
    9CHL1    C7  603   3.564   1.076   9.770 -0.6116  0.0959  0.4374
    9CHL1   H7A  604   3.457   1.048   9.760 -1.7321  3.6891  0.9557
    9CHL1   H7B  605   3.587   1.182   9.748  0.5010  0.1101  1.5556
    9CHL1    C8  606   3.642   1.010   9.652 -0.3452  0.2520 -0.0110
    9CHL1    H8  607   3.601   0.908   9.638 -0.7433  0.4986 -0.7069
    9CHL1   C14  608   3.613   1.083   9.521 -0.1854  0.7341 -0.1642
    9CHL1   H14  609   3.649   1.188   9.529 -0.6596  1.0190 -1.4783
    9CHL1   C15  610   3.472   1.093   9.486  0.9219  0.2521 -0.3355
    9CHL1  H15A  611   3.426   0.995   9.508 -0.7175  0.7414 -1.3816
    9CHL1  H15B  612   3.422   1.178   9.537  1.6918 -0.0959  1.0476
    9CHL1   C16  613   3.469   1.118   9.330 -0.0379  0.8689 -0.2021
    9CHL1  H16A  614   3.414   1.035   9.282 -1.1040  0.7103  1.2151
    9CHL1  H16B  615   3.437   1.222   9.312 -1.3434  0.6914  0.9497
    9CHL1   C17  616   3.616   1.104   9.285 -0.5126 -0.0589 -0.7178
    9CHL1   H17  617   3.661   1.205   9.292 -0.8328  0.0126  0.5152
    9CHL1   C13  618   3.681   1.024   9.397  0.2205  1.2652 -0.4576
    9CHL1   C18  619   3.649   0.873   9.385  0.1564  0.0174  0.6077
    9CHL1  H18A  620   3.674   0.805   9.469  1.0196  0.0470  0.3954
    9CHL1  H18B  621   3.541   0.860   9.365  0.9003 -1.0678 -4.1591
    9CHL1  H18C  622   3.699   0.827   9.296 -0.7924  0.6801 -0.2899
    9CHL1   C12  623   3.841   1.052   9.422  0.3516  0.2290 -0.0337
    9CHL1  H12A  624   3.899   1.021   9.332 -1.8833  0.0820 -1.4971
    9CHL1  H12B  625   3.861   1.160   9.442 -3.3021  0.6837  1.9150
    9CHL1   C11  626   3.880   0.970   9.554 -0.6059 -0.5084  0.3453
    9CHL1  H11A  627   3.858   0.864   9.530 -0.5138  0.2296 -3.9318
    9CHL1  H11B  628   3.987   0.981   9.581 -0.2017 -1.6366 -0.7143
    9CHL1    C9  629   3.790   1.010   9.680  0.0785 -0.0616 -0.1669
    9CHL1    H9  630   3.823   1.114   9.697  0.9754 -0.6146  1.7457
    9CHL1   C10  631   3.823   0.930   9.804  0.4697  0.1116  0.6639
    9CHL1   C19  632   3.813   0.776   9.770  0.6036 -0.2478 -0.0490
    9CHL1  H19A  633   3.721   0.751   9.713 -0.3797 -0.2354  1.4580
    9CHL1  H19B  634   3.897   0.745   9.705  0.9149  0.7558 -0.1396
    9CHL1  H19C  635   3.826   0.720   9.865  0.3523  0.0326  0.1570
    9CHL1    C1  636   3.973   0.950   9.842  0.5202 -0.4601  0.1875
    9CHL1   H1A  637   4.024   0.885   9.769 -2.2607 -2.6428  0.0196
    9CHL1   H1B  638   3.999   1.058   9.845 -0.8837 -0.1199  1.0214
    9CHL1    C2  639   4.010   0.896   9.983  0.1144 -0.0639  0.1267
    9CHL1   H2A  640   4.112   0.922  10.016 -1.1598  4.7539  1.0258
    9CHL1   H2B  641   3.999   0.785   9.987 -2.7867  0.1350  0.0621
    9CHL1   C20  642   3.622   1.057   9.141 -0.4233  0.2511  0.4922
    9CHL1   H20  643   3.588   0.952   9.137 -0.0323  0.0755  1.5597
    9CHL1   C21  644   3.769   1.054   9.094 -0.2029  0.9480 -0.2521
    9CHL1  H21A  645   3.825   0.978   9.153 -3.3399 -0.5457  0.9854
    9CHL1  H21B  646   3.827   1.144   9.122  3.6549 -1.1394 -0.8035
    9CHL1  H21C  647   3.787   1.034   8.986  0.3467 -3.6639  0.4964
    9CHL1   C22  648   3.536   1.145   9.041 -0.4418 -0.9794 -0.3124
    9CHL1  H22A  649   3.438   1.165   9.089  0.5287  0.8476  1.0728
    9CHL1  H22B  650   3.587   1.244   9.036 -0.0716 -1.2029 -1.1599
    9CHL1   C23  651   3.530   1.074   8.899  0.0196 -0.3920 -0.1813
    9CHL1  H23A  652   3.630   1.066   8.851 -0.5597 -2.7607 -1.1647
    9CHL1  H23B  653   3.500   0.969   8.920 -0.5629  0.1346  1.8005
    9CHL1   C24  654   3.431   1.143   8.811 -0.2770  0.0071 -0.3711
    9CHL1  H24A  655   3.322   1.149   8.830  0.1260  2.4882  1.7286
    9CHL1  H24B  656   3.466   1.249   8.808  0.1461 -0.1020  0.4737
    9CHL1   C25  657   3.449   1.089   8.659 -1.2379 -1.2224 -0.8964
    9CHL1   H25  658   3.559   1.095   8.646 -0.9066  1.6343  2.1162
    9CHL1   C26  659   3.389   0.949   8.652  0.0823 -0.2974  0.8376
    9CHL1  H26A  660   3.448   0.875   8.711 -0.1610 -1.4065 -0.2540
    9CHL1  H26B  661   3.282   0.935   8.678 -0.2196 -2.2037 -1.0847
    9CHL1  H26C  662   3.402   0.915   8.547 -2.5218 -1.4266  0.7771
    9CHL1   C27  663   3.403   1.193   8.549  0.5788 -0.1824 -0.0082
    9CHL1  H27A  664   3.302   1.221   8.583  0.2132 -1.1027 -0.2983
    9CHL1  H27B  665   3.461   1.287   8.562  0.7426 -0.3893  0.8291
    9CHL1  H27C  666   3.395   1.154   8.445  1.4433  0.8869 -0.4899
   10CHL1    C3  667   2.453   5.404   9.929  0.3692 -0.0950  0.6075
   10CHL1    H3  668   2.551   5.454   9.938  1.1211 -1.5177  0.6606
   10CHL1    O3  669   2.425   5.355  10.061  0.5396 -0.4669  0.3585
   10CHL1   H3'  670   2.400   5.423  10.124  1.7468  1.0998 -0.7669
   10CHL1    C4  671   2.349   5.498   9.884 -0.0443  0.0251  0.2624
   10CHL1   H4A  672   2.244   5.460   9.882 -0.9249  2.1366  2.3098
   10CHL1   H4B  673   2.346   5.592   9.943  1.8296  0.1885  0.1429
   10CHL1    C5  674   2.365   5.528   9.735  0.6332 -0.4282 -0.3892
   10CHL1    C6  675   2.382   5.653   9.695  0.1257  0.2193 -0.0078
   10CHL1    H6  676   2.391   5.731   9.772  0.9355  2.4555 -2.2096
   10CHL1    C7  677   2.410   5.701   9.558 -0.3018  0.2546  0.3767
   10CHL1   H7A  678   2.343   5.789   9.548 -3.1781 -1.5494  2.3280
   10CHL1   H7B  679   2.518   5.725   9.544  0.1653 -1.9808 -0.3940
   10CHL1    C8  680   2.379   5.592   9.450 -0.2215 -0.6363 -0.0155
   10CHL1    H8  681   2.268   5.588   9.441 -0.2847  0.0612  0.3630
   10CHL1   C14  682   2.442   5.635   9.319 -0.9837 -0.0532 -0.1609
   10CHL1   H14  683   2.549   5.625   9.347 -0.4922  1.3940 -1.4037
   10CHL1   C15  684   2.437   5.779   9.269 -0.4797 -0.3205 -0.0136
   10CHL1  H15A  685   2.337   5.823   9.288 -0.0156  0.9384 -0.3864
   10CHL1  H15B  686   2.519   5.848   9.297  2.7031 -2.9467 -2.0966
   10CHL1   C16  687   2.462   5.772   9.116 -0.1695 -0.2406  0.0789
   10CHL1  H16A  688   2.376   5.806   9.055  0.6634  0.2423 -0.8544
   10CHL1  H16B  689   2.551   5.831   9.086 -0.2774  0.4936  1.1511
   10CHL1   C17  690   2.496   5.616   9.100 -0.3645 -0.6807  0.1301
   10CHL1   H17  691   2.604   5.604   9.126  0.3844  3.3761 -0.4209
   10CHL1   C13  692   2.412   5.538   9.202  0.4807 -0.2772  0.1533
   10CHL1   C18  693   2.263   5.562   9.173  0.7797 -0.5592  0.4521
   10CHL1  H18A  694   2.244   5.500   9.083  0.9827  1.5984 -1.1347
   10CHL1  H18B  695   2.196   5.523   9.253 -0.0098  0.0448  0.1028
   10CHL1  H18C  696   2.233   5.667   9.151 -1.7620 -1.5394 -1.2747
   10CHL1   C12  697   2.452   5.393   9.238 -0.3364  0.2794 -0.6049
   10CHL1  H12A  698   2.416   5.326   9.157  0.7045  0.2633 -1.0711
   10CHL1  H12B  699   2.563   5.386   9.243 -0.3541  0.7018  0.9946
   10CHL1   C11  700   2.403   5.350   9.377  0.8472  0.3991  0.1759
   10CHL1  H11A  701   2.294   5.334   9.365  0.6354 -0.2329  2.5807
   10CHL1  H11B  702   2.443   5.250   9.403 -2.7158 -0.7967  1.6593
   10CHL1    C9  703   2.426   5.451   9.488  0.5563  1.0677 -0.2263
   10CHL1    H9  704   2.537   5.448   9.501  0.5394 -2.2589  0.0596
   10CHL1   C10  705   2.388   5.414   9.639  0.4155  0.9617 -0.5151
   10CHL1   C19  706   2.254   5.322   9.638  0.8870  0.5619  0.1281
   10CHL1  H19A  707   2.220   5.302   9.742  1.4952 -0.1399  0.2037
   10CHL1  H19B  708   2.177   5.370   9.574  0.2142 -0.3979  0.1990
   10CHL1  H19C  709   2.276   5.224   9.593 -1.8460 -0.2864  0.4917
   10CHL1    C1  710   2.504   5.325   9.700  0.9147 -0.1260  0.5823
   10CHL1   H1A  711   2.530   5.233   9.642 -0.8112  0.4336 -1.2083
   10CHL1   H1B  712   2.591   5.393   9.709 -0.9600  2.4920  0.0366
   10CHL1    C2  713   2.473   5.279   9.842  0.3219  0.1967  0.3353
   10CHL1   H2A  714   2.560   5.223   9.884  1.5315  1.6138 -0.1963
   10CHL1   H2B  715   2.383   5.217   9.863  1.2875 -0.9402  1.2395
   10CHL1   C20  716   2.492   5.568   8.952 -0.5191  0.5337  0.2732
   10CHL1   H20  717   2.389   5.546   8.915 -0.0297 -0.7037 -0.4230
   10CHL1   C21  718   2.584   5.440   8.938 -0.0915 -0.4939 -0.1996
   10CHL1  H21A  719   2.540   5.367   9.009 -0.4407 -2.0569 -1.9620
   10CHL1  H21B  720   2.688   5.460   8.970  0.3260 -3.4052  0.4679
   10CHL1  H21C  721   2.576   5.391   8.838 -0.7857  0.3820 -0.5944
   10CHL1   C22  722   2.536   5.680   8.846 -0.0267 -0.8887  0.7119
   10CHL1  H22A  723   2.467   5.768   8.848  0.3782 -0.5663  0.5211
   10CHL1  H22B  724   2.634   5.720   8.880 -1.0706  0.0417  2.8694
   10CHL1   C23  725   2.548   5.622   8.706 -0.3137 -0.6144  0.3266
   10CHL1  H23A  726   2.644   5.568   8.695 -1.1293 -2.2656  0.9485
   10CHL1  H23B  727   2.455   5.567   8.680 -0.3086  0.4362 -2.3350
   10CHL1   C24  728   2.563   5.737   8.609 -0.1134 -0.4048  0.2420
   10CHL1  H24A  729   2.479   5.804   8.636  0.8104 -0.1075  2.6885
   10CHL1  H24B  730   2.655   5.798   8.625  0.9910 -1.4640 -1.6939
   10CHL1   C25  731   2.544   5.691   8.463  0.6101 -0.7281 -0.0730
   10CHL1   H25  732   2.474   5.606   8.465 -2.3735  1.5650  0.1287
   10CHL1   C26  733   2.488   5.810   8.380  0.0136  0.8156  0.3330
   10CHL1  H26A  734   2.548   5.903   8.393 -0.5740  1.1369  0.8151
   10CHL1  H26B  735   2.492   5.774   8.275 -0.7866 -1.3439  0.9798
   10CHL1  H26C  736   2.382   5.840   8.394 -0.8543 -0.2310 -3.0163
   10CHL1   C27  737   2.672   5.649   8.392 -0.5139  0.1153 -0.0899
   10CHL1  H27A  738   2.743   5.734   8.389  1.8629 -1.7741 -0.7136
   10CHL1  H27B  739   2.710   5.566   8.455 -1.3463 -1.9230 -2.1249
   10CHL1  H27C  740   2.648   5.619   8.287  1.0354 -1.2495 -0.1048
   11CHL1    C3  741   0.531   1.744  10.293 -0.1448 -0.5599 -0.3797
   11CHL1    H3  742   0.455   1.825  10.289 -1.8085 -2.0440 -0.6501
   11CHL1    O3  743   0.547   1.720  10.433 -0.3822  0.1111 -0.2098
   11CHL1   H3'  744   0.602   1.645  10.456 -1.0720  0.3470  2.5868
   11CHL1    C4  745   0.464   1.619  10.227 -0.5170  0.4015 -0.2312
   11CHL1   H4A  746   0.530   1.533  10.251 -0.6137 -0.0472 -1.4944
   11CHL1   H4B  747   0.370   1.607  10.285 -0.7150  1.7809 -0.2305
   11CHL1    C5  748   0.454   1.648  10.078  0.6118  0.1778 -0.6937
   11CHL1    C6  749   0.338   1.635  10.018  0.4276 -0.2737  0.5683
   11CHL1    H6  750   0.256   1.611  10.087  1.2810  1.1499  2.1354
   11CHL1    C7  751   0.309   1.662   9.869 -0.1610 -0.3336 -0.0935
   11CHL1   H7A  752   0.235   1.593   9.824  0.5191 -2.1380  1.4401
   11CHL1   H7B  753   0.264   1.763   9.854 -0.7481 -0.9802 -3.8148
   11CHL1    C8  754   0.438   1.663   9.786 -0.3316  0.0777  0.0082
   11CHL1    H8  755   0.471   1.558   9.778 -0.4677  0.1766 -2.5935
   11CHL1   C14  756   0.410   1.722   9.645  0.0664  0.0439 -0.2119
   11CHL1   H14  757   0.386   1.828   9.664  0.5745  0.0236  0.5823
   11CHL1   C15  758   0.285   1.677   9.563 -0.0509 -0.5516  0.0881
   11CHL1  H15A  759   0.279   1.567   9.557  1.5091 -0.5985 -1.2554
   11CHL1  H15B  760   0.190   1.724   9.598 -0.3918 -1.1501 -0.0238
   11CHL1   C16  761   0.323   1.735   9.424 -0.1791  0.5487  0.3067
   11CHL1  H16A  762   0.308   1.652   9.351  0.5739  0.3978  0.3208
   11CHL1  H16B  763   0.257   1.822   9.402 -0.6629 -0.3118 -1.8285
   11CHL1   C17  764   0.470   1.779   9.422  0.1229 -0.0462 -0.4074
   11CHL1   H17  765   0.480   1.889   9.436 -0.9435 -0.1358  1.3319
   11CHL1   C13  766   0.531   1.722   9.557  0.1057  0.3825  0.5623
   11CHL1   C18  767   0.571   1.572   9.536  0.0399 -0.1045 -0.0280
   11CHL1  H18A  768   0.638   1.556   9.449 -2.6100  1.1564 -2.4719
   11CHL1  H18B  769   0.624   1.536   9.626 -0.5265  1.6877  1.0615
   11CHL1  H18C  770   0.487   1.500   9.522  0.4601 -0.1458 -3.0509
   11CHL1   C12  771   0.637   1.804   9.624  0.0088 -0.5096  0.5685
   11CHL1  H12A  772   0.728   1.817   9.561 -0.1495 -0.3630  0.3724
   11CHL1  H12B  773   0.603   1.909   9.637  0.8604 -0.2854  1.1400
   11CHL1   C11  774   0.673   1.760   9.765 -0.1870 -0.4720 -0.3579
   11CHL1  H11A  775   0.728   1.663   9.761 -0.1937 -0.5260  0.6600
   11CHL1  H11B  776   0.743   1.837   9.803  0.0696  0.6516 -2.8777
   11CHL1    C9  777   0.550   1.746   9.859  0.0534  0.1082  0.6959
   11CHL1    H9  778   0.507   1.848   9.869 -0.9809 -0.3717  1.1895
   11CHL1   C10  779   0.580   1.697  10.006  0.0270 -0.1432  0.3277
   11CHL1   C19  780   0.672   1.572   9.997  0.0473 -0.0048  0.6804
   11CHL1  H19A  781   0.700   1.532  10.096  2.1191  0.6269  0.3966
   11CHL1  H19B  782   0.617   1.495   9.938  1.0401  0.3969 -0.8478
   11CHL1  H19C  783   0.767   1.580   9.941  0.2267 -1.8805  0.6554
   11CHL1    C1  784   0.641   1.818  10.080 -0.4625  0.4088  0.3071
   11CHL1   H1A  785   0.736   1.841  10.028  1.0086 -0.5422  2.4406
   11CHL1   H1B  786   0.571   1.903  10.066 -0.6509 -0.1963 -3.3842
   11CHL1    C2  787   0.662   1.797  10.229  0.4561 -0.0530  0.0259
   11CHL1   H2A  788   0.681   1.894  10.279 -1.2440  0.7356 -0.8154
   11CHL1   H2B  789   0.741   1.719  10.239  1.3295  0.8804  0.6528
   11CHL1   C20  790   0.535   1.747   9.282  0.1847 -0.5823 -0.5594
   11CHL1   H20  791   0.557   1.639   9.270  0.3838 -0.4911 -1.0586
   11CHL1   C21  792   0.661   1.829   9.268 -0.5182 -0.6659 -0.2059
   11CHL1  H21A  793   0.704   1.826   9.165 -1.0639  1.5554 -0.5453
   11CHL1  H21B  794   0.740   1.789   9.336  0.1840  1.4497  0.2958
   11CHL1  H21C  795   0.649   1.934   9.301 -0.4274 -0.1281 -1.7775
   11CHL1   C22  796   0.430   1.791   9.176 -0.3666  0.8917 -0.3038
   11CHL1  H22A  797   0.357   1.708   9.169 -0.1617  0.7406 -0.7093
   11CHL1  H22B  798   0.378   1.887   9.198  1.9873  2.1809  0.0150
   11CHL1   C23  799   0.493   1.822   9.038  0.6309  0.4170  0.7597
   11CHL1  H23A  800   0.558   1.912   9.039  0.9797  0.2318 -1.1558
   11CHL1  H23B  801   0.541   1.732   8.994 -1.9724 -0.6571 -0.0894
   11CHL1   C24  802   0.384   1.870   8.939  0.9608 -0.3524 -0.4295
   11CHL1  H24A  803   0.322   1.781   8.916  1.4517  0.2208 -5.0315
   11CHL1  H24B  804   0.318   1.942   8.992 -1.4691 -1.3260 -1.9714
   11CHL1   C25  805   0.435   1.929   8.808  0.0483 -0.2980  0.3621
   11CHL1   H25  806   0.492   2.018   8.842 -0.8534  0.6863 -0.6326
   11CHL1   C26  807   0.530   1.829   8.731 -0.6149  0.4496 -0.2215
   11CHL1  H26A  808   0.556   1.860   8.628 -0.3363 -2.1703 -1.0139
   11CHL1  H26B  809   0.627   1.815   8.783 -1.2766 -1.0195  0.7015
   11CHL1  H26C  810   0.497   1.722   8.731 -1.1633  0.6121 -0.7776
   11CHL1   C27  811   0.318   1.982   8.728 -0.0654  0.6885  0.7959
   11CHL1  H27A  812   0.347   2.064   8.658  0.9494 -0.7863 -0.5949
   11CHL1  H27B  813   0.263   1.903   8.673 -0.0633  0.1958  1.5016
   11CHL1  H27C  814   0.243   2.029   8.794  1.1840  1.4356  1.7326
   12CHL1    C3  815   1.852   5.052  10.218 -1.2242  0.3839  0.2133
   12CHL1    H3  816   1.919   5.141  10.223 -0.4006 -0.2648  1.4255
   12CHL1    O3  817   1.818   5.022  10.353 -0.7020 -0.1064 -0.7580
   12CHL1   H3'  818   1.791   4.931  10.338  0.8176 -0.3596 -2.3261
   12CHL1    C4  819   1.734   5.088  10.131 -0.0479  0.2385  0.2012
   12CHL1   H4A  820   1.658   5.007  10.131  1.6704 -1.4676 -0.8178
   12CHL1   H4B  821   1.694   5.174  10.188  3.1936  0.7173  2.0440
   12CHL1    C5  822   1.774   5.124   9.992 -0.6004  0.2171  0.2050
   12CHL1    C6  823   1.756   5.246   9.945 -0.1959  0.3894 -0.7551
   12CHL1    H6  824   1.706   5.319  10.010 -0.2406 -1.1274  0.9928
   12CHL1    C7  825   1.799   5.283   9.805 -0.3572 -0.1618  0.4333
   12CHL1   H7A  826   1.712   5.336   9.760 -0.7809  0.4124  1.8585
   12CHL1   H7B  827   1.879   5.358   9.815 -0.0854 -0.3051 -0.5392
   12CHL1    C8  828   1.836   5.167   9.714 -0.2844 -0.3087  0.4789
   12CHL1    H8  829   1.748   5.106   9.683  1.4028 -2.9103  0.4574
   12CHL1   C14  830   1.911   5.206   9.589  0.1032 -0.1125 -0.0731
   12CHL1   H14  831   2.009   5.246   9.622 -1.3735  2.2707  1.7443
   12CHL1   C15  832   1.844   5.306   9.494 -0.0606  0.2311 -0.0826
   12CHL1  H15A  833   1.740   5.270   9.474  1.1133 -2.5155 -1.7259
   12CHL1  H15B  834   1.846   5.410   9.534  0.4463  0.1377  0.1364
   12CHL1   C16  835   1.933   5.306   9.372 -0.0216  0.1943  0.4821
   12CHL1  H16A  836   1.867   5.295   9.283  0.4840  2.2805 -0.2038
   12CHL1  H16B  837   1.986   5.403   9.374  0.4932 -0.0339 -0.8667
   12CHL1   C17  838   2.024   5.177   9.385 -0.7733 -0.1911  0.5134
   12CHL1   H17  839   2.114   5.211   9.441 -0.9057 -0.9424  1.2016
   12CHL1   C13  840   1.953   5.091   9.492 -0.6745  0.1915 -0.5268
   12CHL1   C18  841   1.839   5.014   9.424 -0.3206  0.6982 -0.7335
   12CHL1  H18A  842   1.878   4.927   9.368  0.6441  0.3546  0.4114
   12CHL1  H18B  843   1.769   4.965   9.495  0.1381  1.7179  0.4777
   12CHL1  H18C  844   1.770   5.073   9.361 -0.8483  2.5140  1.3852
   12CHL1   C12  845   2.044   4.992   9.570 -0.3417 -0.4680 -0.4224
   12CHL1  H12A  846   2.072   4.903   9.511  0.4589 -1.1559  0.9303
   12CHL1  H12B  847   2.139   5.036   9.610 -1.5471 -0.9667  3.4373
   12CHL1   C11  848   1.975   4.953   9.700 -0.4082 -0.7301  0.3320
   12CHL1  H11A  849   1.905   4.873   9.668  0.6849 -1.7753  0.4925
   12CHL1  H11B  850   2.050   4.895   9.758  1.8109  0.2866 -1.3506
   12CHL1    C9  851   1.919   5.066   9.792 -0.0882  0.1486  0.6840
   12CHL1    H9  852   2.009   5.124   9.822 -0.1977  1.2901 -1.0392
   12CHL1   C10  853   1.856   5.016   9.922  0.2964  0.0092  0.8691
   12CHL1   C19  854   1.765   4.901   9.880  0.5716 -0.2362  0.8551
   12CHL1  H19A  855   1.707   4.922   9.788 -1.4937 -1.1698  1.8678
   12CHL1  H19B  856   1.819   4.806   9.861  0.0944 -0.2970 -0.2679
   12CHL1  H19C  857   1.685   4.877   9.954 -0.7128  1.3444  0.0479
   12CHL1    C1  858   1.965   4.959  10.008  0.1073  1.0201  1.0625
   12CHL1   H1A  859   2.005   4.870   9.955 -1.6825  0.1659  1.0489
   12CHL1   H1B  860   2.045   5.036  10.004 -0.4177  1.5389 -1.2962
   12CHL1    C2  861   1.912   4.927  10.152  0.1329 -0.7871  0.2547
   12CHL1   H2A  862   2.002   4.888  10.205 -0.7984 -3.8943 -0.2622
   12CHL1   H2B  863   1.843   4.841  10.162  0.7112 -1.0766  2.1731
   12CHL1   C20  864   2.074   5.125   9.244 -0.0878 -0.4552 -0.4221
   12CHL1   H20  865   1.981   5.073   9.212 -0.8941  0.2987  0.6224
   12CHL1   C21  866   2.182   5.022   9.274  0.0826 -0.3423  0.6004
   12CHL1  H21A  867   2.235   4.968   9.192  1.1773 -0.6228  1.4743
   12CHL1  H21B  868   2.131   4.942   9.331  0.5628 -0.9354  0.2092
   12CHL1  H21C  869   2.263   5.072   9.331  0.2862  0.4753 -0.3725
   12CHL1   C22  870   2.107   5.229   9.129  0.5011 -0.3676  0.6921
   12CHL1  H22A  871   2.006   5.259   9.093  1.0767 -0.0965 -0.7735
   12CHL1  H22B  872   2.152   5.319   9.177  1.0510  0.3657 -1.0975
   12CHL1   C23  873   2.180   5.176   9.003  0.0010  0.2392 -0.2667
   12CHL1  H23A  874   2.286   5.152   9.024 -0.5065 -1.1845  0.8195
   12CHL1  H23B  875   2.140   5.083   8.957 -0.6461  0.7503 -0.7649
   12CHL1   C24  876   2.180   5.279   8.891 -0.0394 -0.0216  0.3797
   12CHL1  H24A  877   2.077   5.305   8.858 -0.2919 -1.7473 -0.2597
   12CHL1  H24B  878   2.227   5.369   8.936  2.3672  0.2683 -2.4023
   12CHL1   C25  879   2.279   5.270   8.770 -0.0252  0.3698 -0.4806
   12CHL1   H25  880   2.386   5.264   8.798 -0.5486 -1.6804  1.2918
   12CHL1   C26  881   2.241   5.142   8.698  0.0853  0.1157  0.1562
   12CHL1  H26A  882   2.315   5.122   8.618  0.2164 -1.8448  0.7332
   12CHL1  H26B  883   2.248   5.054   8.765  0.9671  0.1918  0.1772
   12CHL1  H26C  884   2.144   5.143   8.644  0.1758 -0.6998 -0.0350
   12CHL1   C27  885   2.260   5.389   8.677 -0.2456  0.1158  0.2273
   12CHL1  H27A  886   2.276   5.486   8.728  1.1943 -0.2355  0.5120
   12CHL1  H27B  887   2.333   5.387   8.592  0.4708  0.3353  0.8281
   12CHL1  H27C  888   2.154   5.383   8.645 -0.8972  0.6281  2.1975
   13CHL1    C3  889   0.662   5.436   9.790  0.0004  1.1251 -0.9562
   13CHL1    H3  890   0.676   5.326   9.788  1.3100  1.2613 -0.3084
   13CHL1    O3  891   0.624   5.471   9.922  0.5646  0.4227 -0.2867
   13CHL1   H3'  892   0.689   5.444   9.987 -1.1043 -1.7718  0.6300
   13CHL1    C4  893   0.798   5.510   9.760 -0.0758 -0.2805 -0.2341
   13CHL1   H4A  894   0.775   5.618   9.772  0.1147 -0.1147 -1.2522
   13CHL1   H4B  895   0.866   5.477   9.841  1.9303  0.7318 -1.4004
   13CHL1    C5  896   0.854   5.492   9.626  0.7089  0.2385 -0.1791
   13CHL1    C6  897   0.980   5.457   9.604 -0.7955  0.2127  0.2458
   13CHL1    H6  898   1.055   5.440   9.682 -2.5130 -2.2644  1.5285
   13CHL1    C7  899   1.044   5.444   9.468  0.0390 -0.0078 -0.2140
   13CHL1   H7A  900   1.147   5.486   9.458  1.2426 -2.0918  2.2008
   13CHL1   H7B  901   1.066   5.336   9.452  4.1228  0.7581 -1.0231
   13CHL1    C8  902   0.951   5.493   9.360 -0.2399 -0.1088  0.0267
   13CHL1    H8  903   0.959   5.603   9.372  0.3840 -0.3283  2.1477
   13CHL1   C14  904   0.983   5.437   9.226  0.0282  0.3715 -0.7895
   13CHL1   H14  905   0.974   5.327   9.234 -0.3237  0.2457 -2.4750
   13CHL1   C15  906   1.124   5.455   9.176 -0.6324 -0.1101 -0.5296
   13CHL1  H15A  907   1.157   5.561   9.181 -2.9262  0.7234 -1.4915
   13CHL1  H15B  908   1.198   5.391   9.227  2.7424  0.2759 -4.3552
   13CHL1   C16  909   1.113   5.432   9.018  0.0643  0.1881 -0.5561
   13CHL1  H16A  910   1.148   5.523   8.966 -1.6577  2.0028  1.3061
   13CHL1  H16B  911   1.174   5.345   8.984  0.4199  0.8921 -1.8048
   13CHL1   C17  912   0.966   5.419   8.984 -0.2581 -0.1309  0.1231
   13CHL1   H17  913   0.955   5.309   8.996 -0.3009 -0.1218  0.1648
   13CHL1   C13  914   0.895   5.478   9.103  0.1711  0.4761 -0.6072
   13CHL1   C18  915   0.893   5.628   9.083  0.8787  0.5970 -0.3731
   13CHL1  H18A  916   0.874   5.684   9.177  0.9548 -2.3988  1.5534
   13CHL1  H18B  917   0.989   5.670   9.047  1.3915  0.1293  0.4252
   13CHL1  H18C  918   0.811   5.654   9.012  0.6043 -1.6272 -0.9387
   13CHL1   C12  919   0.753   5.420   9.134  0.1805  0.4032  0.8239
   13CHL1  H12A  920   0.678   5.446   9.055  0.4165  0.3106  0.5670
   13CHL1  H12B  921   0.755   5.309   9.137  2.2532  0.3462 -0.6810
   13CHL1   C11  922   0.703   5.472   9.269 -0.0877  0.3568  0.2966
   13CHL1  H11A  923   0.685   5.579   9.245 -0.1358  0.4622  0.8089
   13CHL1  H11B  924   0.607   5.422   9.290  0.1575 -0.6444 -0.8525
   13CHL1    C9  925   0.802   5.442   9.381  0.3195  0.2984  0.3273
   13CHL1    H9  926   0.815   5.332   9.388  0.6037  0.3715  1.0722
   13CHL1   C10  927   0.747   5.494   9.516  0.4068 -0.7932 -0.1145
   13CHL1   C19  928   0.709   5.640   9.494 -0.1054 -0.4826 -0.2681
   13CHL1  H19A  929   0.711   5.693   9.592 -3.3096 -0.6394 -0.0130
   13CHL1  H19B  930   0.788   5.684   9.430  0.1767 -1.3350 -0.5173
   13CHL1  H19C  931   0.612   5.648   9.441 -1.2324  0.8399  1.8243
   13CHL1    C1  932   0.615   5.425   9.549 -0.4141  0.0761 -0.2886
   13CHL1   H1A  933   0.528   5.432   9.481 -1.0470 -4.6352 -0.3409
   13CHL1   H1B  934   0.634   5.315   9.555 -0.6730  0.0704  0.6593
   13CHL1    C2  935   0.562   5.470   9.687 -0.2234  0.1255 -0.3595
   13CHL1   H2A  936   0.473   5.405   9.706 -0.4571  0.2729 -0.9245
   13CHL1   H2B  937   0.528   5.575   9.683  0.3198  0.3022 -0.3246
   13CHL1   C20  938   0.928   5.452   8.840 -0.6381  0.0521  0.4141
   13CHL1   H20  939   0.925   5.561   8.820 -0.1406 -0.1209 -0.7070
   13CHL1   C21  940   0.787   5.392   8.809 -0.2585  0.0964 -0.3344
   13CHL1  H21A  941   0.703   5.462   8.830  0.2910  1.1963 -1.7170
   13CHL1  H21B  942   0.766   5.296   8.862  1.8687 -0.0384  0.3550
   13CHL1  H21C  943   0.787   5.369   8.701 -0.7681  1.9060 -0.7473
   13CHL1   C22  944   1.028   5.400   8.739  0.1354 -0.2357  0.1490
   13CHL1  H22A  945   1.128   5.439   8.766  0.5533 -0.1796 -1.3982
   13CHL1  H22B  946   1.033   5.289   8.740 -1.9017 -0.3628  0.1443
   13CHL1   C23  947   1.006   5.441   8.588  0.2604 -0.5620  0.2660
   13CHL1  H23A  948   0.924   5.382   8.542  0.9112 -0.1253 -1.5672
   13CHL1  H23B  949   0.975   5.548   8.592  2.1207 -0.0055  3.2150
   13CHL1   C24  950   1.132   5.427   8.501 -0.6477 -0.0394  0.1370
   13CHL1  H24A  951   1.208   5.497   8.542 -0.9922  1.4954 -1.6864
   13CHL1  H24B  952   1.170   5.323   8.515  0.0450  0.3684  1.4588
   13CHL1   C25  953   1.125   5.446   8.352  0.5684  0.0377 -0.5562
   13CHL1   H25  954   1.039   5.388   8.312 -0.6639  1.6986 -0.4527
   13CHL1   C26  955   1.090   5.586   8.309  0.5977  0.2126 -0.2086
   13CHL1  H26A  956   1.172   5.658   8.330 -0.4798  0.9147  1.8533
   13CHL1  H26B  957   1.071   5.592   8.199  1.4116  0.3533 -0.3476
   13CHL1  H26C  958   0.998   5.615   8.364  1.5751  0.0165  1.6144
   13CHL1   C27  959   1.252   5.395   8.279 -0.0432  0.0946  0.1971
   13CHL1  H27A  960   1.332   5.468   8.304 -0.0671  0.1055  0.2421
   13CHL1  H27B  961   1.290   5.292   8.299  1.4556  0.6272  0.2210
   13CHL1  H27C  962   1.231   5.402   8.171  1.0824  0.6471  0.0023
   14CHL1    C3  963   6.697   2.531  10.308 -0.1069 -0.8091  0.9854
   14CHL1    H3  964   6.807   2.512  10.305 -0.0933 -0.6666 -1.0397
   14CHL1    O3  965   6.645   2.487  10.433  0.1536  0.5807  0.0857
   14CHL1   H3'  966   6.552   2.512  10.439  0.4443  1.3450  3.7833
   14CHL1    C4  967   6.664   2.679  10.301  1.0643  0.9228 -0.2021
   14CHL1   H4A  968   6.553   2.687  10.308  0.7060  0.5494 -3.7155
   14CHL1   H4B  969   6.712   2.734  10.384 -0.8197  0.8352  1.0255
   14CHL1    C5  970   6.691   2.741  10.164 -0.5456 -0.5281 -0.2196
   14CHL1    C6  971   6.763   2.857  10.162 -0.2415  0.6346 -0.0736
   14CHL1    H6  972   6.802   2.899  10.256 -0.2132 -0.6792  0.5124
   14CHL1    C7  973   6.796   2.926  10.030 -0.3501  0.8349  0.0127
   14CHL1   H7A  974   6.769   3.032  10.046 -0.5862  0.6549  0.8429
   14CHL1   H7B  975   6.904   2.924  10.007 -0.7773  0.2843 -2.1658
   14CHL1    C8  976   6.713   2.869   9.910 -0.8191  0.0572  0.3795
   14CHL1    H8  977   6.612   2.914   9.916 -0.7235  0.2053  0.9536
   14CHL1   C14  978   6.764   2.920   9.773  0.0932  0.0271 -0.3486
   14CHL1   H14  979   6.866   2.879   9.757 -0.7691 -1.9109 -1.2594
   14CHL1   C15  980   6.780   3.070   9.754  0.3396  0.0181 -0.1375
   14CHL1  H15A  981   6.688   3.124   9.784 -0.8348 -1.1631 -1.5017
   14CHL1  H15B  982   6.870   3.115   9.804 -0.3118 -1.4392  2.5618
   14CHL1   C16  983   6.800   3.077   9.607 -0.1422 -0.0356 -0.4272
   14CHL1  H16A  984   6.741   3.161   9.566  0.3931  1.0071  0.8491
   14CHL1  H16B  985   6.910   3.080   9.591  0.1974 -1.1827  1.2930
   14CHL1   C17  986   6.757   2.935   9.536 -0.5793 -0.5032 -0.8933
   14CHL1   H17  987   6.855   2.885   9.522  0.2246  0.3067  1.4135
   14CHL1   C13  988   6.685   2.863   9.649 -0.0798 -0.3800 -0.4794
   14CHL1   C18  989   6.541   2.915   9.661  0.6742  0.3499  0.0452
   14CHL1  H18A  990   6.474   2.849   9.602  0.9445 -0.2313  0.3841
   14CHL1  H18B  991   6.502   2.926   9.764 -1.0903 -0.1749 -0.5379
   14CHL1  H18C  992   6.537   3.021   9.626 -1.6214  0.5300  0.7304
   14CHL1   C12  993   6.688   2.711   9.667 -0.2556 -0.5228  1.2354
   14CHL1  H12A  994   6.645   2.656   9.580  0.4042  1.6903 -0.5893
   14CHL1  H12B  995   6.794   2.678   9.678 -0.6782 -2.8708 -0.7513
   14CHL1   C11  996   6.621   2.666   9.794  0.1097 -0.5747 -0.2294
   14CHL1  H11A  997   6.514   2.690   9.783  0.5428  0.4547 -2.7013
   14CHL1  H11B  998   6.626   2.555   9.798 -2.0952 -0.6767  1.1900
   14CHL1    C9  999   6.702   2.717   9.919  0.1449 -0.1723  0.1557
   14CHL1    H9 1000   6.805   2.679   9.903 -0.2507 -0.6310 -1.5527
   14CHL1   C10 1001   6.636   2.667  10.043 -0.0354  0.2695 -0.1231
   14CHL1   C19 1002   6.487   2.697  10.034  0.1099  0.2356 -0.0031
   14CHL1  H19A 1003   6.429   2.645   9.956  0.5413  0.4885 -0.5024
   14CHL1  H19B 1004   6.433   2.680  10.130  2.0057  3.5704  1.8398
   14CHL1  H19C 1005   6.460   2.804  10.024 -1.8435 -0.2606 -0.3445
   14CHL1    C1 1006   6.651   2.514  10.062 -0.0787 -0.0857  0.3110
   14CHL1   H1A 1007   6.594   2.468   9.978 -0.0230  0.5780 -0.0977
   14CHL1   H1B 1008   6.758   2.487  10.045 -0.3294  0.0673 -1.7593
   14CHL1    C2 1009   6.617   2.459  10.201 -0.6223 -0.5084  0.4590
   14CHL1   H2A 1010   6.641   2.352  10.188 -0.9817 -0.5230 -0.1483
   14CHL1   H2B 1011   6.507   2.465  10.216 -1.0061 -1.8942 -1.4428
   14CHL1   C20 1012   6.697   2.958   9.399  0.1598 -0.5716 -0.3593
   14CHL1   H20 1013   6.597   3.006   9.407  0.8263  0.8312 -0.0526
   14CHL1   C21 1014   6.664   2.828   9.341 -0.7154 -0.2506 -0.1063
   14CHL1  H21A 1015   6.591   2.775   9.405  0.0073  1.2150  2.0391
   14CHL1  H21B 1016   6.754   2.763   9.335  0.3820  0.9872  2.0496
   14CHL1  H21C 1017   6.619   2.827   9.239 -0.6983  1.3039 -0.1408
   14CHL1   C22 1018   6.788   3.039   9.302 -0.0506  0.4860  0.3753
   14CHL1  H22A 1019   6.851   3.111   9.360 -0.6836  1.6179 -0.3072
   14CHL1  H22B 1020   6.849   2.973   9.237  1.2249 -1.2510  3.1114
   14CHL1   C23 1021   6.698   3.122   9.203 -0.9648 -0.2174  0.2010
   14CHL1  H23A 1022   6.621   3.051   9.167 -2.6803  0.9964  1.3478
   14CHL1  H23B 1023   6.659   3.211   9.257  2.1287  0.5688  1.3796
   14CHL1   C24 1024   6.798   3.155   9.084 -0.2844  0.4747 -0.2559
   14CHL1  H24A 1025   6.873   3.221   9.133 -0.8139  0.1711  1.0034
   14CHL1  H24B 1026   6.845   3.057   9.065  3.5551  1.6964  1.8219
   14CHL1   C25 1027   6.738   3.225   8.961 -0.5612  0.1565  0.2281
   14CHL1   H25 1028   6.705   3.326   8.993  0.8326  0.5863  0.3889
   14CHL1   C26 1029   6.845   3.247   8.859  0.0295  0.1510  0.8813
   14CHL1  H26A 1030   6.880   3.151   8.817 -0.4982  0.2492  0.2079
   14CHL1  H26B 1031   6.795   3.300   8.776 -0.0624 -0.8810  0.2604
   14CHL1  H26C 1032   6.925   3.301   8.915  1.6313  0.0906 -1.2233
   14CHL1   C27 1033   6.622   3.144   8.905 -0.4321  0.2077  0.4097
   14CHL1  H27A 1034   6.552   3.116   8.986 -1.8326 -0.2646 -0.8961
   14CHL1  H27B 1035   6.559   3.208   8.839  0.4191  0.4242 -0.2096
   14CHL1  H27C 1036   6.656   3.058   8.843 -1.8011  0.7042 -1.1075
   15CHL1    C3 1037   3.457   1.974   9.916 -0.2752 -0.9805 -0.6059
   15CHL1    H3 1038   3.529   2.057   9.898  2.4785 -3.4815 -1.8750
   15CHL1    O3 1039   3.481   1.941  10.047  0.0784  0.1174 -0.4286
   15CHL1   H3' 1040   3.443   1.853  10.055  0.4478  0.0458  0.7205
   15CHL1    C4 1041   3.314   2.021   9.903 -0.3425 -0.1161  0.2950
   15CHL1   H4A 1042   3.253   1.942   9.952  1.2526 -0.6701  1.5041
   15CHL1   H4B 1043   3.319   2.110   9.970  0.0802 -0.6012  0.9207
   15CHL1    C5 1044   3.278   2.059   9.761  0.0483  0.4246  0.2209
   15CHL1    C6 1045   3.233   2.180   9.721  0.2215  0.0280 -0.1691
   15CHL1    H6 1046   3.208   2.259   9.793 -2.1692  0.0739 -0.9536
   15CHL1    C7 1047   3.193   2.205   9.578 -0.2233 -0.9148  0.2493
   15CHL1   H7A 1048   3.104   2.271   9.572  0.5634  0.0783 -0.8482
   15CHL1   H7B 1049   3.274   2.263   9.530 -1.2624  0.9084  0.6359
   15CHL1    C8 1050   3.167   2.073   9.497  0.0691 -0.7009  0.6209
   15CHL1    H8 1051   3.085   2.021   9.551 -0.2058 -0.2597  0.6312
   15CHL1   C14 1052   3.137   2.104   9.351  0.8849  0.3099  0.7572
   15CHL1   H14 1053   3.221   2.158   9.304 -0.0150 -1.9114 -4.0037
   15CHL1   C15 1054   3.025   2.205   9.304  0.2765 -0.1308  0.1458
   15CHL1  H15A 1055   2.931   2.170   9.351 -1.3266 -1.3230 -3.5813
   15CHL1  H15B 1056   3.054   2.311   9.316  2.6712 -0.5323 -1.4672
   15CHL1   C16 1057   3.014   2.177   9.156 -0.0717 -0.0326 -0.2992
   15CHL1  H16A 1058   2.911   2.153   9.123 -0.9528 -0.2962  2.4153
   15CHL1  H16B 1059   3.054   2.262   9.097 -1.8015  2.3164  1.7242
   15CHL1   C17 1060   3.099   2.048   9.124 -0.1244  0.0117 -0.3897
   15CHL1   H17 1061   3.197   2.082   9.085 -0.8672  1.5198 -1.0074
   15CHL1   C13 1062   3.119   1.980   9.261 -0.4218 -0.0050 -0.2397
   15CHL1   C18 1063   2.992   1.912   9.313 -0.1570  0.4946 -0.0340
   15CHL1  H18A 1064   3.004   1.877   9.417 -2.8892  2.0242  0.8757
   15CHL1  H18B 1065   2.908   1.984   9.321  1.8984  2.8758  2.0518
   15CHL1  H18C 1066   2.962   1.817   9.265 -2.6743  0.7980  0.8138
   15CHL1   C12 1067   3.240   1.892   9.279  0.0625 -0.4686  0.0191
   15CHL1  H12A 1068   3.231   1.795   9.226 -1.1997  0.6354 -1.9010
   15CHL1  H12B 1069   3.327   1.950   9.239 -0.8006 -0.1399 -1.4301
   15CHL1   C11 1070   3.271   1.857   9.419 -0.1861 -0.4970 -0.0489
   15CHL1  H11A 1071   3.191   1.786   9.451 -0.3923  0.5497  1.8453
   15CHL1  H11B 1072   3.375   1.818   9.424  0.2552  0.4332 -1.3149
   15CHL1    C9 1073   3.283   1.981   9.517  0.2318  0.2845  0.2479
   15CHL1    H9 1074   3.368   2.042   9.477 -0.9219  1.0813 -1.0789
   15CHL1   C10 1075   3.306   1.939   9.666 -0.5470 -0.1167  0.4809
   15CHL1   C19 1076   3.216   1.821   9.699 -0.3048  0.2115 -0.0102
   15CHL1  H19A 1077   3.221   1.797   9.807 -2.1639  2.8292  0.7518
   15CHL1  H19B 1078   3.111   1.846   9.674  0.5354  1.1530 -3.1123
   15CHL1  H19C 1079   3.252   1.730   9.646 -0.5148 -1.0009  1.8324
   15CHL1    C1 1080   3.452   1.896   9.679  0.2812  0.1542 -0.2675
   15CHL1   H1A 1081   3.484   1.822   9.603 -0.2746  2.3335 -2.7426
   15CHL1   H1B 1082   3.512   1.984   9.650 -1.9510  3.1694  3.2160
   15CHL1    C2 1083   3.495   1.856   9.818 -0.5072  0.2394 -0.2359
   15CHL1   H2A 1084   3.605   1.839   9.816 -0.4096  0.8604 -0.4396
   15CHL1   H2B 1085   3.445   1.762   9.848  2.2380 -1.7079 -1.3688
   15CHL1   C20 1086   3.040   1.960   9.011  0.4863  0.0685  0.4972
   15CHL1   H20 1087   2.933   1.940   9.030  0.9381 -4.9832 -0.8672
   15CHL1   C21 1088   3.107   1.823   8.989  0.4530 -0.2411 -0.1716
   15CHL1  H21A 1089   3.061   1.766   8.906  1.4154  0.4006 -1.1760
   15CHL1  H21B 1090   3.108   1.754   9.076 -1.2893 -2.2821 -1.6533
   15CHL1  H21C 1091   3.217   1.836   8.974  1.3114 -1.8308  3.5020
   15CHL1   C22 1092   3.045   2.042   8.875  0.0801 -0.1112  0.1701
   15CHL1  H22A 1093   3.044   2.152   8.893 -0.6239 -0.3862  2.0096
   15CHL1  H22B 1094   3.149   2.026   8.839  0.7261  1.6251  1.1084
   15CHL1   C23 1095   2.926   2.007   8.780  0.5241  0.2047  0.3247
   15CHL1  H23A 1096   2.939   1.901   8.750  0.7785 -0.6057  3.0211
   15CHL1  H23B 1097   2.836   2.002   8.846  1.1030 -2.7841  1.0536
   15CHL1   C24 1098   2.919   2.087   8.649  0.5283 -0.7750 -0.7248
   15CHL1  H24A 1099   2.905   2.193   8.678 -0.6034 -1.2500  0.6160
   15CHL1  H24B 1100   3.019   2.071   8.602  0.8230  0.7822 -0.6670
   15CHL1   C25 1101   2.806   2.041   8.560 -0.2727 -0.5899 -0.0594
   15CHL1   H25 1102   2.709   2.053   8.613 -0.6621  0.3411 -0.9343
   15CHL1   C26 1103   2.789   2.139   8.446 -0.3867 -0.0334 -0.0185
   15CHL1  H26A 1104   2.761   2.243   8.472 -1.0889  0.1190 -1.2844
   15CHL1  H26B 1105   2.886   2.160   8.395 -0.7907  2.6189  0.1805
   15CHL1  H26C 1106   2.710   2.097   8.380  0.6216  0.6681 -1.7457
   15CHL1   C27 1107   2.833   1.899   8.506 -0.4061 -0.1393  1.2269
   15CHL1  H27A 1108   2.791   1.875   8.406  0.1076 -0.6857  1.1307
   15CHL1  H27B 1109   2.944   1.893   8.493 -0.4123  1.0650  0.4413
   15CHL1  H27C 1110   2.805   1.822   8.581 -1.7024  0.3160  1.2255
   16CHL1    C3 1111   2.109   2.328  10.134 -0.0899  0.3272 -0.8931
   16CHL1    H3 1112   2.013   2.381  10.118  1.2642  2.3868 -2.6147
   16CHL1    O3 1113   2.147   2.336  10.272 -0.2298  0.5924  0.3922
   16CHL1   H3' 1114   2.231   2.290  10.276 -0.7102 -0.2696  0.8118
   16CHL1    C4 1115   2.106   2.179  10.087 -0.1759 -0.1846 -0.6631
   16CHL1   H4A 1116   2.205   2.133  10.107 -1.1122 -1.8511  0.3294
   16CHL1   H4B 1117   2.030   2.123  10.145  3.2563 -1.3130  3.2161
   16CHL1    C5 1118   2.078   2.170   9.937 -0.0208 -0.6549 -0.0389
   16CHL1    C6 1119   1.974   2.103   9.898  0.6984 -0.6808 -0.1023
   16CHL1    H6 1120   1.903   2.066   9.973  1.7464 -0.8942  0.8043
   16CHL1    C7 1121   1.940   2.083   9.753 -0.2664  0.3082 -0.3453
   16CHL1   H7A 1122   1.922   1.976   9.729  0.6986 -0.0371  0.3591
   16CHL1   H7B 1123   1.846   2.138   9.735 -1.0518 -1.0992 -0.7301
   16CHL1    C8 1124   2.047   2.132   9.657 -0.2880 -0.3720 -0.3794
   16CHL1    H8 1125   2.121   2.050   9.645  0.3805  0.1757 -0.0833
   16CHL1   C14 1126   1.979   2.175   9.525 -0.1212  0.4929 -0.5171
   16CHL1   H14 1127   1.929   2.272   9.546 -0.7323  0.1862 -0.5442
   16CHL1   C15 1128   1.882   2.072   9.466 -0.0441 -0.2126  0.3193
   16CHL1  H15A 1129   1.915   1.966   9.474  0.6133 -0.2001 -1.7274
   16CHL1  H15B 1130   1.790   2.089   9.525  0.8114 -0.6748  1.8513
   16CHL1   C16 1131   1.868   2.102   9.313  0.0508 -0.2023  0.1114
   16CHL1  H16A 1132   1.886   2.017   9.244 -1.1348  0.0181 -0.5042
   16CHL1  H16B 1133   1.766   2.137   9.284  0.1476 -1.0837 -1.4001
   16CHL1   C17 1134   1.963   2.222   9.294  0.2726 -0.5081  0.0925
   16CHL1   H17 1135   1.914   2.315   9.331 -1.0658 -1.8626  1.8657
   16CHL1   C13 1136   2.063   2.215   9.409 -0.1063  0.3780  0.1533
   16CHL1   C18 1137   2.161   2.102   9.380 -0.5987 -0.0296  0.2389
   16CHL1  H18A 1138   2.227   2.144   9.301 -2.9367  4.3178  0.2639
   16CHL1  H18B 1139   2.227   2.075   9.465 -1.9042 -0.0592  1.2797
   16CHL1  H18C 1140   2.125   2.007   9.336 -1.2010  1.1260 -1.9199
   16CHL1   C12 1141   2.145   2.342   9.455  0.6372  0.4461  0.2100
   16CHL1  H12A 1142   2.225   2.394   9.400  0.6051  1.8537  1.4402
   16CHL1  H12B 1143   2.068   2.417   9.482  1.3407  0.9793  0.7586
   16CHL1   C11 1144   2.216   2.306   9.590  0.0926  0.1277  0.6329
   16CHL1  H11A 1145   2.289   2.226   9.565 -0.8026 -0.5006 -0.0615
   16CHL1  H11B 1146   2.291   2.383   9.616 -0.5120  0.3475  1.8038
   16CHL1    C9 1147   2.128   2.257   9.701  0.0237  0.3873  0.0816
   16CHL1    H9 1148   2.058   2.343   9.714 -1.0331 -0.5512  0.8000
   16CHL1   C10 1149   2.184   2.251   9.850  0.9130 -0.5259  0.3775
   16CHL1   C19 1150   2.323   2.192   9.835 -0.2580 -0.3035 -0.3839
   16CHL1  H19A 1151   2.389   2.268   9.788 -2.0084  0.1330 -2.2908
   16CHL1  H19B 1152   2.378   2.175   9.930  2.1688 -0.1211 -1.6888
   16CHL1  H19C 1153   2.315   2.101   9.771 -1.1640  0.9911 -2.1887
   16CHL1    C1 1154   2.201   2.394   9.908 -0.0175  0.0402  0.0630
   16CHL1   H1A 1155   2.285   2.437   9.850 -0.3801 -3.1886 -3.2894
   16CHL1   H1B 1156   2.109   2.452   9.884 -1.9623 -3.2015 -0.9739
   16CHL1    C2 1157   2.226   2.394  10.055  0.3681  0.8144  0.1204
   16CHL1   H2A 1158   2.256   2.491  10.100 -0.6488  1.3455 -0.3035
   16CHL1   H2B 1159   2.320   2.335  10.055 -0.8705 -1.3364 -1.7963
   16CHL1   C20 1160   2.009   2.249   9.143  0.6429 -0.6308  0.1435
   16CHL1   H20 1161   2.044   2.154   9.097 -3.0311 -1.1838 -1.9203
   16CHL1   C21 1162   2.115   2.359   9.138 -0.4565 -0.8063 -0.0108
   16CHL1  H21A 1163   2.200   2.345   9.208  0.3447  2.1457 -0.2519
   16CHL1  H21B 1164   2.066   2.451   9.177 -1.3659 -0.7809 -1.1693
   16CHL1  H21C 1165   2.147   2.378   9.034  0.4369 -1.4558  0.1332
   16CHL1   C22 1166   1.892   2.289   9.053 -0.0330 -0.2147  0.0284
   16CHL1  H22A 1167   1.822   2.203   9.048 -1.9516  1.1828  1.4093
   16CHL1  H22B 1168   1.845   2.378   9.099  0.6576  1.0090 -1.5097
   16CHL1   C23 1169   1.926   2.324   8.911  0.1823  0.5816 -0.8929
   16CHL1  H23A 1170   1.949   2.432   8.925 -1.6823  1.0027 -0.8113
   16CHL1  H23B 1171   2.017   2.269   8.879 -1.2287 -3.9117  1.7706
   16CHL1   C24 1172   1.812   2.300   8.811 -0.6221  0.7963  0.0466
   16CHL1  H24A 1173   1.753   2.212   8.845 -1.0038  0.6608 -0.9281
   16CHL1  H24B 1174   1.746   2.389   8.803 -0.2461  1.1940  1.1881
   16CHL1   C25 1175   1.861   2.257   8.669  0.7126  0.0850 -0.0560
   16CHL1   H25 1176   1.926   2.169   8.687 -1.7143 -1.6631  0.8124
   16CHL1   C26 1177   1.735   2.219   8.585  0.1490  0.0689  0.2922
   16CHL1  H26A 1178   1.678   2.315   8.582  2.4636  1.5452  0.8117
   16CHL1  H26B 1179   1.758   2.184   8.483  0.3194 -0.5453  0.5374
   16CHL1  H26C 1180   1.665   2.146   8.632 -0.7620  1.1532  0.6729
   16CHL1   C27 1181   1.922   2.372   8.596 -0.3760 -0.0895 -0.1990
   16CHL1  H27A 1182   1.841   2.446   8.575 -0.7124 -0.2827  0.3703
   16CHL1  H27B 1183   2.010   2.416   8.647  1.0185 -0.8008 -1.9015
   16CHL1  H27C 1184   1.964   2.338   8.499  1.0618  0.8461  0.0673
   17CHL1    C3 1185   5.600   6.080  10.234  0.0912 -0.0675  0.0311
   17CHL1    H3 1186   5.666   6.169  10.229 -0.5189  0.4609  1.1581
   17CHL1    O3 1187   5.559   6.077  10.370 -0.2483  0.0920 -0.3000
   17CHL1   H3' 1188   5.465   6.094  10.367 -0.7291 -2.1831  0.2594
   17CHL1    C4 1189   5.483   6.118  10.146  0.1313  0.6299 -0.8119
   17CHL1   H4A 1190   5.412   6.034  10.162  0.2887  0.9822  2.2798
   17CHL1   H4B 1191   5.436   6.208  10.191  1.7309  0.6908  0.8993
   17CHL1    C5 1192   5.518   6.132   9.999 -0.3715  0.8470  0.1592
   17CHL1    C6 1193   5.491   6.244   9.924 -0.1865 -0.5997  0.2794
   17CHL1    H6 1194   5.428   6.326   9.961 -0.8865 -0.5409 -0.9765
   17CHL1    C7 1195   5.531   6.260   9.781 -1.1892 -0.5279  0.1172
   17CHL1   H7A 1196   5.443   6.300   9.725 -1.7222  1.8851  2.4898
   17CHL1   H7B 1197   5.622   6.322   9.770 -0.9441 -0.5930  1.5687
   17CHL1    C8 1198   5.577   6.122   9.722  0.4994  0.0565  0.2924
   17CHL1    H8 1199   5.484   6.064   9.704 -0.4969  1.9636 -1.0637
   17CHL1   C14 1200   5.642   6.146   9.586  0.2433 -0.5406 -0.3531
   17CHL1   H14 1201   5.729   6.211   9.611 -0.1962 -0.9563  2.5790
   17CHL1   C15 1202   5.561   6.223   9.475  0.1592 -0.2846  0.0616
   17CHL1  H15A 1203   5.460   6.180   9.459  0.3392  0.0403 -2.3410
   17CHL1  H15B 1204   5.557   6.332   9.495 -1.9638 -0.2129 -0.5606
   17CHL1   C16 1205   5.640   6.197   9.340 -0.1199  0.3387  0.4323
   17CHL1  H16A 1206   5.571   6.163   9.261 -0.5302 -1.7699  1.6365
   17CHL1  H16B 1207   5.686   6.289   9.295 -1.0989  0.7980  0.3476
   17CHL1   C17 1208   5.739   6.078   9.379 -0.1564  0.4262  0.3719
   17CHL1   H17 1209   5.843   6.112   9.400  0.7896 -2.7695  1.4888
   17CHL1   C13 1210   5.690   6.020   9.518  0.4711  0.4841  0.1508
   17CHL1   C18 1211   5.571   5.913   9.497 -0.0948 -0.2393 -0.7562
   17CHL1  H18A 1212   5.533   5.870   9.592 -0.6810  2.1715  0.1882
   17CHL1  H18B 1213   5.494   5.963   9.435 -0.9427 -0.5379  0.0403
   17CHL1  H18C 1214   5.604   5.824   9.440 -0.1692 -0.4523 -0.4703
   17CHL1   C12 1215   5.792   5.958   9.608 -0.5006  0.5210  0.1148
   17CHL1  H12A 1216   5.839   5.868   9.562  0.4547  1.1931 -0.2519
   17CHL1  H12B 1217   5.867   6.039   9.613 -1.9848  2.0280 -0.8239
   17CHL1   C11 1218   5.734   5.920   9.748 -1.0610  0.2033  0.7878
   17CHL1  H11A 1219   5.667   5.831   9.742  1.3404 -1.7111  0.6834
   17CHL1  H11B 1220   5.822   5.884   9.804 -0.8031  0.9595  0.8712
   17CHL1    C9 1221   5.668   6.046   9.818 -0.2858 -0.4621  0.2915
   17CHL1    H9 1222   5.752   6.112   9.846 -0.4646  0.3380 -0.9748
   17CHL1   C10 1223   5.605   6.012   9.948  0.1940  0.4377 -0.0693
   17CHL1   C19 1224   5.497   5.897   9.929 -0.1451 -0.0503  0.2718
   17CHL1  H19A 1225   5.431   5.887  10.018 -1.3364 -2.2229 -0.7714
   17CHL1  H19B 1226   5.437   5.906   9.835  1.8164  2.4480 -0.8636
   17CHL1  H19C 1227   5.547   5.798   9.924 -2.7280 -1.5080  1.3337
   17CHL1    C1 1228   5.717   5.963  10.042  0.5554  0.1875  0.0104
   17CHL1   H1A 1229   5.749   5.861  10.014 -1.0533 -0.0218 -1.2386
   17CHL1   H1B 1230   5.802   6.033  10.055 -0.8453  1.6219  2.1856
   17CHL1    C2 1231   5.662   5.950  10.185  0.4225 -0.0802 -0.6999
   17CHL1   H2A 1232   5.739   5.911  10.255  0.0606 -0.8331 -0.7128
   17CHL1   H2B 1233   5.587   5.869  10.195  2.5479 -1.9984  0.7588
   17CHL1   C20 1234   5.750   5.983   9.256  0.7501 -0.6148 -0.1506
   17CHL1   H20 1235   5.649   5.939   9.243  0.7289 -0.0875 -1.9964
   17CHL1   C21 1236   5.840   5.864   9.286 -0.0070 -0.4995 -0.4402
   17CHL1  H21A 1237   5.851   5.796   9.199 -0.4622 -0.5179 -0.4833
   17CHL1  H21B 1238   5.806   5.797   9.369  0.4149  0.7434  0.7761
   17CHL1  H21C 1239   5.948   5.890   9.295  0.6325 -2.7652 -0.7480
   17CHL1   C22 1240   5.795   6.055   9.133  0.8506  0.1227  0.6420
   17CHL1  H22A 1241   5.736   6.147   9.112  0.3557 -0.8100 -2.5269
   17CHL1  H22B 1242   5.898   6.093   9.152  1.2195 -0.4184 -0.2162
   17CHL1   C23 1243   5.811   5.970   9.008 -0.5460  0.4013 -0.1048
   17CHL1  H23A 1244   5.897   5.899   9.015 -0.3591  0.6036 -0.3267
   17CHL1  H23B 1245   5.717   5.913   8.993 -0.8976  0.8210  0.4831
   17CHL1   C24 1246   5.841   6.060   8.892  0.3203  0.0399 -0.0502
   17CHL1  H24A 1247   5.748   6.119   8.874 -0.6642 -0.8929  1.7406
   17CHL1  H24B 1248   5.920   6.135   8.914 -0.6381  1.2551 -0.6186
   17CHL1   C25 1249   5.886   5.991   8.749 -0.0803  0.4533 -0.6336
   17CHL1   H25 1250   5.877   6.073   8.674  1.2345  1.2847  0.0805
   17CHL1   C26 1251   6.036   5.954   8.748 -0.3136 -0.0258  0.2955
   17CHL1  H26A 1252   6.057   5.866   8.812  0.3655  0.2547  0.4648
   17CHL1  H26B 1253   6.077   5.947   8.645 -2.1147  1.4791 -0.5928
   17CHL1  H26C 1254   6.080   6.040   8.803  0.0186 -0.1746  0.2634
   17CHL1   C27 1255   5.808   5.858   8.714  0.3180 -0.3862 -0.0079
   17CHL1  H27A 1256   5.703   5.892   8.717  1.0266  2.0521 -0.1808
   17CHL1  H27B 1257   5.832   5.823   8.611 -1.1906 -0.0681 -0.4943
   17CHL1  H27C 1258   5.807   5.779   8.792  0.4564 -0.4060 -0.0249
   18CHL1    C3 1259   3.224   6.008  10.009 -1.1738  0.0225 -0.6033
   18CHL1    H3 1260   3.122   5.975   9.979 -0.9945 -0.2364 -0.9378
   18CHL1    O3 1261   3.230   6.003  10.150 -0.0130  0.3570 -0.5848
   18CHL1   H3' 1262   3.321   6.021  10.172 -0.2393  1.6395 -0.6078
   18CHL1    C4 1263   3.325   5.906   9.962  0.2866  0.8266 -0.1035
   18CHL1   H4A 1264   3.423   5.935  10.006  1.1539 -1.1795 -0.6058
   18CHL1   H4B 1265   3.301   5.805  10.001 -1.3789  1.0879 -0.3668
   18CHL1    C5 1266   3.327   5.903   9.809 -0.0357 -0.1485 -0.2646
   18CHL1    C6 1267   3.306   5.790   9.733  0.5745 -0.1373  0.2381
   18CHL1    H6 1268   3.291   5.698   9.791 -0.7990  0.8609  1.5366
   18CHL1    C7 1269   3.298   5.783   9.582 -0.1972  0.0009 -0.0602
   18CHL1   H7A 1270   3.350   5.695   9.539  0.4089  1.2923 -2.1163
   18CHL1   H7B 1271   3.194   5.779   9.544  0.2328  1.0582 -1.3971
   18CHL1    C8 1272   3.347   5.919   9.519  0.1002  0.0582 -0.4830
   18CHL1    H8 1273   3.458   5.919   9.519  0.2830  1.0304 -4.9442
   18CHL1   C14 1274   3.319   5.925   9.375 -0.4029 -0.3818  0.3242
   18CHL1   H14 1275   3.208   5.927   9.371 -0.4008  2.5156 -1.2938
   18CHL1   C15 1276   3.372   5.812   9.288  0.5019  0.2866 -0.4034
   18CHL1  H15A 1277   3.479   5.790   9.308  0.4340  0.6372  0.3504
   18CHL1  H15B 1278   3.320   5.716   9.307 -0.3414  0.8636  0.2226
   18CHL1   C16 1279   3.369   5.863   9.149  0.0083  0.1460  0.2760
   18CHL1  H16A 1280   3.466   5.850   9.097  0.5474  0.4711  1.1749
   18CHL1  H16B 1281   3.287   5.815   9.092  0.5570 -1.0405  0.4716
   18CHL1   C17 1282   3.313   6.007   9.164  0.8053 -0.3850  0.4555
   18CHL1   H17 1283   3.204   6.017   9.149  1.0352  1.6375 -0.2326
   18CHL1   C13 1284   3.357   6.052   9.307  0.1091  0.0117 -0.0954
   18CHL1   C18 1285   3.507   6.083   9.316 -0.7337  0.1930 -0.2078
   18CHL1  H18A 1286   3.543   6.109   9.417  0.6511 -0.6204 -0.4644
   18CHL1  H18B 1287   3.568   5.997   9.281  0.9554  0.5585  1.6688
   18CHL1  H18C 1288   3.533   6.176   9.261  3.0474 -0.9991 -0.6768
   18CHL1   C12 1289   3.269   6.164   9.371  0.1605  0.2490 -0.4140
   18CHL1  H12A 1290   3.283   6.259   9.315  0.3017  0.1080 -0.6213
   18CHL1  H12B 1291   3.163   6.132   9.365  0.3816 -0.3859 -1.1163
   18CHL1   C11 1292   3.310   6.187   9.520 -0.3416 -0.0351 -0.0078
   18CHL1  H11A 1293   3.410   6.235   9.533 -0.1189 -0.0285 -1.6281
   18CHL1  H11B 1294   3.235   6.254   9.567 -0.7897 -1.1803  0.9704
   18CHL1    C9 1295   3.302   6.045   9.600  0.6849 -0.1370 -0.2077
   18CHL1    H9 1296   3.192   6.030   9.606  0.7691 -0.5018  0.4911
   18CHL1   C10 1297   3.347   6.044   9.748  0.4990  0.0305  0.7302
   18CHL1   C19 1298   3.496   6.078   9.767  0.2750 -0.3812 -0.1586
   18CHL1  H19A 1299   3.524   6.180   9.732 -1.0145 -0.7280 -2.4080
   18CHL1  H19B 1300   3.536   6.053   9.868 -0.2093 -0.4542  0.0179
   18CHL1  H19C 1301   3.549   6.007   9.701 -1.7649 -0.1519 -2.1698
   18CHL1    C1 1302   3.262   6.150   9.818 -0.0974 -0.2055 -0.2148
   18CHL1   H1A 1303   3.308   6.247   9.791 -1.8012  0.6075 -0.3451
   18CHL1   H1B 1304   3.161   6.146   9.770 -0.4548 -4.5277  0.4752
   18CHL1    C2 1305   3.257   6.150   9.970 -0.1410  0.0984 -0.2323
   18CHL1   H2A 1306   3.191   6.232  10.005  0.5763  1.7689 -2.5270
   18CHL1   H2B 1307   3.360   6.178  10.001 -0.7319  2.4946 -0.2052
   18CHL1   C20 1308   3.365   6.096   9.043  0.2320  0.0081 -0.6334
   18CHL1   H20 1309   3.475   6.083   9.042  0.4991  1.9882 -0.7683
   18CHL1   C21 1310   3.329   6.248   9.057  0.5244  0.0061 -0.9038
   18CHL1  H21A 1311   3.344   6.305   8.962  0.2272 -2.0722 -2.2563
   18CHL1  H21B 1312   3.399   6.293   9.130  1.6663 -2.9974 -0.0098
   18CHL1  H21C 1313   3.228   6.276   9.095  1.3321  2.2788 -0.2681
   18CHL1   C22 1314   3.311   6.046   8.909  0.4888  0.4314 -0.1375
   18CHL1  H22A 1315   3.330   5.937   8.900  1.7910  0.2794  3.1342
   18CHL1  H22B 1316   3.201   6.060   8.907  0.5983  1.3497 -2.2064
   18CHL1   C23 1317   3.371   6.121   8.783 -0.5713  0.3819  0.4675
   18CHL1  H23A 1318   3.381   6.231   8.794  2.3949  0.2342 -0.0964
   18CHL1  H23B 1319   3.474   6.080   8.775 -0.3935  1.1208 -2.1351
   18CHL1   C24 1320   3.286   6.079   8.660  0.0656 -0.1649  0.3370
   18CHL1  H24A 1321   3.308   5.971   8.647  2.3495  0.2561  0.3474
   18CHL1  H24B 1322   3.182   6.099   8.695 -0.5117 -0.7524 -0.9770
   18CHL1   C25 1323   3.313   6.142   8.525 -0.2626 -0.5216 -0.7474
   18CHL1   H25 1324   3.424   6.139   8.526 -0.2521 -0.3699  0.5076
   18CHL1   C26 1325   3.258   6.068   8.403 -0.4894  0.5087 -0.5185
   18CHL1  H26A 1326   3.163   6.101   8.356 -0.9838 -0.1970 -0.0264
   18CHL1  H26B 1327   3.335   6.074   8.323 -0.2049 -0.6275 -0.3563
   18CHL1  H26C 1328   3.253   5.959   8.425  2.6171  0.7037  1.8196
   18CHL1   C27 1329   3.269   6.289   8.526  0.2151 -0.1602  0.9013
   18CHL1  H27A 1330   3.245   6.315   8.631 -0.1164 -2.8780  1.5681
   18CHL1  H27B 1331   3.355   6.348   8.487  0.0649 -0.4812  0.0521
   18CHL1  H27C 1332   3.191   6.293   8.447  1.9352 -2.7784 -1.1247
   19CHL1    C3 1333   1.519   1.329  10.164  0.5446  0.2875 -0.0447
   19CHL1    H3 1334   1.612   1.385  10.142  1.3566 -0.2740  1.7763
   19CHL1    O3 1335   1.490   1.339  10.301  0.4717  0.5933 -0.5955
   19CHL1   H3' 1336   1.406   1.297  10.320  0.5612  0.9648  0.7209
   19CHL1    C4 1337   1.392   1.374  10.082 -0.3683 -0.5740 -0.0106
   19CHL1   H4A 1338   1.299   1.324  10.119  0.0526 -2.5141 -1.3987
   19CHL1   H4B 1339   1.374   1.479  10.113  1.5955 -0.7715  1.9944
   19CHL1    C5 1340   1.413   1.350   9.934  0.0544  0.5501 -0.1748
   19CHL1    C6 1341   1.414   1.449   9.842  0.5858  0.5615 -0.6657
   19CHL1    H6 1342   1.406   1.556   9.868  2.5902  0.9277 -1.4327
   19CHL1    C7 1343   1.418   1.419   9.688  0.3904  0.1455  0.4121
   19CHL1   H7A 1344   1.360   1.488   9.623  1.3840 -0.4453 -1.1633
   19CHL1   H7B 1345   1.518   1.454   9.653  0.3327  0.0128  0.1158
   19CHL1    C8 1346   1.400   1.276   9.651  0.3088 -0.8101 -0.5637
   19CHL1    H8 1347   1.290   1.262   9.665 -0.1512  2.3770 -0.1596
   19CHL1   C14 1348   1.435   1.253   9.508  0.0151  0.2169  0.1096
   19CHL1   H14 1349   1.546   1.257   9.501  0.2386 -2.7205  0.7954
   19CHL1   C15 1350   1.384   1.344   9.396 -0.1516  0.6510 -1.1832
   19CHL1  H15A 1351   1.273   1.352   9.393 -0.1514  0.5264 -3.3071
   19CHL1  H15B 1352   1.437   1.442   9.394 -0.4730  0.8588 -0.0451
   19CHL1   C16 1353   1.410   1.263   9.265  0.7538 -0.1778 -1.1302
   19CHL1  H16A 1354   1.317   1.249   9.206 -0.0529 -1.8554  0.4465
   19CHL1  H16B 1355   1.487   1.317   9.207  0.5462  0.3022 -0.9677
   19CHL1   C17 1356   1.460   1.119   9.312  0.3605 -1.0156  0.5059
   19CHL1   H17 1357   1.570   1.126   9.306  0.1931  0.6715 -2.8712
   19CHL1   C13 1358   1.416   1.106   9.463 -0.9275  0.5195  0.5546
   19CHL1   C18 1359   1.262   1.066   9.462 -0.0253 -0.1475  0.6619
   19CHL1  H18A 1360   1.247   0.961   9.428 -2.4161  0.3942 -0.1344
   19CHL1  H18B 1361   1.225   1.087   9.564  0.0222  1.6767  0.3482
   19CHL1  H18C 1362   1.206   1.128   9.388  0.2368 -2.2888 -1.4441
   19CHL1   C12 1363   1.502   1.014   9.551 -0.2618 -0.1391 -0.2760
   19CHL1  H12A 1364   1.487   0.907   9.526 -2.0607  0.2967 -1.1936
   19CHL1  H12B 1365   1.606   1.047   9.529 -1.0521  2.0642 -1.0275
   19CHL1   C11 1366   1.474   1.033   9.701  0.3790  0.1019 -0.6607
   19CHL1  H11A 1367   1.373   0.989   9.712 -0.4668  2.1581  0.3525
   19CHL1  H11B 1368   1.549   0.978   9.762 -1.0475 -0.5759  0.5409
   19CHL1    C9 1369   1.481   1.183   9.746 -0.2626 -0.3921  0.5243
   19CHL1    H9 1370   1.587   1.216   9.740 -0.2670 -0.5367 -0.3505
   19CHL1   C10 1371   1.443   1.198   9.901 -0.0322 -0.0692 -0.4053
   19CHL1   C19 1372   1.315   1.124   9.935 -0.9266 -0.1368  0.5138
   19CHL1  H19A 1373   1.268   1.134  10.035 -0.4008 -1.1996  0.8799
   19CHL1  H19B 1374   1.235   1.148   9.861 -1.4146  0.0498  1.0953
   19CHL1  H19C 1375   1.331   1.014   9.931 -1.0791 -0.1256 -0.6912
   19CHL1    C1 1376   1.563   1.153   9.986 -0.6192  0.2539 -0.2156
   19CHL1   H1A 1377   1.586   1.044   9.977  1.9981  0.6855  0.2753
   19CHL1   H1B 1378   1.651   1.207   9.944  1.0562  0.0677  2.7649
   19CHL1    C2 1379   1.550   1.184  10.133  0.5984 -1.0135 -0.2642
   19CHL1   H2A 1380   1.643   1.157  10.186 -0.6784 -3.0458  1.0973
   19CHL1   H2B 1381   1.473   1.113  10.170  0.1953 -0.1410  0.6219
   19CHL1   C20 1382   1.413   1.009   9.210 -0.0836 -0.4043 -0.1734
   19CHL1   H20 1383   1.304   0.995   9.218 -0.4508  2.4867  1.1790
   19CHL1   C21 1384   1.475   0.876   9.248 -0.6477 -0.0393 -1.0937
   19CHL1  H21A 1385   1.425   0.840   9.340  2.3730 -1.6058  0.0726
   19CHL1  H21B 1386   1.584   0.887   9.266 -0.5644 -0.8982 -1.0152
   19CHL1  H21C 1387   1.466   0.806   9.162  1.8201 -2.0366  0.1214
   19CHL1   C22 1388   1.449   1.047   9.065 -0.5129  0.1334 -0.8477
   19CHL1  H22A 1389   1.419   1.150   9.038  0.9538  1.2008  1.2224
   19CHL1  H22B 1390   1.560   1.042   9.053 -0.3587  1.5615 -0.1959
   19CHL1   C23 1391   1.401   0.938   8.970  0.3067 -0.0778 -0.5251
   19CHL1  H23A 1392   1.474   0.855   8.976 -0.4771 -0.7284  0.3358
   19CHL1  H23B 1393   1.301   0.899   8.998  1.2004 -0.9847  1.6331
   19CHL1   C24 1394   1.397   0.987   8.828 -0.6418  0.0872  0.8035
   19CHL1  H24A 1395   1.353   1.089   8.836  0.2282  0.4862  0.7066
   19CHL1  H24B 1396   1.495   0.995   8.776 -1.1725  0.2965 -0.1898
   19CHL1   C25 1397   1.323   0.885   8.729  0.3467  0.1575  0.0266
   19CHL1   H25 1398   1.215   0.889   8.755  0.6204  0.4212  1.2092
   19CHL1   C26 1399   1.344   0.920   8.581  0.0040  0.7322  0.2380
   19CHL1  H26A 1400   1.450   0.907   8.553 -0.5053 -0.6041 -1.1954
   19CHL1  H26B 1401   1.298   0.851   8.507 -1.7433  1.3410  0.7039
   19CHL1  H26C 1402   1.313   1.020   8.543 -1.3875 -0.3385 -1.6290
   19CHL1   C27 1403   1.380   0.741   8.735  0.3516  0.1467 -0.0731
   19CHL1  H27A 1404   1.363   0.689   8.831 -1.5040 -3.7748 -2.2892
   19CHL1  H27B 1405   1.345   0.687   8.645  1.0210  1.1773 -0.9750
   19CHL1  H27C 1406   1.490   0.755   8.723  0.3850 -0.7829 -0.9147
   20CHL1    C3 1407   2.080   2.936  10.193 -0.0771 -0.3766  0.4804
   20CHL1    H3 1408   2.111   3.041  10.212 -0.9435  0.2071 -1.1373
   20CHL1    O3 1409   2.026   2.875  10.314  0.8199  0.5013  0.7125
   20CHL1   H3' 1410   2.103   2.867  10.371  0.1362  0.1477  1.6179
   20CHL1    C4 1411   1.973   2.947  10.082  0.3957 -0.0195  0.6989
   20CHL1   H4A 1412   1.934   2.844  10.070  0.8560 -0.2272  0.9676
   20CHL1   H4B 1413   1.884   3.001  10.120  0.7983 -0.0049  1.6471
   20CHL1    C5 1414   2.026   3.005   9.952 -0.1209 -0.3069  0.3692
   20CHL1    C6 1415   1.973   3.119   9.897 -0.2205  0.0499  0.5898
   20CHL1    H6 1416   1.887   3.169   9.942 -1.2097 -0.4195 -0.7256
   20CHL1    C7 1417   2.021   3.175   9.766 -0.7040 -0.6177  0.4515
   20CHL1   H7A 1418   1.933   3.188   9.699 -0.9530  1.3757  1.1144
   20CHL1   H7B 1419   2.067   3.276   9.764 -1.4735 -0.2690 -1.1504
   20CHL1    C8 1420   2.117   3.072   9.695  0.5823 -1.0324 -0.0787
   20CHL1    H8 1421   2.050   2.994   9.653 -1.7771 -0.8896  3.0939
   20CHL1   C14 1422   2.199   3.145   9.586 -0.6916  0.4021  0.1664
   20CHL1   H14 1423   2.256   3.224   9.639 -2.0610 -0.3244  2.8923
   20CHL1   C15 1424   2.116   3.233   9.491 -0.0686  0.1602  0.4878
   20CHL1  H15A 1425   2.028   3.182   9.445  0.1946 -0.4290  0.6210
   20CHL1  H15B 1426   2.077   3.324   9.540 -0.8279  0.8496 -1.3322
   20CHL1   C16 1427   2.217   3.266   9.380 -0.2913  0.0551  0.4445
   20CHL1  H16A 1428   2.169   3.243   9.282  0.7114  0.8452 -0.2469
   20CHL1  H16B 1429   2.250   3.372   9.383 -1.8831  0.6089 -0.3422
   20CHL1   C17 1430   2.341   3.175   9.398  0.4492  0.3053  0.2516
   20CHL1   H17 1431   2.423   3.230   9.447  2.1037 -2.2070  0.5204
   20CHL1   C13 1432   2.299   3.067   9.503 -0.0660 -0.0357  0.3128
   20CHL1   C18 1433   2.217   2.955   9.427 -0.5738  0.0467  0.3681
   20CHL1  H18A 1434   2.140   2.987   9.353  0.6426 -1.0062 -1.4636
   20CHL1  H18B 1435   2.278   2.887   9.363  0.4463  0.3141  1.0319
   20CHL1  H18C 1436   2.149   2.893   9.488 -1.7229  0.7919 -0.1326
   20CHL1   C12 1437   2.405   3.011   9.604  0.3213 -0.4463  0.5740
   20CHL1  H12A 1438   2.471   2.949   9.539  1.3144  1.2234 -0.0766
   20CHL1  H12B 1439   2.470   3.097   9.630 -0.1124  0.0397  0.0688
   20CHL1   C11 1440   2.339   2.936   9.717  0.2885 -0.2402 -0.3492
   20CHL1  H11A 1441   2.317   2.833   9.680  3.7356 -1.1327 -0.2317
   20CHL1  H11B 1442   2.411   2.924   9.801 -1.5537  0.3483  1.3912
   20CHL1    C9 1443   2.222   3.009   9.787 -0.3872 -0.1314  0.2644
   20CHL1    H9 1444   2.265   3.099   9.836 -2.2350  1.2130 -0.5000
   20CHL1   C10 1445   2.145   2.929   9.899  0.2681  0.1725 -0.7557
   20CHL1   C19 1446   2.094   2.797   9.846 -0.1633 -0.2514  0.0557
   20CHL1  H19A 1447   2.170   2.728   9.803 -0.4449 -0.4159 -0.1807
   20CHL1  H19B 1448   2.048   2.745   9.933 -1.4465  1.5881  0.5128
   20CHL1  H19C 1449   2.008   2.797   9.776  0.8618  0.3056 -1.2517
   20CHL1    C1 1450   2.251   2.900  10.018 -0.4152 -0.9445  0.3133
   20CHL1   H1A 1451   2.329   2.834   9.975  1.1637 -0.8084  2.7806
   20CHL1   H1B 1452   2.315   2.985  10.048 -0.5260 -0.0989 -1.7084
   20CHL1    C2 1453   2.197   2.849  10.147  0.7731 -0.1079 -0.0687
   20CHL1   H2A 1454   2.280   2.841  10.220 -0.4967 -1.0948  1.3286
   20CHL1   H2B 1455   2.153   2.747  10.138  1.3590 -0.9779  4.4474
   20CHL1   C20 1456   2.396   3.118   9.261 -0.1402  0.4190  0.0763
   20CHL1   H20 1457   2.317   3.063   9.206 -0.2781 -0.9898  1.6020
   20CHL1   C21 1458   2.513   3.020   9.284 -0.7211 -0.2302 -0.2181
   20CHL1  H21A 1459   2.566   2.981   9.195 -0.2656 -1.0245  0.3847
   20CHL1  H21B 1460   2.476   2.925   9.329  0.6057 -0.6180  0.0900
   20CHL1  H21C 1461   2.597   3.063   9.342  0.2904  0.5120 -2.1467
   20CHL1   C22 1462   2.451   3.229   9.173 -0.7267 -0.2362  0.0232
   20CHL1  H22A 1463   2.365   3.297   9.155 -0.8462 -0.4545 -0.2323
   20CHL1  H22B 1464   2.522   3.288   9.235 -0.1173 -2.8518  2.0596
   20CHL1   C23 1465   2.531   3.185   9.042 -0.1853  0.4299 -0.2742
   20CHL1  H23A 1466   2.622   3.127   9.067 -0.8897  0.2939  2.2517
   20CHL1  H23B 1467   2.462   3.116   8.989  1.4559  0.0338 -2.0484
   20CHL1   C24 1468   2.560   3.308   8.948  0.1747  0.6910 -0.2659
   20CHL1  H24A 1469   2.475   3.380   8.936 -0.8592 -0.4229  0.1489
   20CHL1  H24B 1470   2.642   3.367   8.994  1.2703  0.7724 -2.2035
   20CHL1   C25 1471   2.617   3.262   8.808 -0.1546  0.5225 -0.9968
   20CHL1   H25 1472   2.703   3.193   8.821 -0.2406  0.5943 -0.0208
   20CHL1   C26 1473   2.517   3.200   8.713 -0.3812  0.1621 -0.0046
   20CHL1  H26A 1474   2.425   3.253   8.682 -0.2483  0.4463  0.0889
   20CHL1  H26B 1475   2.571   3.190   8.616  0.0459 -1.2206  0.3494
   20CHL1  H26C 1476   2.508   3.093   8.743  0.0221  0.6212  1.8669
   20CHL1   C27 1477   2.691   3.379   8.736  0.9313  0.3162  0.0140
   20CHL1  H27A 1478   2.786   3.387   8.793 -0.9340 -1.9896  3.8548
   20CHL1  H27B 1479   2.721   3.360   8.631 -0.2161 -2.8684  0.1551
   20CHL1  H27C 1480   2.647   3.481   8.749 -0.3072 -0.0869 -0.8281
   21CHL1    C3 1481   1.401   6.402  10.268  0.1527  0.1568 -0.3718
   21CHL1    H3 1482   1.478   6.325  10.245 -0.2827 -0.2994 -0.3062
   21CHL1    O3 1483   1.408   6.449  10.404 -0.0672 -0.2495  0.2219
   21CHL1   H3' 1484   1.335   6.398  10.441  0.3019  0.5868  2.2548
   21CHL1    C4 1485   1.443   6.519  10.182  0.8224  0.0846  0.0340
   21CHL1   H4A 1486   1.373   6.603  10.204  0.4620 -0.5276  1.3132
   21CHL1   H4B 1487   1.540   6.556  10.223  0.6993  0.6918 -0.2163
   21CHL1    C5 1488   1.420   6.496  10.030  0.5463  0.2996 -0.2355
   21CHL1    C6 1489   1.520   6.514   9.942  0.0904 -0.3161 -0.0859
   21CHL1    H6 1490   1.620   6.530   9.984 -0.9188 -1.5158  3.0536
   21CHL1    C7 1491   1.509   6.498   9.791 -0.1641  0.5096 -0.3070
   21CHL1   H7A 1492   1.559   6.582   9.739  1.3840 -0.1740  0.0452
   21CHL1   H7B 1493   1.547   6.397   9.769 -1.3173 -0.3368  1.3449
   21CHL1    C8 1494   1.361   6.500   9.750  0.1850  0.2421  0.5219
   21CHL1    H8 1495   1.327   6.606   9.753 -2.3465 -0.4901  0.0197
   21CHL1   C14 1496   1.353   6.450   9.602 -0.1383  0.2291 -0.5201
   21CHL1   H14 1497   1.385   6.344   9.605  0.5785  0.3873  3.5102
   21CHL1   C15 1498   1.445   6.519   9.498  0.0646 -0.5933 -0.3116
   21CHL1  H15A 1499   1.441   6.629   9.509 -0.9396 -0.6323 -0.1590
   21CHL1  H15B 1500   1.546   6.477   9.516  0.9239  0.6742 -1.9730
   21CHL1   C16 1501   1.385   6.474   9.358  0.3001 -0.1029  0.1082
   21CHL1  H16A 1502   1.372   6.565   9.295  0.3694 -0.0775  0.1314
   21CHL1  H16B 1503   1.456   6.411   9.301 -0.8693 -1.5904  0.2369
   21CHL1   C17 1504   1.251   6.411   9.386  0.2133  0.1802  0.4865
   21CHL1   H17 1505   1.279   6.304   9.386  0.8417  0.3031 -1.6443
   21CHL1   C13 1506   1.219   6.444   9.538  0.3409  0.5682  0.5713
   21CHL1   C18 1507   1.153   6.587   9.542 -0.2887  0.2091  0.4735
   21CHL1  H18A 1508   1.124   6.615   9.645  1.9317  1.7509  0.7468
   21CHL1  H18B 1509   1.230   6.659   9.506 -0.1296 -1.6564 -3.5507
   21CHL1  H18C 1510   1.068   6.579   9.471  1.3405 -2.7483 -1.3594
   21CHL1   C12 1511   1.126   6.352   9.624  0.5545 -0.5474  0.4550
   21CHL1  H12A 1512   1.018   6.349   9.598  0.2604  0.5339  1.4500
   21CHL1  H12B 1513   1.167   6.249   9.619 -0.6589 -1.0582  0.5149
   21CHL1   C11 1514   1.138   6.391   9.778  0.2756  0.8611  0.0597
   21CHL1  H11A 1515   1.080   6.484   9.799 -0.9578  0.1812 -0.2202
   21CHL1  H11B 1516   1.072   6.317   9.828 -0.8415  2.5421  1.1832
   21CHL1    C9 1517   1.277   6.408   9.836 -0.5063  0.8022 -0.1825
   21CHL1    H9 1518   1.320   6.306   9.820 -0.0797  0.7732  0.9951
   21CHL1   C10 1519   1.281   6.448   9.987 -0.8295  0.3120  0.2175
   21CHL1   C19 1520   1.188   6.571  10.015  0.4282  0.0197  0.3246
   21CHL1  H19A 1521   1.209   6.649   9.938  0.7912  0.5746  0.9748
   21CHL1  H19B 1522   1.081   6.542  10.010 -0.0450  1.7649 -0.3055
   21CHL1  H19C 1523   1.189   6.603  10.121 -1.2242 -1.9625  1.0015
   21CHL1    C1 1524   1.253   6.328  10.075 -0.2902  0.3139  0.2104
   21CHL1   H1A 1525   1.145   6.303  10.067  0.2815 -2.7678  0.6108
   21CHL1   H1B 1526   1.319   6.244  10.043  2.7321  2.6738 -0.1509
   21CHL1    C2 1527   1.259   6.359  10.230 -0.2639 -0.1434  0.2529
   21CHL1   H2A 1528   1.240   6.264  10.284  0.2451 -1.4574 -1.7995
   21CHL1   H2B 1529   1.178   6.433  10.248  1.6202  1.8303  1.2070
   21CHL1   C20 1530   1.150   6.439   9.276 -0.6732  0.4920  0.3661
   21CHL1   H20 1531   1.113   6.544   9.287  1.1746  1.2241 -0.1282
   21CHL1   C21 1532   1.025   6.348   9.299  0.3010 -0.7150 -0.5453
   21CHL1  H21A 1533   1.050   6.240   9.290  3.5653 -0.4242  2.6436
   21CHL1  H21B 1534   0.940   6.372   9.231 -2.9118  0.0278  3.4019
   21CHL1  H21C 1535   0.987   6.352   9.403  1.4171 -3.2362  0.0282
   21CHL1   C22 1536   1.197   6.427   9.133 -0.4264  0.1643 -0.1692
   21CHL1  H22A 1537   1.112   6.409   9.063 -0.9832  1.4906  0.1238
   21CHL1  H22B 1538   1.256   6.517   9.104 -0.1119  0.2419  0.7006
   21CHL1   C23 1539   1.286   6.304   9.093  0.1854 -0.1050  0.1304
   21CHL1  H23A 1540   1.393   6.329   9.111 -0.2195  1.6889  0.1789
   21CHL1  H23B 1541   1.282   6.236   9.181 -0.5750 -0.9630 -0.5477
   21CHL1   C24 1542   1.258   6.234   8.960 -0.3330  0.5183 -0.3895
   21CHL1  H24A 1543   1.331   6.154   8.936 -1.3729 -0.9955  1.2394
   21CHL1  H24B 1544   1.168   6.169   8.967  1.0368 -1.2885  1.5528
   21CHL1   C25 1545   1.249   6.316   8.833 -0.3277  0.1801 -0.1918
   21CHL1   H25 1546   1.164   6.385   8.852  0.2253  0.4395  1.5865
   21CHL1   C26 1547   1.385   6.404   8.814  0.0853  0.9285  0.0386
   21CHL1  H26A 1548   1.476   6.342   8.828 -1.2905 -0.9340  1.1987
   21CHL1  H26B 1549   1.398   6.443   8.711 -0.1437  0.0459 -0.3385
   21CHL1  H26C 1550   1.384   6.485   8.889  0.5759  0.7622  0.2261
   21CHL1   C27 1551   1.238   6.236   8.712  0.6527  0.2260 -0.5714
   21CHL1  H27A 1552   1.152   6.166   8.709  0.2386  0.7434 -0.8237
   21CHL1  H27B 1553   1.234   6.304   8.624 -2.0221 -0.0710 -0.7648
   21CHL1  H27C 1554   1.327   6.172   8.696  0.9745  0.6872 -0.6368
   22CHL1    C3 1555   1.993   1.066   9.834 -0.1063  0.2703  0.2408
   22CHL1    H3 1556   2.070   1.144   9.817 -0.3259  1.9085  5.0382
   22CHL1    O3 1557   1.957   1.064   9.973  0.2628 -0.1761  0.0171
   22CHL1   H3' 1558   2.039   1.089  10.017 -0.0119 -2.0597  1.7406
   22CHL1    C4 1559   1.862   1.094   9.753 -0.3407 -0.2928 -0.7250
   22CHL1   H4A 1560   1.797   1.012   9.791 -1.7681  1.6278  1.2296
   22CHL1   H4B 1561   1.816   1.189   9.787 -1.9104  0.3142 -4.1076
   22CHL1    C5 1562   1.881   1.082   9.607  0.0752  0.6676 -0.6601
   22CHL1    C6 1563   1.857   1.188   9.523  0.0966 -0.0038 -0.2209
   22CHL1    H6 1564   1.806   1.274   9.570  0.3407  0.8356 -1.4511
   22CHL1    C7 1565   1.891   1.185   9.381  0.7098 -0.6026  0.7319
   22CHL1   H7A 1566   1.813   1.236   9.320  0.5612 -0.6942  0.8439
   22CHL1   H7B 1567   1.987   1.239   9.367  0.1538 -0.0428 -1.2032
   22CHL1    C8 1568   1.888   1.036   9.327 -0.2448 -0.6665  0.1532
   22CHL1    H8 1569   1.785   0.997   9.336 -1.0877  1.5957  0.7283
   22CHL1   C14 1570   1.928   1.033   9.177  0.1257  0.1898 -1.0092
   22CHL1   H14 1571   2.030   1.077   9.175  0.4858 -0.5797 -0.4376
   22CHL1   C15 1572   1.839   1.105   9.082 -0.1560 -0.3836 -0.3223
   22CHL1  H15A 1573   1.731   1.096   9.103  0.1110 -2.6810  0.3480
   22CHL1  H15B 1574   1.868   1.212   9.089 -0.7029 -0.3057  0.9700
   22CHL1   C16 1575   1.878   1.045   8.949  0.7824  0.9154  0.3703
   22CHL1  H16A 1576   1.786   1.001   8.904  1.8622 -1.1012  0.0286
   22CHL1  H16B 1577   1.905   1.127   8.879 -4.8881  2.5594 -0.4093
   22CHL1   C17 1578   1.976   0.920   8.978  0.1164  0.3682 -0.3887
   22CHL1   H17 1579   2.082   0.953   8.967  0.9556 -2.0172 -0.0493
   22CHL1   C13 1580   1.946   0.889   9.126 -0.1196  0.3753 -1.2323
   22CHL1   C18 1581   1.815   0.810   9.141 -0.6089 -0.1224  0.1748
   22CHL1  H18A 1582   1.786   0.799   9.248  0.8964 -1.1551  0.5136
   22CHL1  H18B 1583   1.731   0.870   9.101 -0.5293 -1.3700 -2.0045
   22CHL1  H18C 1584   1.820   0.714   9.084 -2.1472  1.4135 -2.7986
   22CHL1   C12 1585   2.063   0.825   9.207  0.0131 -0.4091  1.0353
   22CHL1  H12A 1586   2.075   0.717   9.186 -0.9541 -0.3036 -0.2353
   22CHL1  H12B 1587   2.153   0.883   9.179  0.1230 -1.3813 -0.7479
   22CHL1   C11 1588   2.034   0.820   9.353  1.0419  0.2352 -0.0034
   22CHL1  H11A 1589   1.956   0.742   9.363  3.2582 -1.9833  0.9269
   22CHL1  H11B 1590   2.117   0.782   9.416 -0.1782 -1.7115  0.5136
   22CHL1    C9 1591   1.993   0.960   9.410 -0.0922  0.9828 -0.2006
   22CHL1    H9 1592   2.084   1.024   9.411  0.3506  0.3560  0.9040
   22CHL1   C10 1593   1.950   0.955   9.561 -0.3533 -0.0228  0.1730
   22CHL1   C19 1594   1.849   0.842   9.572  0.3566 -0.0365 -0.5030
   22CHL1  H19A 1595   1.806   0.828   9.674 -0.2152  1.9497 -0.4245
   22CHL1  H19B 1596   1.762   0.860   9.505 -0.1278  0.5730  0.2658
   22CHL1  H19C 1597   1.888   0.741   9.551  1.1017 -0.3157  1.8850
   22CHL1    C1 1598   2.074   0.923   9.648 -0.7885  0.2672  0.6037
   22CHL1   H1A 1599   2.104   0.817   9.638  0.5462  0.5186  1.5730
   22CHL1   H1B 1600   2.161   0.987   9.621 -1.8280  0.7176 -1.8403
   22CHL1    C2 1601   2.048   0.927   9.796  1.1819 -0.2947  0.3672
   22CHL1   H2A 1602   2.141   0.896   9.849  1.6833 -0.2401 -0.4543
   22CHL1   H2B 1603   1.973   0.848   9.815  0.4759  0.7287  1.9998
   22CHL1   C20 1604   1.960   0.803   8.877  0.6051 -0.0466 -0.2800
   22CHL1   H20 1605   1.865   0.748   8.895  0.1527  0.5179 -0.8965
   22CHL1   C21 1606   2.079   0.713   8.906  0.1929  0.1462 -0.2126
   22CHL1  H21A 1607   2.095   0.641   8.823 -0.8237  1.1145 -1.2865
   22CHL1  H21B 1608   2.062   0.659   9.002 -0.1181  0.5719 -0.0261
   22CHL1  H21C 1609   2.172   0.772   8.921 -0.6332  1.4811 -0.1509
   22CHL1   C22 1610   1.973   0.838   8.737 -0.2737  0.0187  0.2124
   22CHL1  H22A 1611   1.909   0.928   8.726 -2.4419 -1.4908 -0.2794
   22CHL1  H22B 1612   2.075   0.864   8.700 -0.6437 -0.5182 -1.2483
   22CHL1   C23 1613   1.909   0.731   8.639  0.0343  0.2485  0.0842
   22CHL1  H23A 1614   1.961   0.635   8.654 -1.9811 -0.7650  1.0027
   22CHL1  H23B 1615   1.803   0.741   8.671 -0.6964  0.0360 -2.1020
   22CHL1   C24 1616   1.932   0.779   8.503  0.0395  0.0163 -0.2421
   22CHL1  H24A 1617   1.866   0.865   8.481 -1.0169 -0.8681 -0.6267
   22CHL1  H24B 1618   2.036   0.816   8.488  0.3458 -1.1043 -0.9863
   22CHL1   C25 1619   1.909   0.665   8.401  0.5325  0.0848  0.0856
   22CHL1   H25 1620   1.950   0.575   8.453  1.0149  0.7247  0.8344
   22CHL1   C26 1621   1.759   0.654   8.374  0.4870 -0.0058  0.0874
   22CHL1  H26A 1622   1.704   0.619   8.464 -0.3085 -0.5946 -0.6207
   22CHL1  H26B 1623   1.720   0.755   8.349 -2.0434 -1.0983 -0.6748
   22CHL1  H26C 1624   1.739   0.590   8.286 -2.1716 -0.1486  0.7159
   22CHL1   C27 1625   1.984   0.688   8.271 -0.4318 -0.2343  0.2225
   22CHL1  H27A 1626   1.957   0.607   8.200  0.3266  0.2735 -0.6661
   22CHL1  H27B 1627   1.942   0.779   8.222 -0.9406 -0.4417  0.2651
   22CHL1  H27C 1628   2.093   0.688   8.288 -0.4411  0.4782  0.3141
   23CHL1    C3 1629   6.806   0.677  10.025 -0.0196  0.1129  0.3228
   23CHL1    H3 1630   6.905   0.728  10.027 -0.0123  0.0845  2.2653
   23CHL1    O3 1631   6.752   0.673  10.154  0.0136  0.2512 -0.0806
   23CHL1   H3' 1632   6.803   0.606  10.199  0.3541  0.7667  0.3145
   23CHL1    C4 1633   6.706   0.758   9.939 -0.0788  0.2625 -0.3218
   23CHL1   H4A 1634   6.600   0.727   9.949  0.2019 -0.2792  1.1809
   23CHL1   H4B 1635   6.709   0.863   9.975 -0.2218  0.0352  0.3679
   23CHL1    C5 1636   6.755   0.759   9.797 -0.1472 -0.4169 -0.3113
   23CHL1    C6 1637   6.781   0.877   9.738 -0.3651  1.2928  0.0357
   23CHL1    H6 1638   6.773   0.971   9.795  0.1979  1.0380  0.5524
   23CHL1    C7 1639   6.827   0.887   9.594  0.1780  0.0060 -0.2031
   23CHL1   H7A 1640   6.769   0.962   9.537  0.5505 -1.4320 -2.6332
   23CHL1   H7B 1641   6.934   0.914   9.589  0.6129 -1.7961 -1.7699
   23CHL1    C8 1642   6.804   0.756   9.509  0.2406  0.1817 -0.1479
   23CHL1    H8 1643   6.696   0.761   9.482  0.5222 -0.5623 -1.5286
   23CHL1   C14 1644   6.891   0.756   9.391 -0.4810  0.2558  0.2409
   23CHL1   H14 1645   6.999   0.748   9.418 -0.2089  0.9654 -0.6042
   23CHL1   C15 1646   6.882   0.880   9.300  1.0862  0.4795 -0.3980
   23CHL1  H15A 1647   6.778   0.917   9.301  0.4202 -1.2346 -1.3201
   23CHL1  H15B 1648   6.947   0.962   9.337  0.4771 -0.1514  2.2849
   23CHL1   C16 1649   6.919   0.834   9.159 -0.4897  0.1860 -0.3963
   23CHL1  H16A 1650   6.836   0.873   9.096  0.3744  1.1336 -0.9828
   23CHL1  H16B 1651   7.019   0.881   9.149 -0.3119  0.4447  1.9435
   23CHL1   C17 1652   6.936   0.683   9.167  0.1014  0.1541 -0.3522
   23CHL1   H17 1653   7.042   0.661   9.192  0.1519 -1.7948 -1.9864
   23CHL1   C13 1654   6.859   0.637   9.297 -0.0581  0.3980  0.7636
   23CHL1   C18 1655   6.713   0.624   9.259 -0.2917  0.5393 -0.6675
   23CHL1  H18A 1656   6.695   0.539   9.191 -0.7507  0.3802 -0.3507
   23CHL1  H18B 1657   6.645   0.613   9.346  0.0963  0.2513 -0.3993
   23CHL1  H18C 1658   6.672   0.715   9.210  0.6320  1.3674  0.0625
   23CHL1   C12 1659   6.920   0.509   9.367 -0.0978 -0.3944 -0.4242
   23CHL1  H12A 1660   6.873   0.419   9.322 -4.2492  1.1730  0.2773
   23CHL1  H12B 1661   7.030   0.501   9.382 -0.3572  0.3021  2.4079
   23CHL1   C11 1662   6.862   0.498   9.510  0.2532  0.8447  0.5624
   23CHL1  H11A 1663   6.757   0.464   9.500  0.3977 -0.0003  1.6899
   23CHL1  H11B 1664   6.916   0.423   9.572  1.1435  0.3757 -0.7391
   23CHL1    C9 1665   6.847   0.632   9.591 -0.8516 -0.2191  0.2610
   23CHL1    H9 1666   6.953   0.658   9.612 -0.6983  0.4459 -1.1890
   23CHL1   C10 1667   6.775   0.618   9.723  0.3465 -0.1576 -0.0155
   23CHL1   C19 1668   6.636   0.546   9.700  0.1983 -0.3110  0.2512
   23CHL1  H19A 1669   6.594   0.526   9.801  0.2810  1.5531  0.6920
   23CHL1  H19B 1670   6.578   0.617   9.639  0.4985  0.2352  0.5961
   23CHL1  H19C 1671   6.652   0.446   9.653  0.4780  0.4459 -1.3040
   23CHL1    C1 1672   6.866   0.537   9.818 -0.4641  0.5243 -0.2435
   23CHL1   H1A 1673   6.875   0.430   9.791 -0.1056  0.0109  1.7444
   23CHL1   H1B 1674   6.974   0.565   9.812 -0.1327 -0.4160  0.9264
   23CHL1    C2 1675   6.825   0.535   9.962 -0.0212 -0.5699  0.0896
   23CHL1   H2A 1676   6.895   0.475  10.024  0.5931 -0.0695 -0.1210
   23CHL1   H2B 1677   6.723   0.490   9.967 -0.4813  0.3824 -0.5525
   23CHL1   C20 1678   6.914   0.612   9.029  0.0678  0.5085 -0.4652
   23CHL1   H20 1679   6.813   0.644   8.994 -0.4137 -0.1926  0.2451
   23CHL1   C21 1680   6.926   0.452   9.040 -0.2935  0.5193  0.0159
   23CHL1  H21A 1681   7.029   0.423   9.069  0.0708  1.0047 -0.7496
   23CHL1  H21B 1682   6.904   0.405   8.942  0.6669  1.3599 -0.6303
   23CHL1  H21C 1683   6.846   0.422   9.111 -0.3161  2.9664  1.1216
   23CHL1   C22 1684   7.017   0.655   8.924  0.3036  0.4289  0.0806
   23CHL1  H22A 1685   7.011   0.766   8.920  1.8902  0.5181 -0.3888
   23CHL1  H22B 1686   7.123   0.641   8.953  1.2523  2.9966 -1.7486
   23CHL1   C23 1687   6.989   0.608   8.773 -0.4238  0.4435 -0.1989
   23CHL1  H23A 1688   7.021   0.503   8.761 -0.9052  0.4099 -1.2754
   23CHL1  H23B 1689   6.880   0.614   8.749  0.3178  1.0892 -3.8986
   23CHL1   C24 1690   7.088   0.677   8.681  0.5482  0.4323  0.1101
   23CHL1  H24A 1691   7.061   0.785   8.680 -0.7033  0.1428  0.4963
   23CHL1  H24B 1692   7.196   0.665   8.707  0.0271  0.0229  2.2539
   23CHL1   C25 1693   7.081   0.624   8.533  0.6411  0.5160  0.4778
   23CHL1   H25 1694   6.979   0.582   8.524  0.7281  0.2749  0.5926
   23CHL1   C26 1695   7.103   0.729   8.425  0.1641  0.4062  0.8128
   23CHL1  H26A 1696   7.207   0.768   8.428 -0.1561  1.3399  0.3606
   23CHL1  H26B 1697   7.088   0.695   8.320  1.2169  3.3272 -0.4040
   23CHL1  H26C 1698   7.034   0.816   8.434  0.8553  1.0151  0.2986
   23CHL1   C27 1699   7.180   0.506   8.514 -0.0448 -0.4751  0.4559
   23CHL1  H27A 1700   7.162   0.435   8.598 -0.7946 -0.4642  0.3053
   23CHL1  H27B 1701   7.162   0.446   8.422 -0.0976 -0.9711  0.7842
   23CHL1  H27C 1702   7.279   0.556   8.508  0.0491 -0.0998  3.4012
   24CHL1    C3 1703   6.239   0.123  10.109 -0.2429  0.8690 -0.1355
   24CHL1    H3 1704   6.317   0.059  10.064 -0.3611 -1.5540  2.7631
   24CHL1    O3 1705   6.225   0.120  10.247  0.5392 -0.0375  0.2037
   24CHL1   H3' 1706   6.146   0.171  10.262  1.5844  0.8222  3.7078
   24CHL1    C4 1707   6.268   0.271  10.075  0.1744 -0.1145 -0.3567
   24CHL1   H4A 1708   6.186   0.334  10.115 -0.8121 -0.7123 -1.3830
   24CHL1   H4B 1709   6.360   0.306  10.127  0.6071 -1.7918  0.0751
   24CHL1    C5 1710   6.266   0.279   9.920  0.4568  1.0547 -0.1842
   24CHL1    C6 1711   6.364   0.327   9.849  0.4457  0.4347 -0.6272
   24CHL1    H6 1712   6.450   0.368   9.904  1.5352  1.3623 -2.8604
   24CHL1    C7 1713   6.365   0.346   9.698 -0.4898 -0.1049 -0.1934
   24CHL1   H7A 1714   6.404   0.442   9.658  0.5794 -0.6989 -0.6437
   24CHL1   H7B 1715   6.450   0.287   9.657  1.9501  3.5224 -0.9027
   24CHL1    C8 1716   6.232   0.325   9.629  0.1042  0.6641 -1.1997
   24CHL1    H8 1717   6.181   0.422   9.645  1.4267  1.0813  0.8988
   24CHL1   C14 1718   6.236   0.303   9.481  0.2167  0.3223 -0.4150
   24CHL1   H14 1719   6.284   0.203   9.470  0.2113  0.4291 -1.5964
   24CHL1   C15 1720   6.324   0.405   9.402  0.4969  0.7911  0.8110
   24CHL1  H15A 1721   6.317   0.510   9.438 -1.2245  0.2879  2.1200
   24CHL1  H15B 1722   6.425   0.361   9.417 -0.1407 -0.2922  2.1836
   24CHL1   C16 1723   6.273   0.379   9.256  0.1233 -0.3630 -0.2730
   24CHL1  H16A 1724   6.247   0.474   9.205 -0.7175 -0.7734 -0.6225
   24CHL1  H16B 1725   6.362   0.335   9.205  0.6054 -0.9282  1.0093
   24CHL1   C17 1726   6.147   0.287   9.257 -0.2081  0.1139 -0.3438
   24CHL1   H17 1727   6.190   0.186   9.247  0.3200  0.2258  0.6545
   24CHL1   C13 1728   6.103   0.292   9.406  1.1096 -0.2510  0.2988
   24CHL1   C18 1729   6.023   0.419   9.423  0.0972 -0.3024 -0.0214
   24CHL1  H18A 1730   6.003   0.431   9.531 -0.2763 -1.4121  0.0411
   24CHL1  H18B 1731   6.071   0.506   9.373 -1.8275  0.7715 -0.0755
   24CHL1  H18C 1732   5.923   0.413   9.375 -0.0016 -0.4350  0.2032
   24CHL1   C12 1733   6.031   0.170   9.464 -0.2053 -0.6920 -0.2432
   24CHL1  H12A 1734   5.933   0.159   9.412 -2.0690  2.1348  2.3066
   24CHL1  H12B 1735   6.091   0.078   9.450 -0.8510 -1.0372 -0.7995
   24CHL1   C11 1736   6.008   0.191   9.613 -0.9234  0.0868  0.3147
   24CHL1  H11A 1737   5.929   0.269   9.619  1.4048  2.5395  0.8600
   24CHL1  H11B 1738   5.961   0.102   9.660 -0.5451 -0.1510  0.2492
   24CHL1    C9 1739   6.148   0.212   9.694  0.0556 -1.0634  0.2485
   24CHL1    H9 1740   6.200   0.113   9.690 -1.2728 -1.7392 -1.4064
   24CHL1   C10 1741   6.136   0.232   9.848 -0.0183  0.6348  0.4025
   24CHL1   C19 1742   6.019   0.336   9.875  0.4877 -0.3199 -0.2720
   24CHL1  H19A 1743   5.923   0.286   9.854  0.0879 -0.8753  2.4734
   24CHL1  H19B 1744   6.016   0.365   9.982 -1.8151 -0.6483 -0.1992
   24CHL1  H19C 1745   6.044   0.426   9.813 -1.7468 -1.3854 -2.9222
   24CHL1    C1 1746   6.092   0.093   9.903 -0.6046  0.0346 -0.2576
   24CHL1   H1A 1747   5.988   0.065   9.874 -1.8792  2.6026  1.4294
   24CHL1   H1B 1748   6.169   0.019   9.870  1.2652  2.0632 -0.6501
   24CHL1    C2 1749   6.104   0.090  10.054 -0.0324 -0.5628 -0.5002
   24CHL1   H2A 1750   6.082  -0.016  10.079 -1.5606 -0.3228 -0.6933
   24CHL1   H2B 1751   6.025   0.160  10.091  1.5892  0.0252  2.0969
   24CHL1   C20 1752   6.052   0.295   9.138  0.0328 -0.4232  0.0354
   24CHL1   H20 1753   6.002   0.394   9.127 -0.0743 -0.4074  0.6390
   24CHL1   C21 1754   5.937   0.193   9.149 -0.2640  0.5327 -1.0551
   24CHL1  H21A 1755   5.871   0.226   9.231  0.6948  2.6175 -1.0563
   24CHL1  H21B 1756   5.975   0.091   9.172  0.3213  0.5381 -1.9564
   24CHL1  H21C 1757   5.877   0.184   9.056 -0.8841  2.4043 -0.8819
   24CHL1   C22 1758   6.129   0.283   9.003  0.1321 -0.5173  0.2856
   24CHL1  H22A 1759   6.201   0.369   9.005 -0.9000  0.3626  2.0811
   24CHL1  H22B 1760   6.184   0.187   8.991  0.5219 -0.2792  0.1158
   24CHL1   C23 1761   6.039   0.291   8.876 -0.6428 -0.1161  0.4874
   24CHL1  H23A 1762   5.993   0.192   8.860  0.8689 -0.2778 -4.3267
   24CHL1  H23B 1763   5.970   0.376   8.894 -1.3765 -0.4405 -0.7308
   24CHL1   C24 1764   6.119   0.325   8.750  0.1490  0.6529 -0.2257
   24CHL1  H24A 1765   6.189   0.410   8.761  2.6488 -1.6192  3.5863
   24CHL1  H24B 1766   6.191   0.249   8.715  1.4948  1.5794  0.4624
   24CHL1   C25 1767   6.025   0.343   8.626  0.3931  0.9558 -0.8317
   24CHL1   H25 1768   5.937   0.401   8.659 -1.1654 -1.2604 -0.8450
   24CHL1   C26 1769   6.098   0.406   8.504 -0.4362  0.3860  0.6141
   24CHL1  H26A 1770   6.106   0.516   8.516 -3.1198  0.5500  1.5385
   24CHL1  H26B 1771   6.199   0.360   8.491 -0.3402  0.5396  0.8050
   24CHL1  H26C 1772   6.047   0.387   8.407  0.9207  0.1958 -0.0958
   24CHL1   C27 1773   5.975   0.202   8.579 -0.0682 -0.1626 -0.4897
   24CHL1  H27A 1774   6.058   0.140   8.541 -1.6670 -0.8032 -3.2336
   24CHL1  H27B 1775   5.919   0.154   8.662 -1.9355  0.0940 -1.5343
   24CHL1  H27C 1776   5.894   0.222   8.505  0.0564 -0.9945 -0.8506
   25CHL1    C3 1777   0.969   2.315  10.302 -0.4522 -0.2811  0.1205
   25CHL1    H3 1778   1.066   2.371  10.307 -0.3785 -0.1726 -1.7977
   25CHL1    O3 1779   0.926   2.290  10.436 -0.3239 -0.0502  0.1707
   25CHL1   H3' 1780   0.853   2.350  10.454  0.0519  0.0270  1.5290
   25CHL1    C4 1781   0.856   2.386  10.225  0.7318  0.4330  0.1766
   25CHL1   H4A 1782   0.756   2.345  10.248  0.7900  1.1139  1.7993
   25CHL1   H4B 1783   0.839   2.489  10.262 -2.0925  0.2868 -0.5005
   25CHL1    C5 1784   0.867   2.380  10.071  0.8232 -1.0527 -0.1229
   25CHL1    C6 1785   0.859   2.498  10.002  0.6551 -0.2236  0.4158
   25CHL1    H6 1786   0.836   2.599  10.040  0.5159  0.7938 -2.2001
   25CHL1    C7 1787   0.887   2.507   9.852  0.7280 -0.6098  0.4764
   25CHL1   H7A 1788   0.800   2.564   9.811  1.2930  0.9235  1.3008
   25CHL1   H7B 1789   0.978   2.568   9.834  0.6457  0.1256  2.3324
   25CHL1    C8 1790   0.886   2.366   9.781  0.0196  0.4300  0.4355
   25CHL1    H8 1791   0.779   2.338   9.782  0.3353 -0.9599  2.9698
   25CHL1   C14 1792   0.933   2.375   9.639 -0.2508  0.5229 -0.2603
   25CHL1   H14 1793   1.042   2.398   9.645 -0.4689  1.4613  0.6502
   25CHL1   C15 1794   0.877   2.485   9.542  0.3640  0.1525 -0.0935
   25CHL1  H15A 1795   0.767   2.492   9.556  0.3838  0.4644 -0.0923
   25CHL1  H15B 1796   0.937   2.579   9.538 -0.0096  0.3676 -0.7850
   25CHL1   C16 1797   0.893   2.418   9.406  0.1565  0.5256  0.4203
   25CHL1  H16A 1798   0.792   2.417   9.361 -0.7660  3.3400  2.1312
   25CHL1  H16B 1799   0.954   2.490   9.347  0.8313 -0.3504  0.0245
   25CHL1   C17 1800   0.971   2.285   9.424 -0.6048  0.5568 -0.0763
   25CHL1   H17 1801   1.076   2.314   9.443 -0.6068 -1.9037  5.9932
   25CHL1   C13 1802   0.931   2.240   9.567  0.1953  0.2558  0.0306
   25CHL1   C18 1803   0.784   2.180   9.551  0.1732  0.2288 -0.4347
   25CHL1  H18A 1804   0.744   2.166   9.653  0.1826 -0.0834 -0.4728
   25CHL1  H18B 1805   0.726   2.242   9.478  1.0297  0.5235 -0.8800
   25CHL1  H18C 1806   0.786   2.078   9.507 -0.5519 -0.0942  0.2701
   25CHL1   C12 1807   1.018   2.139   9.642  0.0189 -0.2493 -0.4312
   25CHL1  H12A 1808   1.016   2.037   9.597 -1.7031 -0.8290  0.8763
   25CHL1  H12B 1809   1.126   2.168   9.643  0.0612 -0.1804 -2.6077
   25CHL1   C11 1810   0.982   2.126   9.794  0.3675 -0.4909  0.3168
   25CHL1  H11A 1811   0.889   2.065   9.800  0.5923 -0.7690  1.2357
   25CHL1  H11B 1812   1.066   2.067   9.839  0.3201 -0.7073  0.1257
   25CHL1    C9 1813   0.956   2.255   9.863  0.4023 -0.4348  0.2397
   25CHL1    H9 1814   1.059   2.297   9.866  0.8201 -1.3861 -0.4191
   25CHL1   C10 1815   0.907   2.245  10.009 -0.5444  0.0165  0.4097
   25CHL1   C19 1816   0.780   2.159  10.021  0.2995  0.0269  0.4679
   25CHL1  H19A 1817   0.700   2.202   9.957  1.1660 -1.8412 -2.0292
   25CHL1  H19B 1818   0.788   2.053   9.988 -1.1109 -0.1461  0.6176
   25CHL1  H19C 1819   0.748   2.152  10.127  0.0232  0.3846  0.4095
   25CHL1    C1 1820   1.020   2.169  10.097 -0.1986  0.1063  0.3630
   25CHL1   H1A 1821   1.031   2.069  10.050 -1.5690 -0.0766  0.4084
   25CHL1   H1B 1822   1.112   2.230  10.081 -1.0397  1.0067 -1.4411
   25CHL1    C2 1823   0.995   2.170  10.237  0.2036 -0.2362 -1.1448
   25CHL1   H2A 1824   1.077   2.121  10.295 -0.8534  1.1570  1.7614
   25CHL1   H2B 1825   0.905   2.107  10.253  1.3476 -1.4002  1.2870
   25CHL1   C20 1826   0.957   2.177   9.307  0.8559 -0.5656 -0.3119
   25CHL1   H20 1827   0.850   2.146   9.306  0.6763 -0.1760  2.1763
   25CHL1   C21 1828   1.031   2.046   9.338 -0.2080 -0.6342 -0.3000
   25CHL1  H21A 1829   1.134   2.064   9.377 -1.2195  0.3391  2.0867
   25CHL1  H21B 1830   1.022   1.979   9.250  0.5606 -0.6877 -0.3513
   25CHL1  H21C 1831   0.979   2.001   9.425 -2.5510  0.1994 -1.2020
   25CHL1   C22 1832   0.983   2.228   9.163  0.3158 -0.7056  0.1465
   25CHL1  H22A 1833   0.932   2.326   9.150  0.3482 -0.4484  1.8195
   25CHL1  H22B 1834   1.090   2.257   9.155 -0.0087  0.4717 -0.1311
   25CHL1   C23 1835   0.935   2.137   9.051 -0.4200 -0.6277 -0.2564
   25CHL1  H23A 1836   0.988   2.040   9.056  1.1368  0.1877 -0.1125
   25CHL1  H23B 1837   0.826   2.118   9.060 -0.7950  0.4683 -1.9909
   25CHL1   C24 1838   0.968   2.208   8.911 -0.8128  0.4875  0.0837
   25CHL1  H24A 1839   0.929   2.310   8.895  0.2676  0.7348 -1.1342
   25CHL1  H24B 1840   1.079   2.205   8.910 -0.7873 -0.9451  1.7062
   25CHL1   C25 1841   0.902   2.142   8.785  0.4372  0.4250 -0.6203
   25CHL1   H25 1842   0.950   2.198   8.702 -1.9643  1.9079 -1.1135
   25CHL1   C26 1843   0.952   1.993   8.783 -0.0565  0.1834 -0.1803
   25CHL1  H26A 1844   0.918   1.937   8.693 -0.0099 -0.6626  0.3165
   25CHL1  H26B 1845   1.063   1.994   8.797 -0.2974  2.8894  2.5927
   25CHL1  H26C 1846   0.926   1.937   8.875  2.3659 -0.5921  0.1252
   25CHL1   C27 1847   0.754   2.155   8.792  0.2957  0.1828 -0.3861
   25CHL1  H27A 1848   0.702   2.121   8.700 -0.3862 -1.0176  0.4196
   25CHL1  H27B 1849   0.715   2.088   8.871  2.4645 -0.3653  0.2973
   25CHL1  H27C 1850   0.730   2.259   8.823  0.0382  0.3788 -1.2142
   26CHL1    C3 1851   3.709   0.403  10.140  0.1757 -0.0728 -0.7535
   26CHL1    H3 1852   3.619   0.468  10.152 -0.2327 -0.7184 -0.2639
   26CHL1    O3 1853   3.790   0.394  10.261 -0.5609  0.0831 -0.3449
   26CHL1   H3' 1854   3.751   0.323  10.313 -2.0619  0.8514 -0.3797
   26CHL1    C4 1855   3.644   0.263  10.112 -0.4869 -0.8144 -0.2182
   26CHL1   H4A 1856   3.732   0.195  10.106 -0.2224 -0.4659 -0.4090
   26CHL1   H4B 1857   3.583   0.214  10.191 -0.6659 -1.5399 -0.7947
   26CHL1    C5 1858   3.568   0.255   9.980  0.6742 -0.0229 -0.2707
   26CHL1    C6 1859   3.438   0.207   9.981 -0.5467  0.4215  0.6175
   26CHL1    H6 1860   3.394   0.155  10.068 -2.1425 -2.3013 -1.6141
   26CHL1    C7 1861   3.357   0.189   9.862 -0.2094 -0.7450  0.3891
   26CHL1   H7A 1862   3.318   0.086   9.852  0.8263 -1.0063 -1.2220
   26CHL1   H7B 1863   3.265   0.252   9.866  0.0506  0.1718 -3.5314
   26CHL1    C8 1864   3.448   0.218   9.736 -0.7042  0.1343 -0.2470
   26CHL1    H8 1865   3.515   0.130   9.725 -1.0503 -0.1848  0.1894
   26CHL1   C14 1866   3.363   0.210   9.619 -0.3818  0.3738 -0.0106
   26CHL1   H14 1867   3.281   0.284   9.627 -0.0214  0.5946  2.0035
   26CHL1   C15 1868   3.293   0.075   9.596 -0.2444 -0.2244 -0.4400
   26CHL1  H15A 1869   3.356  -0.011   9.627  0.6469  0.3959 -0.4947
   26CHL1  H15B 1870   3.201   0.084   9.657 -1.0001 -0.7056 -1.4730
   26CHL1   C16 1871   3.258   0.066   9.450  0.0405  0.9271  0.1063
   26CHL1  H16A 1872   3.298  -0.027   9.404 -0.1969  0.3473  1.0357
   26CHL1  H16B 1873   3.148   0.052   9.440  0.1885 -0.2497  0.0504
   26CHL1   C17 1874   3.320   0.196   9.384  0.2268  0.3817  0.2946
   26CHL1   H17 1875   3.245   0.278   9.394  0.0266  0.2989 -0.4798
   26CHL1   C13 1876   3.437   0.229   9.483 -0.0481  0.0413  0.0502
   26CHL1   C18 1877   3.555   0.127   9.466  0.4223 -0.0768  0.6056
   26CHL1  H18A 1878   3.618   0.132   9.557 -1.3592  2.3682  1.8299
   26CHL1  H18B 1879   3.519   0.024   9.443  1.3078 -0.8532  2.5150
   26CHL1  H18C 1880   3.622   0.154   9.381 -2.7444 -0.4942 -2.2525
   26CHL1   C12 1881   3.486   0.372   9.495  0.0027 -0.8018  0.8900
   26CHL1  H12A 1882   3.534   0.407   9.401  0.7483 -0.5954  1.3415
   26CHL1  H12B 1883   3.402   0.438   9.527  1.7196  1.2217  1.4742
   26CHL1   C11 1884   3.583   0.396   9.613  0.3563  0.0597  0.0679
   26CHL1  H11A 1885   3.683   0.355   9.589  0.8591 -0.4742  2.7171
   26CHL1  H11B 1886   3.590   0.505   9.634 -0.3742  0.0947  0.1409
   26CHL1    C9 1887   3.530   0.338   9.745 -0.0767 -0.3601 -0.3034
   26CHL1    H9 1888   3.469   0.426   9.774  2.6025  2.0404 -1.4693
   26CHL1   C10 1889   3.638   0.315   9.858 -0.2316 -0.1794 -0.6116
   26CHL1   C19 1890   3.749   0.214   9.807 -1.2000 -0.7680 -0.5847
   26CHL1  H19A 1891   3.720   0.107   9.806  1.0802 -1.4410 -0.2391
   26CHL1  H19B 1892   3.789   0.234   9.705  0.1562  0.5110  0.1538
   26CHL1  H19C 1893   3.834   0.212   9.878 -1.8227  0.7830  0.2432
   26CHL1    C1 1894   3.697   0.459   9.886  0.2149 -0.6606 -0.7783
   26CHL1   H1A 1895   3.755   0.477   9.793 -0.5119  0.3164 -1.0441
   26CHL1   H1B 1896   3.625   0.541   9.903  0.6442 -0.2473 -0.9140
   26CHL1    C2 1897   3.782   0.455  10.017  0.3069 -0.2557  0.0079
   26CHL1   H2A 1898   3.837   0.549  10.042 -0.2131  0.1089 -0.2075
   26CHL1   H2B 1899   3.865   0.385   9.993 -1.7591 -1.8791 -2.9787
   26CHL1   C20 1900   3.355   0.182   9.236 -0.7826  0.1783 -0.3937
   26CHL1   H20 1901   3.434   0.105   9.226 -0.3846  0.1864  2.1131
   26CHL1   C21 1902   3.400   0.312   9.176  0.1595 -0.3117 -0.7126
   26CHL1  H21A 1903   3.503   0.327   9.214  0.1883 -1.8326 -0.0746
   26CHL1  H21B 1904   3.332   0.390   9.216 -0.0074 -1.5908  1.7333
   26CHL1  H21C 1905   3.403   0.314   9.065  1.4796  0.7256 -0.6738
   26CHL1   C22 1906   3.225   0.136   9.160  0.1608 -0.3045  0.0949
   26CHL1  H22A 1907   3.168   0.060   9.217  1.1650 -1.3480 -0.2359
   26CHL1  H22B 1908   3.159   0.221   9.135  1.5418  0.8672  0.2942
   26CHL1   C23 1909   3.267   0.068   9.027 -0.2383 -0.1331 -0.3711
   26CHL1  H23A 1910   3.321   0.144   8.967 -1.4663  0.9314 -0.1789
   26CHL1  H23B 1911   3.344  -0.011   9.043  1.3416  0.9666 -2.1533
   26CHL1   C24 1912   3.146   0.012   8.949  0.0090  1.1217 -0.2881
   26CHL1  H24A 1913   3.057  -0.017   9.010 -0.5406  0.6063 -1.3191
   26CHL1  H24B 1914   3.127   0.101   8.885  4.6062  0.8730 -2.3618
   26CHL1   C25 1915   3.189  -0.088   8.846 -0.3452  0.5711 -0.5919
   26CHL1   H25 1916   3.107  -0.122   8.779  0.2705 -3.8948  0.5877
   26CHL1   C26 1917   3.283  -0.025   8.745 -0.1717 -0.6676 -0.8338
   26CHL1  H26A 1918   3.232   0.058   8.691  1.8603  1.4849  0.3265
   26CHL1  H26B 1919   3.378   0.012   8.789 -0.9927  1.9931 -1.0731
   26CHL1  H26C 1920   3.289  -0.108   8.672 -1.8807 -1.5123 -0.0720
   26CHL1   C27 1921   3.240  -0.220   8.912 -0.2851  0.0364  0.0334
   26CHL1  H27A 1922   3.245  -0.297   8.832 -1.0039 -0.5517  0.5370
   26CHL1  H27B 1923   3.340  -0.199   8.954 -1.5745  2.2514  2.2332
   26CHL1  H27C 1924   3.171  -0.239   8.997  0.6782  0.1229  0.8410
   27CHL1    C3 1925   0.752   3.135  10.394  0.3847  0.7699  0.6957
   27CHL1    H3 1926   0.642   3.124  10.385  0.6848 -0.1676 -4.2179
   27CHL1    O3 1927   0.775   3.121  10.537 -0.1713 -0.6748  0.1371
   27CHL1   H3' 1928   0.738   3.197  10.583  1.1703 -1.6807  3.1602
   27CHL1    C4 1929   0.823   3.017  10.325 -0.0984  0.6831 -0.4679
   27CHL1   H4A 1930   0.923   3.004  10.372  0.1952  2.4692 -0.4981
   27CHL1   H4B 1931   0.770   2.927  10.361  2.0594 -1.8163 -3.0949
   27CHL1    C5 1932   0.831   3.014  10.178  0.6016  0.4274  0.3487
   27CHL1    C6 1933   0.791   2.901  10.101 -0.0934 -0.3165 -0.0028
   27CHL1    H6 1934   0.772   2.808  10.156 -0.7125 -1.3076 -1.8182
   27CHL1    C7 1935   0.803   2.892   9.954 -0.5416 -0.4939 -0.4637
   27CHL1   H7A 1936   0.836   2.798   9.904 -0.0573 -0.7880  0.3924
   27CHL1   H7B 1937   0.699   2.907   9.917 -0.0617 -1.0473 -2.1716
   27CHL1    C8 1938   0.879   3.021   9.888  0.5235  0.5465 -0.4510
   27CHL1    H8 1939   0.990   3.017   9.900  0.6968 -0.1938 -2.0502
   27CHL1   C14 1940   0.848   3.010   9.737  0.9300 -0.7414 -0.8309
   27CHL1   H14 1941   0.738   3.009   9.724  0.5490 -0.6477  1.7559
   27CHL1   C15 1942   0.900   2.884   9.658  0.1201 -0.6376 -0.1157
   27CHL1  H15A 1943   1.004   2.870   9.696 -0.2370 -1.4949  0.5554
   27CHL1  H15B 1944   0.840   2.793   9.677  0.0864 -0.4929  0.4984
   27CHL1   C16 1945   0.905   2.935   9.515  0.0031  0.4984 -0.4030
   27CHL1  H16A 1946   1.008   2.936   9.472 -0.0060 -0.7685 -0.4911
   27CHL1  H16B 1947   0.838   2.877   9.449  0.3917 -0.0663 -0.3089
   27CHL1   C17 1948   0.862   3.085   9.522  0.3294  0.6698  0.4337
   27CHL1   H17 1949   0.752   3.085   9.508  0.6458  0.8814 -2.8735
   27CHL1   C13 1950   0.895   3.139   9.659  0.5010  0.2723  0.6079
   27CHL1   C18 1951   1.053   3.159   9.665  0.2406  0.2091 -0.1422
   27CHL1  H18A 1952   1.085   3.159   9.771 -0.4043  2.3269  0.0909
   27CHL1  H18B 1953   1.106   3.077   9.612 -0.4654 -0.4541  0.1452
   27CHL1  H18C 1954   1.077   3.257   9.619 -0.6121 -0.1082 -1.3065
   27CHL1   C12 1955   0.826   3.266   9.718 -0.4852  0.1991 -0.1819
   27CHL1  H12A 1956   0.874   3.350   9.665  1.0212 -0.9351 -0.6765
   27CHL1  H12B 1957   0.715   3.270   9.703 -0.8236  0.7933  2.1863
   27CHL1   C11 1958   0.859   3.274   9.865 -0.3101  0.0929 -0.1245
   27CHL1  H11A 1959   0.967   3.295   9.873 -0.2190 -0.5946  0.6138
   27CHL1  H11B 1960   0.809   3.364   9.907 -0.6883  0.3795 -1.1641
   27CHL1    C9 1961   0.822   3.153   9.952 -0.8786  0.3714 -0.3038
   27CHL1    H9 1962   0.711   3.151   9.950 -0.9913  2.0561  1.6812
   27CHL1   C10 1963   0.853   3.150  10.105 -0.5928 -0.1156 -0.2778
   27CHL1   C19 1964   1.005   3.175  10.119  0.1842  0.0722  0.8230
   27CHL1  H19A 1965   1.065   3.095  10.071 -1.2751  0.0349 -1.0646
   27CHL1  H19B 1966   1.033   3.274  10.076 -2.6539  1.3838  1.7082
   27CHL1  H19C 1967   1.047   3.173  10.222  3.0731 -1.0080 -0.2903
   27CHL1    C1 1968   0.774   3.263  10.184 -0.5523 -0.1315  0.6598
   27CHL1   H1A 1969   0.804   3.355  10.131  0.9388  0.3233  2.1926
   27CHL1   H1B 1970   0.664   3.251  10.173 -0.3695 -1.7556  0.4021
   27CHL1    C2 1971   0.802   3.265  10.336 -0.3602  0.1204 -0.2768
   27CHL1   H2A 1972   0.738   3.343  10.382 -0.0928  1.5893 -2.2709
   27CHL1   H2B 1973   0.912   3.274  10.348 -0.4189  2.4239 -0.8804
   27CHL1   C20 1974   0.914   3.164   9.394 -0.1321 -0.1017 -0.2288
   27CHL1   H20 1975   1.021   3.134   9.388 -0.0378 -0.2471  1.7265
   27CHL1   C21 1976   0.906   3.312   9.408 -0.3114 -0.5401  0.3755
   27CHL1  H21A 1977   0.918   3.366   9.312  0.0954  0.6889  1.0952
   27CHL1  H21B 1978   0.985   3.363   9.467  0.7761 -0.8544 -0.7520
   27CHL1  H21C 1979   0.804   3.337   9.443 -2.0014 -0.5690 -3.8839
   27CHL1   C22 1980   0.842   3.120   9.260 -0.4563  0.0798  0.4373
   27CHL1  H22A 1981   0.814   3.013   9.260 -1.7114  0.3744  1.8790
   27CHL1  H22B 1982   0.741   3.167   9.256  1.1707  4.5547  3.7739
   27CHL1   C23 1983   0.924   3.164   9.135  0.2399 -0.1548 -0.4206
   27CHL1  H23A 1984   0.905   3.272   9.114 -0.0271 -0.2778 -0.8263
   27CHL1  H23B 1985   1.033   3.150   9.152  0.3188  1.5276  0.7835
   27CHL1   C24 1986   0.886   3.084   9.012  0.6252  0.2562 -0.4283
   27CHL1  H24A 1987   0.915   2.979   9.029  0.5363  0.4058  0.7396
   27CHL1  H24B 1988   0.776   3.095   9.000  0.6135  1.6247  0.5997
   27CHL1   C25 1989   0.961   3.135   8.884  0.1751  0.1007 -0.3327
   27CHL1   H25 1990   0.922   3.236   8.860 -3.6617 -1.2382 -0.3507
   27CHL1   C26 1991   1.118   3.138   8.899  1.0626 -0.0776  0.1631
   27CHL1  H26A 1992   1.154   3.214   8.972  1.4966 -0.9024  0.8284
   27CHL1  H26B 1993   1.158   3.044   8.943 -0.4883 -0.0352  1.7753
   27CHL1  H26C 1994   1.170   3.157   8.803 -0.5820 -1.7460 -1.1178
   27CHL1   C27 1995   0.929   3.042   8.764  0.0500 -0.2803 -0.3193
   27CHL1  H27A 1996   0.965   2.939   8.784  2.3416  0.6964  0.9441
   27CHL1  H27B 1997   0.822   3.041   8.736  0.4342 -1.5321 -1.8641
   27CHL1  H27C 1998   0.987   3.086   8.681  0.1968  0.7482  0.3089
   28CHL1    C3 1999   3.208   1.297   9.798  0.1327  0.4835  0.5954
   28CHL1    H3 2000   3.306   1.283   9.748 -0.3733 -2.7466  0.3259
   28CHL1    O3 2001   3.230   1.325   9.933  0.2586  0.0498  0.6984
   28CHL1   H3' 2002   3.143   1.349   9.966  0.4322 -0.2014  1.3472
   28CHL1    C4 2003   3.131   1.411   9.721  0.3373 -0.7276 -0.7526
   28CHL1   H4A 2004   3.037   1.435   9.776  2.2068  2.8655  1.3466
   28CHL1   H4B 2005   3.186   1.505   9.744 -1.9564  0.4071  0.5648
   28CHL1    C5 2006   3.108   1.371   9.574 -0.4742 -0.2669  0.2352
   28CHL1    C6 2007   3.169   1.451   9.479  0.1414  0.2695  0.2668
   28CHL1    H6 2008   3.215   1.544   9.517 -0.6427  0.6902  0.2049
   28CHL1    C7 2009   3.145   1.435   9.332 -0.8985 -0.5704 -0.3262
   28CHL1   H7A 2010   3.106   1.530   9.290 -0.2587 -0.0483  0.2383
   28CHL1   H7B 2011   3.240   1.399   9.289 -1.3250 -0.4544 -1.3823
   28CHL1    C8 2012   3.040   1.325   9.304 -0.5346  0.0402 -0.4628
   28CHL1    H8 2013   2.944   1.379   9.323 -0.1631 -0.0089  1.7932
   28CHL1   C14 2014   3.044   1.286   9.157 -0.4615 -0.1106  0.1331
   28CHL1   H14 2015   3.142   1.237   9.138 -0.6831  0.1975 -2.1125
   28CHL1   C15 2016   3.025   1.398   9.061 -0.0775  0.0644  0.7964
   28CHL1  H15A 2017   2.937   1.458   9.094  0.5878  1.0450  0.8443
   28CHL1  H15B 2018   3.117   1.460   9.058  1.5643 -2.2432  1.6696
   28CHL1   C16 2019   2.991   1.329   8.928  0.0284 -0.4993 -0.6872
   28CHL1  H16A 2020   2.904   1.378   8.880  0.3172  0.2021 -0.5030
   28CHL1  H16B 2021   3.073   1.342   8.854  0.5336 -0.4411 -0.1265
   28CHL1   C17 2022   2.968   1.183   8.965  0.3202  0.1371 -0.3184
   28CHL1   H17 2023   3.070   1.145   8.946 -0.0299 -0.6529 -0.6748
   28CHL1   C13 2024   2.946   1.177   9.115 -0.3416 -0.8297  0.2121
   28CHL1   C18 2025   2.797   1.216   9.145  0.0880  0.0920  0.0430
   28CHL1  H18A 2026   2.721   1.148   9.102  0.3665 -0.2950  0.1560
   28CHL1  H18B 2027   2.774   1.230   9.253  2.6573 -1.5988  0.8963
   28CHL1  H18C 2028   2.774   1.314   9.098  1.8392  0.7171  0.4126
   28CHL1   C12 2029   2.994   1.051   9.192 -0.0483  0.7448 -0.0849
   28CHL1  H12A 2030   2.928   0.963   9.182  0.7152 -0.0923  1.7120
   28CHL1  H12B 2031   3.101   1.029   9.171 -0.5912 -3.5901  0.8077
   28CHL1   C11 2032   2.978   1.074   9.342 -0.7037  0.4835 -0.0877
   28CHL1  H11A 2033   2.871   1.096   9.365 -0.4439  1.7184 -0.0200
   28CHL1  H11B 2034   3.017   0.983   9.393 -1.9801 -1.3415 -2.2273
   28CHL1    C9 2035   3.057   1.197   9.389 -0.1741 -0.4423 -0.3011
   28CHL1    H9 2036   3.165   1.179   9.371 -0.1477  0.2872 -0.9165
   28CHL1   C10 2037   3.036   1.237   9.545  0.3711  0.3038  0.5235
   28CHL1   C19 2038   2.884   1.265   9.565 -0.0524 -0.5343  0.6291
   28CHL1  H19A 2039   2.827   1.170   9.558  0.9679 -1.3582  2.6793
   28CHL1  H19B 2040   2.861   1.305   9.666  2.8529 -1.7714  1.8692
   28CHL1  H19C 2041   2.834   1.333   9.493  0.9938  0.1502  0.5442
   28CHL1    C1 2042   3.101   1.130   9.640 -0.1285 -0.0196 -0.1394
   28CHL1   H1A 2043   3.047   1.034   9.641 -0.7265  0.2929 -1.0204
   28CHL1   H1B 2044   3.200   1.120   9.590  1.4781 -0.4216  2.9277
   28CHL1    C2 2045   3.132   1.168   9.787  0.2380 -0.4971 -0.2919
   28CHL1   H2A 2046   3.204   1.094   9.829  0.2434 -0.6728 -0.6110
   28CHL1   H2B 2047   3.040   1.172   9.849  1.8234 -0.1930  2.1939
   28CHL1   C20 2048   2.875   1.105   8.871 -0.1757 -0.2523 -0.0351
   28CHL1   H20 2049   2.775   1.154   8.872 -0.9254 -1.6808 -0.7609
   28CHL1   C21 2050   2.865   0.960   8.928  0.0465 -0.4391 -0.2310
   28CHL1  H21A 2051   2.794   0.957   9.013 -0.8828  0.9832 -0.9217
   28CHL1  H21B 2052   2.963   0.935   8.973  0.9373  2.7831 -0.0933
   28CHL1  H21C 2053   2.850   0.880   8.852 -1.2373 -0.6610  0.2267
   28CHL1   C22 2054   2.929   1.100   8.724  0.5553  0.6644  0.3895
   28CHL1  H22A 2055   2.945   1.205   8.690 -1.4609  0.5093 -1.3170
   28CHL1  H22B 2056   3.025   1.045   8.721 -0.5283 -1.2629 -0.5904
   28CHL1   C23 2057   2.840   1.036   8.615 -0.4320 -0.7928  0.2479
   28CHL1  H23A 2058   2.806   0.932   8.638  0.8762 -1.1165  0.8060
   28CHL1  H23B 2059   2.754   1.103   8.597  0.3801  0.4483  0.8348
   28CHL1   C24 2060   2.923   1.017   8.490 -0.0771 -0.6806  0.5072
   28CHL1  H24A 2061   2.992   1.101   8.470  0.0358 -1.4101 -2.8573
   28CHL1  H24B 2062   2.981   0.923   8.504 -0.9042 -1.0026  2.0399
   28CHL1   C25 2063   2.835   1.000   8.366  0.6290 -0.2357 -0.1270
   28CHL1   H25 2064   2.745   0.939   8.387 -0.2491  0.4472 -1.7325
   28CHL1   C26 2065   2.807   1.138   8.302 -0.5370  0.2324  0.9840
   28CHL1  H26A 2066   2.749   1.212   8.361 -0.3022  0.5043  0.8724
   28CHL1  H26B 2067   2.905   1.185   8.282  1.3335 -1.7374  4.5447
   28CHL1  H26C 2068   2.738   1.128   8.216 -0.1358 -0.0553  0.6958
   28CHL1   C27 2069   2.913   0.911   8.258  0.0213 -0.2162 -0.8804
   28CHL1  H27A 2070   2.849   0.894   8.169 -0.0874 -2.1581 -0.4646
   28CHL1  H27B 2071   3.009   0.955   8.223  0.5379 -0.6139  0.0082
   28CHL1  H27C 2072   2.940   0.809   8.294  0.8763 -0.2742 -1.6352
   29CHL1    C3 2073   6.494   4.640   6.610 -0.3909  0.8183  0.1282
   29CHL1    H3 2074   6.417   4.559   6.607  0.3703  0.0521  0.5318
   29CHL1    O3 2075   6.532   4.663   6.479  0.2545 -0.0607  0.0275
   29CHL1   H3' 2076   6.576   4.748   6.490 -0.3910  0.1620  0.9407
   29CHL1    C4 2077   6.437   4.765   6.671  0.0813  0.0611  0.4330
   29CHL1   H4A 2078   6.516   4.844   6.663  0.1550 -0.0899 -0.5697
   29CHL1   H4B 2079   6.347   4.797   6.613 -2.8939 -0.3420  4.4438
   29CHL1    C5 2080   6.405   4.745   6.817  0.1127  0.5909 -0.7919
   29CHL1    C6 2081   6.279   4.762   6.862 -0.6310  0.2932  1.0270
   29CHL1    H6 2082   6.196   4.796   6.799  0.5365  2.5451  0.6077
   29CHL1    C7 2083   6.238   4.757   7.008 -0.0381  0.1664  0.5048
   29CHL1   H7A 2084   6.174   4.846   7.025 -0.8883  0.7147 -4.2297
   29CHL1   H7B 2085   6.170   4.670   7.023  1.6004 -1.3062 -0.1594
   29CHL1    C8 2086   6.358   4.758   7.097 -0.5960  0.7224 -0.2843
   29CHL1    H8 2087   6.397   4.862   7.099 -3.0855  1.7398 -0.0930
   29CHL1   C14 2088   6.321   4.733   7.240  0.0467  0.4536  0.1503
   29CHL1   H14 2089   6.260   4.641   7.248 -0.2077  0.6863  0.9309
   29CHL1   C15 2090   6.222   4.834   7.304 -0.2940  0.4820  0.3205
   29CHL1  H15A 2091   6.270   4.933   7.290  0.5181  0.4781  2.5961
   29CHL1  H15B 2092   6.115   4.838   7.274  0.4981  1.8731 -2.7187
   29CHL1   C16 2093   6.239   4.798   7.457 -0.1123 -0.1803  0.1473
   29CHL1  H16A 2094   6.248   4.896   7.508  1.1434  0.1729 -0.6860
   29CHL1  H16B 2095   6.148   4.745   7.491 -0.3443 -0.0227 -0.2082
   29CHL1   C17 2096   6.359   4.700   7.469 -0.1318  0.1069  0.4502
   29CHL1   H17 2097   6.303   4.605   7.479 -1.2207  0.5671 -0.8923
   29CHL1   C13 2098   6.439   4.710   7.339 -0.6902 -0.0664 -0.4881
   29CHL1   C18 2099   6.527   4.832   7.352  0.2275  0.0299 -0.0129
   29CHL1  H18A 2100   6.542   4.871   7.249  0.9616 -2.0097 -0.7251
   29CHL1  H18B 2101   6.484   4.916   7.412  1.7337 -0.7085  2.2552
   29CHL1  H18C 2102   6.619   4.802   7.407 -1.0293 -1.7167  1.2591
   29CHL1   C12 2103   6.522   4.584   7.288  0.5991 -0.4137 -0.5328
   29CHL1  H12A 2104   6.608   4.546   7.348  0.9794 -1.4095 -1.6535
   29CHL1  H12B 2105   6.452   4.498   7.295  1.8224 -1.3621  0.9994
   29CHL1   C11 2106   6.568   4.607   7.147  0.0851  0.0103 -0.3711
   29CHL1  H11A 2107   6.654   4.677   7.150  1.3725 -1.4936  2.9787
   29CHL1  H11B 2108   6.614   4.518   7.099  0.3467 -0.6134  0.9818
   29CHL1    C9 2109   6.466   4.652   7.048  0.2416  0.2868 -0.4541
   29CHL1    H9 2110   6.404   4.561   7.034  0.9272 -0.2202 -0.2290
   29CHL1   C10 2111   6.516   4.693   6.909  0.0899  0.0200  0.1748
   29CHL1   C19 2112   6.623   4.806   6.920 -0.2131 -0.2900 -0.7506
   29CHL1  H19A 2113   6.621   4.878   6.836 -1.4075  2.4793  1.4701
   29CHL1  H19B 2114   6.613   4.866   7.013  2.2612 -1.3620  0.3198
   29CHL1  H19C 2115   6.722   4.757   6.936  1.0709  2.1861 -0.6861
   29CHL1    C1 2116   6.582   4.569   6.836 -0.4293 -0.3445  0.1719
   29CHL1   H1A 2117   6.667   4.537   6.900 -1.1963 -1.6727  0.5518
   29CHL1   H1B 2118   6.509   4.486   6.839  1.0891 -1.7769 -0.5913
   29CHL1    C2 2119   6.614   4.594   6.686 -0.4304  0.5278  0.2152
   29CHL1   H2A 2120   6.651   4.497   6.646 -1.6725  0.5468 -1.0454
   29CHL1   H2B 2121   6.692   4.673   6.688 -0.0124  0.2161 -1.7021
   29CHL1   C20 2122   6.441   4.713   7.606  0.0041  0.8675  0.2112
   29CHL1   H20 2123   6.476   4.819   7.606 -0.6488  1.0934  1.1252
   29CHL1   C21 2124   6.554   4.607   7.621  0.0109 -0.0648 -0.0511
   29CHL1  H21A 2125   6.504   4.508   7.630  0.4460 -0.2634  0.2424
   29CHL1  H21B 2126   6.610   4.618   7.716  1.3285  0.3967 -0.8592
   29CHL1  H21C 2127   6.624   4.614   7.535 -0.3524  0.1681 -0.3311
   29CHL1   C22 2128   6.343   4.693   7.722 -0.2386 -0.4049 -0.5143
   29CHL1  H22A 2129   6.273   4.779   7.716  1.5651  1.2671  1.0541
   29CHL1  H22B 2130   6.295   4.594   7.707  0.0766 -0.7912  0.8765
   29CHL1   C23 2131   6.409   4.689   7.857 -0.0778 -0.1418 -0.2028
   29CHL1  H23A 2132   6.469   4.600   7.886 -1.1698 -0.2559  1.9235
   29CHL1  H23B 2133   6.466   4.785   7.867  0.6367 -0.4907 -0.8523
   29CHL1   C24 2134   6.297   4.690   7.965 -0.3081  0.5076 -0.1763
   29CHL1  H24A 2135   6.226   4.768   7.929 -2.6638 -0.8409  1.2354
   29CHL1  H24B 2136   6.241   4.594   7.964 -1.3716  1.0506  1.7014
   29CHL1   C25 2137   6.349   4.728   8.103  0.6279  0.1967 -0.4217
   29CHL1   H25 2138   6.417   4.816   8.100 -0.1395  0.9033  1.3754
   29CHL1   C26 2139   6.240   4.757   8.203  0.0746 -0.5361  0.0289
   29CHL1  H26A 2140   6.183   4.667   8.236 -0.6881  0.3387  1.1653
   29CHL1  H26B 2141   6.286   4.801   8.294 -1.8757  0.0180  0.7991
   29CHL1  H26C 2142   6.172   4.838   8.169 -0.7875 -1.1523  0.2492
   29CHL1   C27 2143   6.427   4.608   8.160 -0.7390  0.5172  0.4267
   29CHL1  H27A 2144   6.376   4.519   8.118  1.5407 -1.3245  1.2988
   29CHL1  H27B 2145   6.535   4.608   8.131 -1.1190 -1.9925 -1.3313
   29CHL1  H27C 2146   6.413   4.605   8.270 -0.8751 -0.5375  0.3903
   30CHL1    C3 2147   6.200   3.616   7.084 -0.2557  0.7264  0.6138
   30CHL1    H3 2148   6.265   3.526   7.083 -0.3710  0.6454 -0.1163
   30CHL1    O3 2149   6.129   3.612   6.960 -0.6462  0.1403  0.3204
   30CHL1   H3' 2150   6.182   3.655   6.893 -1.2705  0.5520  0.0740
   30CHL1    C4 2151   6.099   3.598   7.195  0.2543 -0.9700  0.4850
   30CHL1   H4A 2152   6.028   3.682   7.179  0.2043 -1.1936 -0.5269
   30CHL1   H4B 2153   6.049   3.501   7.175  2.2395 -1.6437 -1.6659
   30CHL1    C5 2154   6.167   3.611   7.333 -0.2328  0.2634  0.3305
   30CHL1    C6 2155   6.152   3.513   7.424 -1.3435  0.3049  0.4870
   30CHL1    H6 2156   6.093   3.425   7.394 -0.5995  0.5501 -1.9694
   30CHL1    C7 2157   6.212   3.513   7.558 -0.5467 -0.3027 -0.1257
   30CHL1   H7A 2158   6.135   3.491   7.635 -0.1344 -1.4152 -0.0184
   30CHL1   H7B 2159   6.293   3.437   7.561  0.3995  0.5967 -1.6378
   30CHL1    C8 2160   6.280   3.653   7.591  0.1853 -0.1070  0.1216
   30CHL1    H8 2161   6.197   3.724   7.613  1.3092  0.7525  1.7999
   30CHL1   C14 2162   6.384   3.635   7.695  0.3047  0.0668  0.3158
   30CHL1   H14 2163   6.461   3.570   7.648 -0.5344  0.5986 -1.9081
   30CHL1   C15 2164   6.335   3.557   7.820 -0.0936  0.2685  0.2809
   30CHL1  H15A 2165   6.241   3.610   7.847  0.7601  0.9777  2.0525
   30CHL1  H15B 2166   6.310   3.452   7.798  1.4135 -0.0497 -0.0565
   30CHL1   C16 2167   6.436   3.593   7.933  0.9421  0.0759 -0.5778
   30CHL1  H16A 2168   6.391   3.633   8.026  4.1294  0.1774  1.0564
   30CHL1  H16B 2169   6.498   3.507   7.966 -2.4996 -1.4496  2.6517
   30CHL1   C17 2170   6.535   3.703   7.873  0.1257  0.5209 -0.0162
   30CHL1   H17 2171   6.615   3.642   7.827  1.2194  1.4145  0.6572
   30CHL1   C13 2172   6.456   3.759   7.748  0.5487 -0.3575 -0.2224
   30CHL1   C18 2173   6.348   3.859   7.796 -0.6511  0.9253 -0.2352
   30CHL1  H18A 2174   6.385   3.953   7.842  4.3628 -0.0346 -1.7110
   30CHL1  H18B 2175   6.282   3.893   7.713 -0.2666  0.8488 -0.5789
   30CHL1  H18C 2176   6.292   3.817   7.882  1.3152  1.3356  1.3269
   30CHL1   C12 2177   6.540   3.808   7.628 -0.2168  0.6165 -0.7769
   30CHL1  H12A 2178   6.597   3.899   7.657  2.6344 -1.4263  0.4565
   30CHL1  H12B 2179   6.614   3.735   7.589  0.5694  0.3361  1.1289
   30CHL1   C11 2180   6.440   3.839   7.510  0.0106 -0.3470 -0.7698
   30CHL1  H11A 2181   6.382   3.931   7.527 -0.7516 -1.1185  1.0605
   30CHL1  H11B 2182   6.502   3.872   7.424 -0.3775  1.5556 -0.3460
   30CHL1    C9 2183   6.356   3.716   7.473 -0.5861  0.7608  0.3255
   30CHL1    H9 2184   6.421   3.636   7.430 -3.6744 -0.2254 -3.0179
   30CHL1   C10 2185   6.262   3.736   7.356  0.0993  0.0319  0.0232
   30CHL1   C19 2186   6.181   3.865   7.369  0.2465  0.0371 -0.2605
   30CHL1  H19A 2187   6.252   3.948   7.348  0.5249 -0.2336 -0.4033
   30CHL1  H19B 2188   6.097   3.873   7.298 -1.1090 -0.3432  1.2313
   30CHL1  H19C 2189   6.134   3.869   7.470  1.1979  0.4832  0.1731
   30CHL1    C1 2190   6.347   3.757   7.226 -0.0534  0.6292  0.1020
   30CHL1   H1A 2191   6.411   3.848   7.230 -1.1300  1.4811 -1.4417
   30CHL1   H1B 2192   6.423   3.675   7.224  0.8889  1.5048 -0.7905
   30CHL1    C2 2193   6.272   3.748   7.097 -0.2949  0.1666 -0.4431
   30CHL1   H2A 2194   6.328   3.765   7.003  1.6324  0.4285  0.6830
   30CHL1   H2B 2195   6.197   3.830   7.092 -0.5397 -0.0397 -0.1573
   30CHL1   C20 2196   6.589   3.800   7.977  1.0695  0.1166  0.5864
   30CHL1   H20 2197   6.498   3.835   8.030 -0.3538  2.6833 -3.1369
   30CHL1   C21 2198   6.656   3.920   7.904  0.8402  0.0194  0.8650
   30CHL1  H21A 2199   6.584   3.982   7.846 -1.1690 -0.3399  2.8446
   30CHL1  H21B 2200   6.740   3.899   7.834 -0.6871  1.2813 -1.4810
   30CHL1  H21C 2201   6.697   3.984   7.986  0.1877  0.5625  0.7724
   30CHL1   C22 2202   6.676   3.737   8.079 -0.3359 -0.4047  0.2659
   30CHL1  H22A 2203   6.615   3.653   8.119 -2.2232  0.4978 -0.5918
   30CHL1  H22B 2204   6.771   3.690   8.047  0.0150 -0.8822  1.9357
   30CHL1   C23 2205   6.712   3.818   8.204  0.2893  0.7968 -0.1291
   30CHL1  H23A 2206   6.791   3.890   8.175 -0.8116  2.5188  0.9573
   30CHL1  H23B 2207   6.621   3.879   8.217  0.0554  0.7154 -1.2861
   30CHL1   C24 2208   6.754   3.748   8.336 -0.3805 -0.5598 -0.4243
   30CHL1  H24A 2209   6.655   3.728   8.382 -0.1289 -0.3137  0.2264
   30CHL1  H24B 2210   6.811   3.655   8.316 -1.6959 -1.8066  1.3935
   30CHL1   C25 2211   6.837   3.847   8.423  0.0008 -0.5468  0.5737
   30CHL1   H25 2212   6.926   3.878   8.364  1.2750  0.5523  2.9517
   30CHL1   C26 2213   6.763   3.970   8.462 -0.1930  0.2364 -0.2356
   30CHL1  H26A 2214   6.675   3.966   8.530  1.0283  0.5440  1.4041
   30CHL1  H26B 2215   6.824   4.045   8.516  0.4098 -1.1643  1.0805
   30CHL1  H26C 2216   6.745   4.026   8.367 -3.4409  1.5888  1.0040
   30CHL1   C27 2217   6.891   3.778   8.549  0.5463 -0.2629  0.1088
   30CHL1  H27A 2218   6.920   3.849   8.629 -0.1592 -0.0147  0.1489
   30CHL1  H27B 2219   6.806   3.728   8.600 -1.6195  1.7680 -1.2837
   30CHL1  H27C 2220   6.973   3.708   8.520 -0.6927 -0.8627 -2.2267
   31CHL1    C3 2221   0.988   6.291   6.694 -0.0361  0.9678 -0.3634
   31CHL1    H3 2222   1.069   6.366   6.709 -0.1678  0.8300  1.1313
   31CHL1    O3 2223   0.979   6.250   6.557  0.0611  0.1400 -0.4046
   31CHL1   H3' 2224   0.915   6.179   6.568  1.2462 -0.7120  1.5645
   31CHL1    C4 2225   1.032   6.178   6.787 -0.1438 -0.4525 -0.1762
   31CHL1   H4A 2226   0.969   6.088   6.770 -0.7399 -0.4767  1.8100
   31CHL1   H4B 2227   1.134   6.151   6.754  1.2742  2.4014  1.4488
   31CHL1    C5 2228   1.031   6.221   6.929 -0.0950  0.2527  0.7486
   31CHL1    C6 2229   1.140   6.202   7.002  0.2991 -0.6318  0.1869
   31CHL1    H6 2230   1.231   6.152   6.967 -0.2254 -1.7333  0.3803
   31CHL1    C7 2231   1.138   6.234   7.150  0.3445  0.4018  0.0476
   31CHL1   H7A 2232   1.184   6.142   7.191 -1.2068 -0.1077  0.7104
   31CHL1   H7B 2233   1.209   6.319   7.161  2.6071 -0.8656 -3.3198
   31CHL1    C8 2234   1.002   6.249   7.210  0.8361  0.7905  0.1939
   31CHL1    H8 2235   0.944   6.156   7.224  0.0901  1.3736  1.1365
   31CHL1   C14 2236   1.011   6.310   7.348  0.9547  0.2396  0.5748
   31CHL1   H14 2237   1.059   6.406   7.318  2.5936 -1.5111 -2.8963
   31CHL1   C15 2238   1.114   6.271   7.449 -0.6334 -0.1692 -0.3666
   31CHL1  H15A 2239   1.143   6.164   7.458 -0.1605  0.0035  0.2318
   31CHL1  H15B 2240   1.210   6.325   7.439 -0.5431  0.1404  1.7867
   31CHL1   C16 2241   1.064   6.320   7.583 -0.3055  0.3483  0.0245
   31CHL1  H16A 2242   1.054   6.243   7.662 -0.6001  0.0082 -0.3385
   31CHL1  H16B 2243   1.149   6.385   7.612  1.2926  0.0893 -3.5305
   31CHL1   C17 2244   0.930   6.401   7.556 -0.4626  0.0670 -0.2982
   31CHL1   H17 2245   0.949   6.510   7.548 -1.9845  0.4477  0.8336
   31CHL1   C13 2246   0.882   6.346   7.422  0.1233 -0.0267 -0.7545
   31CHL1   C18 2247   0.810   6.217   7.460 -0.3311 -0.0331  0.7505
   31CHL1  H18A 2248   0.874   6.143   7.513 -1.7080 -0.0884  2.4298
   31CHL1  H18B 2249   0.719   6.248   7.516 -0.0466  0.6535  0.8381
   31CHL1  H18C 2250   0.776   6.159   7.371 -3.1134  1.6039  0.6183
   31CHL1   C12 2251   0.797   6.433   7.322 -0.3446  0.1460 -0.0032
   31CHL1  H12A 2252   0.698   6.450   7.369 -0.3462 -0.3230  0.1682
   31CHL1  H12B 2253   0.839   6.532   7.297  2.0752 -1.0048 -0.8202
   31CHL1   C11 2254   0.771   6.370   7.188 -0.2317 -0.1198 -0.1241
   31CHL1  H11A 2255   0.705   6.283   7.209 -1.1737  0.4265 -0.7467
   31CHL1  H11B 2256   0.721   6.438   7.117  1.7010  2.1175  0.5092
   31CHL1    C9 2257   0.907   6.328   7.118  0.2288 -1.0686 -0.2184
   31CHL1    H9 2258   0.967   6.421   7.109  1.3171 -1.8204 -1.0639
   31CHL1   C10 2259   0.892   6.279   6.980 -0.0206  0.1660 -0.0868
   31CHL1   C19 2260   0.791   6.159   6.981 -0.2729 -0.2901  0.2306
   31CHL1  H19A 2261   0.695   6.197   7.022  0.3352  0.6237  0.8571
   31CHL1  H19B 2262   0.772   6.109   6.884  0.4443  2.8703 -1.6872
   31CHL1  H19C 2263   0.834   6.084   7.050  1.3229  0.6452  0.3109
   31CHL1    C1 2264   0.871   6.393   6.885  0.1630  0.1748 -0.1576
   31CHL1   H1A 2265   0.779   6.454   6.903  2.1142  3.5723 -0.7883
   31CHL1   H1B 2266   0.951   6.469   6.903 -0.2891  0.3342  1.3755
   31CHL1    C2 2267   0.860   6.350   6.737 -0.5876 -0.4381 -0.4951
   31CHL1   H2A 2268   0.858   6.447   6.682 -1.6532 -0.3119 -0.2564
   31CHL1   H2B 2269   0.776   6.278   6.726 -0.9047 -0.6176  2.3845
   31CHL1   C20 2270   0.841   6.407   7.685 -0.5831 -0.8327 -0.1545
   31CHL1   H20 2271   0.799   6.306   7.706 -1.4226 -0.6027 -0.6883
   31CHL1   C21 2272   0.722   6.505   7.655 -0.8394  0.1460 -0.2219
   31CHL1  H21A 2273   0.652   6.453   7.587 -1.2570  1.0713 -0.5249
   31CHL1  H21B 2274   0.762   6.585   7.588  0.6673 -2.1539 -2.2363
   31CHL1  H21C 2275   0.674   6.559   7.740 -0.1157 -0.8857  0.8688
   31CHL1   C22 2276   0.933   6.457   7.797  0.5590  0.3451 -0.0996
   31CHL1  H22A 2277   0.992   6.373   7.839  4.5388  1.5390 -2.8213
   31CHL1  H22B 2278   1.009   6.528   7.759  1.1228  0.6765  1.5539
   31CHL1   C23 2279   0.857   6.518   7.913  0.5646  0.2224  0.2871
   31CHL1  H23A 2280   0.831   6.626   7.907 -0.2940  0.0784  1.0494
   31CHL1  H23B 2281   0.768   6.455   7.935  0.1208  0.4085 -0.9137
   31CHL1   C24 2282   0.948   6.525   8.032 -0.1430 -0.6295 -0.1942
   31CHL1  H24A 2283   0.970   6.428   8.081  1.2170  0.1141  0.7197
   31CHL1  H24B 2284   1.045   6.565   7.998  0.0386 -1.1219 -0.2653
   31CHL1   C25 2285   0.898   6.614   8.154 -0.4351  0.8599  0.0722
   31CHL1   H25 2286   0.849   6.701   8.104  2.4628  2.5981  0.0363
   31CHL1   C26 2287   0.791   6.538   8.241 -0.4855 -0.1614 -0.6355
   31CHL1  H26A 2288   0.844   6.456   8.294  0.9724  1.1008 -0.0389
   31CHL1  H26B 2289   0.741   6.596   8.321  1.9903  0.6306  0.4569
   31CHL1  H26C 2290   0.717   6.496   8.170  0.3413 -1.6601 -0.6436
   31CHL1   C27 2291   1.017   6.670   8.236  0.3605 -0.4211 -0.6767
   31CHL1  H27A 2292   1.077   6.583   8.269  0.7548 -1.1325 -3.0558
   31CHL1  H27B 2293   0.976   6.723   8.325  0.5062  2.1727 -2.0583
   31CHL1  H27C 2294   1.092   6.734   8.185  1.4457 -0.8781  0.3121
   32CHL1    C3 2295   6.607   3.631   6.820  0.3899 -0.7285 -0.1533
   32CHL1    H3 2296   6.528   3.693   6.867  0.0566  0.6372 -2.3719
   32CHL1    O3 2297   6.597   3.640   6.681  0.0932 -0.2124 -0.1010
   32CHL1   H3' 2298   6.597   3.548   6.656  0.3439 -0.3358  0.3445
   32CHL1    C4 2299   6.745   3.676   6.864  0.1706  0.0779 -0.0859
   32CHL1   H4A 2300   6.820   3.617   6.808 -0.0536 -3.4295  2.9148
   32CHL1   H4B 2301   6.758   3.784   6.844  0.4728 -0.0784 -0.7407
   32CHL1    C5 2302   6.747   3.662   7.014  0.5990  0.7685 -0.5724
   32CHL1    C6 2303   6.778   3.768   7.092  0.2867  0.2521 -0.3552
   32CHL1    H6 2304   6.796   3.869   7.051  1.3275  0.2914  0.1535
   32CHL1    C7 2305   6.810   3.761   7.238 -0.2772  0.2826  0.1930
   32CHL1   H7A 2306   6.910   3.805   7.256  0.5747  0.2232 -3.4947
   32CHL1   H7B 2307   6.737   3.817   7.300 -0.3092  0.9998 -0.4776
   32CHL1    C8 2308   6.832   3.608   7.286  0.5985  0.2399 -0.2092
   32CHL1    H8 2309   6.931   3.573   7.249  0.5944  1.3011 -1.2972
   32CHL1   C14 2310   6.826   3.594   7.434  0.0714 -0.6520  0.3548
   32CHL1   H14 2311   6.719   3.603   7.463 -0.3918 -1.2529 -1.0696
   32CHL1   C15 2312   6.911   3.686   7.517  0.6850 -0.1875 -0.3830
   32CHL1  H15A 2313   7.018   3.696   7.489  1.0687  2.3274  1.5708
   32CHL1  H15B 2314   6.858   3.783   7.521  1.9626  0.5075  0.5095
   32CHL1   C16 2315   6.909   3.620   7.652 -0.5369 -0.7491 -0.8345
   32CHL1  H16A 2316   7.010   3.622   7.698 -0.8408  1.2586 -0.1240
   32CHL1  H16B 2317   6.838   3.670   7.721  0.0919 -1.1516  0.1270
   32CHL1   C17 2318   6.843   3.480   7.638  0.1636  0.0778  0.2916
   32CHL1   H17 2319   6.739   3.505   7.668 -0.2069  2.9406 -2.8253
   32CHL1   C13 2320   6.842   3.452   7.487  0.6592  0.3384 -0.4765
   32CHL1   C18 2321   6.976   3.384   7.444 -0.5094 -0.2089  0.2194
   32CHL1  H18A 2322   7.059   3.451   7.474  0.0104  0.1350 -1.8413
   32CHL1  H18B 2323   6.995   3.278   7.472 -0.3166 -1.1309 -3.0084
   32CHL1  H18C 2324   6.980   3.372   7.334 -0.8209 -0.6041  0.2484
   32CHL1   C12 2325   6.719   3.367   7.432 -0.4554  0.1889  0.0030
   32CHL1  H12A 2326   6.724   3.263   7.473 -0.2253  1.0191  2.2397
   32CHL1  H12B 2327   6.624   3.407   7.475 -1.3961  0.5309 -2.2605
   32CHL1   C11 2328   6.710   3.374   7.275  1.0665  0.2394 -0.4467
   32CHL1  H11A 2329   6.794   3.305   7.253  1.2133  0.6824 -1.3263
   32CHL1  H11B 2330   6.624   3.310   7.246  1.7350 -2.7382  3.4047
   32CHL1    C9 2331   6.722   3.514   7.224  0.3558 -0.1553 -0.5096
   32CHL1    H9 2332   6.625   3.564   7.244  0.0773  0.1742 -2.4108
   32CHL1   C10 2333   6.724   3.518   7.065  0.4430  0.4135  0.7125
   32CHL1   C19 2334   6.845   3.430   7.022  0.3470 -0.2713  0.3310
   32CHL1  H19A 2335   6.829   3.324   7.049  4.6511 -1.8312 -2.3359
   32CHL1  H19B 2336   6.869   3.446   6.915  0.0431 -0.6725  0.2019
   32CHL1  H19C 2337   6.943   3.449   7.072  2.4281  0.5925 -3.6516
   32CHL1    C1 2338   6.587   3.470   7.014 -0.0685  0.3876 -0.0309
   32CHL1   H1A 2339   6.556   3.370   7.050 -3.4068 -0.1137 -3.6462
   32CHL1   H1B 2340   6.515   3.538   7.065 -0.2175 -0.5683  1.0721
   32CHL1    C2 2341   6.571   3.489   6.863 -0.0675  0.1809 -0.6048
   32CHL1   H2A 2342   6.473   3.456   6.822 -0.4860 -0.1313  0.6015
   32CHL1   H2B 2343   6.653   3.427   6.823  1.7830  2.6231 -0.8583
   32CHL1   C20 2344   6.896   3.375   7.745 -0.2754 -0.1585  0.9932
   32CHL1   H20 2345   7.004   3.359   7.723 -0.8410 -0.5171 -1.9205
   32CHL1   C21 2346   6.814   3.247   7.720 -0.4726  0.0886 -0.4684
   32CHL1  H21A 2347   6.709   3.281   7.720 -0.4122  0.2733 -0.1389
   32CHL1  H21B 2348   6.821   3.169   7.800  0.9416  0.4777 -0.1753
   32CHL1  H21C 2349   6.836   3.199   7.622  1.4780 -2.3590  1.0189
   32CHL1   C22 2350   6.875   3.440   7.880 -0.1101  0.6907 -0.0567
   32CHL1  H22A 2351   6.935   3.529   7.911  0.4616  0.0750  0.6268
   32CHL1  H22B 2352   6.768   3.471   7.885 -0.3862 -0.0374 -1.1219
   32CHL1   C23 2353   6.886   3.339   7.993 -0.2926  0.1621  0.4163
   32CHL1  H23A 2354   6.794   3.278   8.001  0.7417 -1.6719 -0.9259
   32CHL1  H23B 2355   6.962   3.260   7.977 -0.1012  0.3599  0.3520
   32CHL1   C24 2356   6.898   3.413   8.130  0.5721 -0.5440  0.1107
   32CHL1  H24A 2357   6.990   3.475   8.120 -0.2463  0.6402 -0.1468
   32CHL1  H24B 2358   6.806   3.474   8.141  2.2266  1.7701  2.4065
   32CHL1   C25 2359   6.912   3.316   8.250  0.2033  0.9554 -0.0503
   32CHL1   H25 2360   6.818   3.257   8.261  1.0822 -0.2845  1.2919
   32CHL1   C26 2361   7.030   3.214   8.238 -0.9495 -0.3325  0.3281
   32CHL1  H26A 2362   7.067   3.184   8.138  2.6243 -1.8053  1.9170
   32CHL1  H26B 2363   7.120   3.257   8.287  0.9408 -0.9375 -2.3961
   32CHL1  H26C 2364   7.009   3.122   8.297  0.5609 -0.9028  0.0235
   32CHL1   C27 2365   6.924   3.383   8.390  0.1083 -0.5794  0.0088
   32CHL1  H27A 2366   6.981   3.317   8.459 -1.6016 -0.1799  1.8815
   32CHL1  H27B 2367   6.982   3.474   8.366 -0.0983 -1.1907 -3.2987
   32CHL1  H27C 2368   6.833   3.419   8.441 -0.2337 -0.0804 -0.9258
   33CHL1    C3 2369   1.850   3.216   6.891 -0.5065  0.3930  0.3177
   33CHL1    H3 2370   1.869   3.315   6.936  0.2937  1.0267 -1.3210
   33CHL1    O3 2371   1.793   3.218   6.761  0.2831  0.5472  0.3486
   33CHL1   H3' 2372   1.721   3.155   6.753  1.2223 -0.3069 -2.9344
   33CHL1    C4 2373   1.981   3.128   6.888  0.0577 -0.0743 -0.8386
   33CHL1   H4A 2374   1.952   3.029   6.847 -0.0899 -0.6440  0.5993
   33CHL1   H4B 2375   2.046   3.162   6.805 -0.0656  1.4811 -0.3322
   33CHL1    C5 2376   2.049   3.111   7.022  0.6545 -0.1573 -0.4934
   33CHL1    C6 2377   2.178   3.142   7.046  1.0201 -0.3651 -0.5775
   33CHL1    H6 2378   2.250   3.166   6.966  0.4627 -0.5830 -1.1572
   33CHL1    C7 2379   2.237   3.139   7.183  0.1902  0.0950  0.3808
   33CHL1   H7A 2380   2.335   3.086   7.182  1.4179  2.2478 -0.2864
   33CHL1   H7B 2381   2.278   3.236   7.218  0.4160 -0.1836  0.8995
   33CHL1    C8 2382   2.150   3.073   7.291  0.4577  0.4237  0.3480
   33CHL1    H8 2383   2.159   2.964   7.276 -1.9260  0.0522  1.1477
   33CHL1   C14 2384   2.199   3.102   7.429 -0.1149  0.0453 -0.0050
   33CHL1   H14 2385   2.182   3.212   7.436 -3.5921 -0.4432  1.5676
   33CHL1   C15 2386   2.351   3.077   7.458 -0.5373 -0.3014 -0.3344
   33CHL1  H15A 2387   2.367   2.969   7.437 -2.5102 -0.8441  0.6739
   33CHL1  H15B 2388   2.418   3.147   7.403 -1.4396  0.2293 -0.7861
   33CHL1   C16 2389   2.363   3.084   7.614  1.0749  0.1161  0.3302
   33CHL1  H16A 2390   2.409   2.988   7.648  0.7680 -0.3205 -0.4649
   33CHL1  H16B 2391   2.426   3.168   7.652  0.9393  0.3527  0.0305
   33CHL1   C17 2392   2.207   3.089   7.663 -0.7460  0.1271 -0.0801
   33CHL1   H17 2393   2.195   3.200   7.671  3.4541  0.7895 -0.1806
   33CHL1   C13 2394   2.124   3.039   7.539  0.3238 -0.8532  0.0628
   33CHL1   C18 2395   2.126   2.884   7.539 -0.7820  0.1719  0.5679
   33CHL1  H18A 2396   2.228   2.850   7.567 -0.7762 -0.6029 -0.3250
   33CHL1  H18B 2397   2.052   2.836   7.606  0.9025 -0.6595  1.8697
   33CHL1  H18C 2398   2.107   2.840   7.438 -2.3101 -0.2635  1.0127
   33CHL1   C12 2399   1.981   3.098   7.529  0.0959 -0.4313  0.2419
   33CHL1  H12A 2400   1.912   3.050   7.602 -1.8452 -1.8262 -2.3328
   33CHL1  H12B 2401   1.981   3.208   7.544  1.9738  0.2438 -3.4692
   33CHL1   C11 2402   1.915   3.066   7.393  0.5798  0.3013  0.2804
   33CHL1  H11A 2403   1.896   2.957   7.401  1.2422  0.3127  2.8349
   33CHL1  H11B 2404   1.821   3.126   7.388  1.4911  1.8640  1.1116
   33CHL1    C9 2405   2.002   3.111   7.276  0.1039  0.4407  0.2059
   33CHL1    H9 2406   2.003   3.222   7.280 -0.1188  0.4741  5.4612
   33CHL1   C10 2407   1.958   3.071   7.136  0.1997  0.2926 -0.1141
   33CHL1   C19 2408   1.949   2.918   7.126  0.1908 -0.2039  0.2325
   33CHL1  H19A 2409   1.877   2.872   7.198  0.6233  0.5291  1.1578
   33CHL1  H19B 2410   1.915   2.889   7.024 -1.0845 -0.2363  0.6473
   33CHL1  H19C 2411   2.047   2.870   7.146  1.4590  1.4090 -1.7658
   33CHL1    C1 2412   1.821   3.137   7.120  0.0783  0.4023 -0.5426
   33CHL1   H1A 2413   1.744   3.087   7.182 -0.8506  2.3854 -0.0203
   33CHL1   H1B 2414   1.821   3.238   7.164 -3.2017  0.3969 -0.2647
   33CHL1    C2 2415   1.757   3.136   6.980  0.0500 -0.1556  0.7592
   33CHL1   H2A 2416   1.655   3.179   6.983  0.4166  0.7379  1.1443
   33CHL1   H2B 2417   1.752   3.034   6.937 -0.7974 -0.3182  1.2129
   33CHL1   C20 2418   2.172   3.037   7.804  0.2132  0.3132 -0.2494
   33CHL1   H20 2419   2.063   3.021   7.813  0.0782  1.0934 -0.4291
   33CHL1   C21 2420   2.208   3.152   7.900 -0.3124 -0.1514  0.2583
   33CHL1  H21A 2421   2.162   3.127   7.998  0.8738 -0.4813  0.7510
   33CHL1  H21B 2422   2.163   3.248   7.867 -0.2782 -0.6275 -1.2647
   33CHL1  H21C 2423   2.318   3.151   7.912 -0.5215 -0.6531  2.7837
   33CHL1   C22 2424   2.232   2.906   7.844  0.3907 -0.2509 -0.0326
   33CHL1  H22A 2425   2.187   2.827   7.779  0.9550 -1.3027  0.8212
   33CHL1  H22B 2426   2.341   2.897   7.826  0.5432 -0.0332  0.7809
   33CHL1   C23 2427   2.211   2.860   7.993 -0.1906  0.3672  0.4230
   33CHL1  H23A 2428   2.268   2.765   7.998  0.5234  0.7864  0.3818
   33CHL1  H23B 2429   2.254   2.934   8.064  2.2025 -1.6483  1.2272
   33CHL1   C24 2430   2.076   2.824   8.023  0.2650  0.1437 -0.2985
   33CHL1  H24A 2431   2.014   2.916   8.016 -1.7635 -1.0507  0.9082
   33CHL1  H24B 2432   2.046   2.754   7.942 -0.5426 -1.0086  0.9552
   33CHL1   C25 2433   2.041   2.761   8.166 -0.5511 -0.7218  0.0856
   33CHL1   H25 2434   2.090   2.662   8.179  0.0798 -0.8020 -2.3503
   33CHL1   C26 2435   2.091   2.856   8.277  0.5962  0.0232 -0.3201
   33CHL1  H26A 2436   2.042   2.956   8.272 -0.7104 -0.4436  1.9149
   33CHL1  H26B 2437   2.063   2.810   8.374  1.7240 -0.7223 -0.3240
   33CHL1  H26C 2438   2.202   2.860   8.275  0.5554  0.8694 -1.5488
   33CHL1   C27 2439   1.885   2.742   8.172  0.3368  0.4704 -0.1150
   33CHL1  H27A 2440   1.844   2.679   8.091 -1.2796  0.8154  0.4008
   33CHL1  H27B 2441   1.836   2.706   8.265 -2.8966 -0.5214 -2.0696
   33CHL1  H27C 2442   1.838   2.840   8.152 -4.5245 -1.5502  0.0715
   34CHL1    C3 2443   1.087   2.991   7.084 -0.0562  0.3793  0.0128
   34CHL1    H3 2444   1.025   3.045   7.158  0.8653  1.0371  0.3243
   34CHL1    O3 2445   1.020   2.998   6.962  0.4081  0.0925  0.7327
   34CHL1   H3' 2446   1.074   2.946   6.901  0.6772  0.1296  0.9368
   34CHL1    C4 2447   1.226   3.055   7.071  0.7941  0.0691 -0.8700
   34CHL1   H4A 2448   1.285   2.990   7.002  4.5216 -0.0861  2.1366
   34CHL1   H4B 2449   1.212   3.159   7.035 -1.1475  0.2996  0.3874
   34CHL1    C5 2450   1.282   3.046   7.212  0.2722  0.9783  0.1254
   34CHL1    C6 2451   1.325   3.149   7.286 -0.9404 -0.5412  0.6901
   34CHL1    H6 2452   1.323   3.246   7.235  1.1823 -1.6468 -1.7025
   34CHL1    C7 2453   1.388   3.139   7.425 -1.2674 -0.1124 -0.0217
   34CHL1   H7A 2454   1.481   3.199   7.419 -2.2809  1.6360  0.6422
   34CHL1   H7B 2455   1.315   3.184   7.497 -2.4999 -2.8905  0.5880
   34CHL1    C8 2456   1.426   2.995   7.469 -0.1413 -0.7384 -0.0796
   34CHL1    H8 2457   1.523   2.962   7.425 -0.2662 -0.7894 -0.3186
   34CHL1   C14 2458   1.439   3.000   7.623  0.0989 -1.2360  0.6940
   34CHL1   H14 2459   1.339   3.023   7.666  0.8599  0.5158  1.5895
   34CHL1   C15 2460   1.543   3.103   7.684 -0.6291 -0.0398 -0.6609
   34CHL1  H15A 2461   1.645   3.101   7.641 -0.4850 -1.0158 -0.2902
   34CHL1  H15B 2462   1.506   3.208   7.681  0.5845  0.3801 -1.4587
   34CHL1   C16 2463   1.551   3.051   7.827  0.1219  1.0832  0.3233
   34CHL1  H16A 2464   1.653   3.038   7.869 -0.2015 -2.0729  0.3916
   34CHL1  H16B 2465   1.490   3.117   7.893  1.1859 -0.2633  2.8069
   34CHL1   C17 2466   1.483   2.913   7.834  0.8292  0.3984 -0.1520
   34CHL1   H17 2467   1.376   2.934   7.854  0.0914 -2.3701 -0.6561
   34CHL1   C13 2468   1.470   2.872   7.690  0.4125  0.2040 -0.0814
   34CHL1   C18 2469   1.598   2.804   7.636  0.2694  0.4871 -0.0096
   34CHL1  H18A 2470   1.683   2.874   7.651  0.4712  0.0818  0.7834
   34CHL1  H18B 2471   1.615   2.702   7.677  2.7174  0.7613 -0.1884
   34CHL1  H18C 2472   1.596   2.786   7.527 -0.5459  1.6045 -0.1950
   34CHL1   C12 2473   1.341   2.786   7.659 -0.0777 -1.0383  0.1523
   34CHL1  H12A 2474   1.360   2.692   7.715 -0.2046 -1.5689 -0.6925
   34CHL1  H12B 2475   1.253   2.837   7.706 -1.1466 -0.9125 -1.8706
   34CHL1   C11 2476   1.322   2.771   7.507 -0.0973 -0.1351  0.0181
   34CHL1  H11A 2477   1.408   2.711   7.470  0.9114  0.3921  1.4211
   34CHL1  H11B 2478   1.226   2.716   7.493  0.1743 -0.2962 -1.3767
   34CHL1    C9 2479   1.313   2.909   7.433 -0.3244  0.0758 -0.2833
   34CHL1    H9 2480   1.226   2.965   7.473 -0.9850 -0.3079 -1.1516
   34CHL1   C10 2481   1.287   2.901   7.279  0.0356 -0.4800  0.2637
   34CHL1   C19 2482   1.397   2.816   7.209  0.1329  0.3323  0.0508
   34CHL1  H19A 2483   1.386   2.816   7.098 -0.0241  0.8582  0.0637
   34CHL1  H19B 2484   1.500   2.847   7.237  0.1346  1.1452 -0.7960
   34CHL1  H19C 2485   1.390   2.708   7.235 -0.5374  0.0867 -1.0459
   34CHL1    C1 2486   1.146   2.831   7.264 -0.3811 -0.2669  0.2548
   34CHL1   H1A 2487   1.168   2.724   7.283 -0.4379 -0.8347 -2.5672
   34CHL1   H1B 2488   1.068   2.869   7.334 -0.5885 -0.3857  0.0876
   34CHL1    C2 2489   1.091   2.849   7.125 -0.1338 -0.2521  0.0088
   34CHL1   H2A 2490   0.989   2.807   7.114 -0.5831  0.9620 -0.6652
   34CHL1   H2B 2491   1.156   2.784   7.062  1.0405  1.6025 -0.7729
   34CHL1   C20 2492   1.549   2.824   7.944 -0.2641  0.2877 -0.3883
   34CHL1   H20 2493   1.648   2.789   7.906 -0.2862  0.5500 -0.6987
   34CHL1   C21 2494   1.469   2.695   7.979 -0.2052  0.0884 -0.0679
   34CHL1  H21A 2495   1.518   2.638   8.061  1.8782  1.7629 -0.0682
   34CHL1  H21B 2496   1.464   2.636   7.885  1.0856  1.2136 -0.8845
   34CHL1  H21C 2497   1.367   2.717   8.016 -0.7130 -1.4635 -0.4512
   34CHL1   C22 2498   1.583   2.890   8.080  0.4872  0.0958  0.2758
   34CHL1  H22A 2499   1.637   2.815   8.142  0.7475 -0.4497 -0.5968
   34CHL1  H22B 2500   1.646   2.981   8.080  1.8278 -0.7865  1.3360
   34CHL1   C23 2501   1.463   2.941   8.165  0.2034  0.2442 -0.1933
   34CHL1  H23A 2502   1.405   3.026   8.122  0.1533  1.3955  2.0186
   34CHL1  H23B 2503   1.390   2.858   8.173  1.6501 -0.8576  3.7893
   34CHL1   C24 2504   1.503   2.995   8.308  0.0723 -0.4232 -0.2491
   34CHL1  H24A 2505   1.560   2.914   8.357 -1.5121 -0.7544  1.1197
   34CHL1  H24B 2506   1.577   3.077   8.302  0.3853 -0.6179  0.7933
   34CHL1   C25 2507   1.381   3.023   8.398 -0.6547 -0.7710  0.8056
   34CHL1   H25 2508   1.316   3.087   8.335 -0.3772  1.4464  2.6438
   34CHL1   C26 2509   1.307   2.897   8.438 -0.1165 -0.1173  0.2682
   34CHL1  H26A 2510   1.236   2.930   8.516 -0.5561  0.3153 -0.3111
   34CHL1  H26B 2511   1.251   2.836   8.364 -1.9300  0.2192  1.3054
   34CHL1  H26C 2512   1.376   2.833   8.498  0.3109  0.3367  0.2666
   34CHL1   C27 2513   1.420   3.098   8.527 -0.1078 -0.4241  0.0152
   34CHL1  H27A 2514   1.486   3.173   8.481  1.1268 -1.5200 -0.0474
   34CHL1  H27B 2515   1.332   3.147   8.574  0.4447  1.5486 -0.9233
   34CHL1  H27C 2516   1.470   3.036   8.604 -2.9290 -0.3059  2.1396
   35CHL1    C3 2517   5.023   3.369   7.023  0.5285 -0.6704 -0.5605
   35CHL1    H3 2518   4.981   3.267   7.034 -1.9711 -0.2277 -4.1956
   35CHL1    O3 2519   4.964   3.411   6.902  0.0381  0.0852  0.0411
   35CHL1   H3' 2520   5.035   3.406   6.837 -0.1006 -1.5724 -0.0237
   35CHL1    C4 2521   4.974   3.460   7.125  1.0306  0.6613  0.4968
   35CHL1   H4A 2522   5.011   3.553   7.077  0.0500 -0.4217 -2.5994
   35CHL1   H4B 2523   4.863   3.466   7.131  0.9401  1.7748 -1.5883
   35CHL1    C5 2524   5.026   3.451   7.271 -0.3273  0.1718  1.0655
   35CHL1    C6 2525   4.941   3.452   7.375 -0.1976  0.3596 -0.4256
   35CHL1    H6 2526   4.833   3.458   7.356 -0.1882  1.5426 -0.1774
   35CHL1    C7 2527   4.987   3.467   7.524 -0.4249 -0.4306 -0.3625
   35CHL1   H7A 2528   4.939   3.550   7.581  1.7996  1.4425 -1.0687
   35CHL1   H7B 2529   4.968   3.369   7.573 -0.1081 -1.0974 -1.5352
   35CHL1    C8 2530   5.141   3.501   7.531 -0.4303  0.0866  0.5928
   35CHL1    H8 2531   5.147   3.612   7.521  0.0780 -0.0882 -1.8060
   35CHL1   C14 2532   5.193   3.459   7.668 -0.4116 -0.0592  0.1686
   35CHL1   H14 2533   5.185   3.349   7.671  0.8781 -0.2374 -1.2802
   35CHL1   C15 2534   5.108   3.506   7.787  0.3212 -0.8597 -0.6654
   35CHL1  H15A 2535   5.079   3.612   7.770  0.3391 -0.7380  0.0310
   35CHL1  H15B 2536   5.018   3.445   7.809  1.1095 -1.3972  1.2555
   35CHL1   C16 2537   5.200   3.501   7.903 -0.0906 -0.4641  0.4198
   35CHL1  H16A 2538   5.218   3.605   7.940  0.4319  0.2174 -1.5840
   35CHL1  H16B 2539   5.176   3.436   7.990  0.2763 -0.2746  0.6658
   35CHL1   C17 2540   5.345   3.453   7.840  0.0604 -0.1841 -0.2492
   35CHL1   H17 2541   5.348   3.342   7.839 -0.6505 -0.2002 -1.2204
   35CHL1   C13 2542   5.342   3.492   7.693 -0.0504 -0.7482 -0.5579
   35CHL1   C18 2543   5.373   3.640   7.678  0.3674 -0.4186 -0.5070
   35CHL1  H18A 2544   5.341   3.674   7.578 -0.9962  1.4438  0.5017
   35CHL1  H18B 2545   5.329   3.700   7.760  0.4537 -1.1433  0.0905
   35CHL1  H18C 2546   5.480   3.668   7.691  0.5358 -0.9364 -0.7517
   35CHL1   C12 2547   5.424   3.407   7.595 -0.6515 -0.1698  0.1955
   35CHL1  H12A 2548   5.531   3.435   7.606 -1.0235  1.8154 -0.8084
   35CHL1  H12B 2549   5.404   3.302   7.626  3.1785 -0.9937  0.3122
   35CHL1   C11 2550   5.381   3.438   7.446  1.0712 -0.0350 -0.2472
   35CHL1  H11A 2551   5.425   3.533   7.410  0.3281 -0.3514 -2.0521
   35CHL1  H11B 2552   5.427   3.358   7.385 -0.0249 -0.4676 -0.5291
   35CHL1    C9 2553   5.226   3.430   7.420  0.0363  0.1266  0.5215
   35CHL1    H9 2554   5.201   3.323   7.433 -0.9611 -0.0181 -2.0212
   35CHL1   C10 2555   5.174   3.463   7.276 -0.1207  0.3809 -0.3194
   35CHL1   C19 2556   5.224   3.597   7.240 -0.1165 -0.5711  0.4545
   35CHL1  H19A 2557   5.335   3.609   7.242 -0.1667  0.2669 -0.5145
   35CHL1  H19B 2558   5.194   3.633   7.139 -2.9444  0.7323  1.6568
   35CHL1  H19C 2559   5.185   3.680   7.303  0.6237 -0.4137  0.7193
   35CHL1    C1 2560   5.226   3.358   7.174  0.0625  0.4025 -0.5599
   35CHL1   H1A 2561   5.337   3.350   7.179  0.0945  1.3243  0.7348
   35CHL1   H1B 2562   5.191   3.259   7.210  0.8881 -0.1368 -1.2159
   35CHL1    C2 2563   5.178   3.368   7.031  0.3501 -0.1886 -0.0604
   35CHL1   H2A 2564   5.221   3.293   6.961  1.5763  1.9797 -1.7802
   35CHL1   H2B 2565   5.212   3.466   6.990  0.4170 -0.8058 -1.5639
   35CHL1   C20 2566   5.463   3.491   7.927 -0.5858 -0.2039 -0.0379
   35CHL1   H20 2567   5.480   3.601   7.914  0.1948 -0.2000  0.9220
   35CHL1   C21 2568   5.593   3.432   7.873 -0.0560  0.2115  0.2618
   35CHL1  H21A 2569   5.579   3.327   7.839  2.3995 -0.8666  2.2944
   35CHL1  H21B 2570   5.676   3.442   7.946  0.1687 -0.7566  0.1519
   35CHL1  H21C 2571   5.627   3.502   7.793  1.3882  1.5879  1.9836
   35CHL1   C22 2572   5.440   3.461   8.075  1.0880 -0.3908  0.8899
   35CHL1  H22A 2573   5.369   3.541   8.105  0.1403 -1.2038  0.8945
   35CHL1  H22B 2574   5.376   3.371   8.088 -1.7803  1.4768  0.6645
   35CHL1   C23 2575   5.558   3.473   8.169 -0.0338  0.1303 -0.0335
   35CHL1  H23A 2576   5.624   3.386   8.150  0.1279  0.1565  0.4104
   35CHL1  H23B 2577   5.610   3.571   8.161  0.6269 -0.1205  1.0433
   35CHL1   C24 2578   5.510   3.465   8.318 -1.1206  0.3325  0.5673
   35CHL1  H24A 2579   5.457   3.561   8.339 -0.2816  1.1590 -0.9398
   35CHL1  H24B 2580   5.435   3.384   8.325  1.3061 -2.0585  0.5026
   35CHL1   C25 2581   5.626   3.444   8.420  0.0364 -0.1170  0.0750
   35CHL1   H25 2582   5.679   3.351   8.390 -0.0507  0.1146 -0.8054
   35CHL1   C26 2583   5.725   3.559   8.427 -0.2411 -0.0254  0.2103
   35CHL1  H26A 2584   5.663   3.644   8.463  1.6605  0.9911  1.2672
   35CHL1  H26B 2585   5.804   3.533   8.500  0.0489 -1.8036 -0.6843
   35CHL1  H26C 2586   5.756   3.582   8.323 -0.2247 -1.2218 -0.0661
   35CHL1   C27 2587   5.571   3.423   8.565  0.2034  0.1068 -0.2582
   35CHL1  H27A 2588   5.516   3.514   8.597  1.7486  0.5419  1.3010
   35CHL1  H27B 2589   5.651   3.402   8.639  0.2007  1.3855  0.1281
   35CHL1  H27C 2590   5.499   3.338   8.562 -0.3877  0.6234 -2.2266
   36CHL1    C3 2591   4.215   2.100   6.827  0.2346  0.4951 -0.4418
   36CHL1    H3 2592   4.292   2.181   6.833 -0.8023  1.4079  1.1934
   36CHL1    O3 2593   4.182   2.097   6.691 -0.3217  0.1247 -0.2212
   36CHL1   H3' 2594   4.135   2.178   6.670 -5.3687 -1.9602  1.2582
   36CHL1    C4 2595   4.276   1.967   6.875 -0.0861  0.2027  0.4668
   36CHL1   H4A 2596   4.205   1.883   6.855 -1.9379  1.1711  2.5878
   36CHL1   H4B 2597   4.356   1.929   6.807  1.1029  0.7659  1.5189
   36CHL1    C5 2598   4.311   1.968   7.024 -0.6331 -0.3122 -0.2498
   36CHL1    C6 2599   4.437   1.952   7.057 -0.3438  0.0109 -0.3318
   36CHL1    H6 2600   4.509   1.924   6.979  1.1341  2.0695  0.2224
   36CHL1    C7 2601   4.492   1.956   7.201 -0.2085 -0.2577 -0.2334
   36CHL1   H7A 2602   4.563   1.874   7.225  0.1292  0.0547 -0.1557
   36CHL1   H7B 2603   4.546   2.052   7.214 -0.2883 -0.3474  0.8392
   36CHL1    C8 2604   4.378   1.952   7.301 -0.6443  0.5295 -0.8729
   36CHL1    H8 2605   4.344   1.848   7.319  2.1557 -0.1265  1.5223
   36CHL1   C14 2606   4.426   1.999   7.444 -0.1744  0.2330 -0.1467
   36CHL1   H14 2607   4.481   2.093   7.423 -1.7224  1.5805  1.5778
   36CHL1   C15 2608   4.538   1.916   7.517 -0.4672  1.0337 -0.1696
   36CHL1  H15A 2609   4.497   1.813   7.523 -2.7670  1.9660  1.4337
   36CHL1  H15B 2610   4.630   1.931   7.456 -1.0016 -0.1295 -1.3221
   36CHL1   C16 2611   4.537   1.971   7.662 -0.4148 -1.1776 -0.3772
   36CHL1  H16A 2612   4.543   1.888   7.735  1.6665  0.5191  1.5345
   36CHL1  H16B 2613   4.628   2.029   7.688 -1.1848  1.5625 -3.1420
   36CHL1   C17 2614   4.410   2.059   7.674  0.9972 -0.5587  0.1551
   36CHL1   H17 2615   4.446   2.164   7.664  1.4634 -0.5572  1.6040
   36CHL1   C13 2616   4.320   2.028   7.551 -0.7351  0.1222  0.0864
   36CHL1   C18 2617   4.248   1.892   7.581  0.3478 -0.1751 -0.1366
   36CHL1  H18A 2618   4.316   1.817   7.625 -1.3066 -0.8671  1.3739
   36CHL1  H18B 2619   4.162   1.913   7.649 -0.3781  1.3122 -1.4198
   36CHL1  H18C 2620   4.204   1.858   7.484 -2.4527  3.3665 -0.3229
   36CHL1   C12 2621   4.229   2.133   7.501  0.3119  0.1828 -0.1036
   36CHL1  H12A 2622   4.152   2.165   7.575  1.6141 -0.2417  1.4855
   36CHL1  H12B 2623   4.288   2.225   7.482  1.1434 -0.1488  0.8197
   36CHL1   C11 2624   4.160   2.090   7.366 -0.1213 -1.1632  0.3853
   36CHL1  H11A 2625   4.086   2.011   7.393 -0.2798 -1.4308 -0.7498
   36CHL1  H11B 2626   4.097   2.176   7.334 -1.3752 -0.5441  4.1244
   36CHL1    C9 2627   4.262   2.047   7.256  0.2409 -0.0991  0.4529
   36CHL1    H9 2628   4.315   2.140   7.226 -1.8111  0.4899 -1.6693
   36CHL1   C10 2629   4.195   2.008   7.126 -0.1807  0.0628 -0.0530
   36CHL1   C19 2630   4.106   1.878   7.149 -0.3711 -0.0702  0.3986
   36CHL1  H19A 2631   4.166   1.800   7.200  0.6913  0.6780  0.3335
   36CHL1  H19B 2632   4.016   1.917   7.200 -0.2846  2.8661 -1.4086
   36CHL1  H19C 2633   4.071   1.845   7.049 -0.5161 -0.6484  0.6349
   36CHL1    C1 2634   4.116   2.129   7.068 -0.1624  0.9285 -0.0696
   36CHL1   H1A 2635   4.019   2.127   7.121 -0.2328  0.7138 -0.2081
   36CHL1   H1B 2636   4.165   2.220   7.109 -0.9377 -0.2251  3.8144
   36CHL1    C2 2637   4.095   2.131   6.912  1.1015  0.3611 -0.5099
   36CHL1   H2A 2638   4.051   2.232   6.896 -2.0001 -1.0209 -1.5408
   36CHL1   H2B 2639   4.012   2.062   6.887 -0.1160  1.8491 -0.7286
   36CHL1   C20 2640   4.341   2.046   7.814 -0.0232  0.3365 -0.2916
   36CHL1   H20 2641   4.299   1.943   7.825 -2.6233  1.3481 -0.1224
   36CHL1   C21 2642   4.221   2.141   7.816  0.4010  0.1565 -0.0923
   36CHL1  H21A 2643   4.129   2.116   7.759  0.1693  2.1556 -0.6615
   36CHL1  H21B 2644   4.247   2.245   7.787  1.7489  0.5688  2.3307
   36CHL1  H21C 2645   4.188   2.152   7.921  0.3725 -0.4745 -0.0293
   36CHL1   C22 2646   4.438   2.073   7.933  0.0534  0.2353  0.1792
   36CHL1  H22A 2647   4.376   2.062   8.024 -3.1515  1.6301 -1.6546
   36CHL1  H22B 2648   4.513   1.991   7.940  0.4865  0.7437  2.0070
   36CHL1   C23 2649   4.509   2.206   7.946  0.3197  0.0129 -0.0511
   36CHL1  H23A 2650   4.582   2.206   7.862  0.0599 -1.0526 -0.2909
   36CHL1  H23B 2651   4.428   2.281   7.955 -1.0210 -1.3986  0.0055
   36CHL1   C24 2652   4.587   2.210   8.080 -0.6412  0.5078  0.2272
   36CHL1  H24A 2653   4.515   2.173   8.155  1.5903 -2.0470  1.2397
   36CHL1  H24B 2654   4.663   2.131   8.069  1.4267  2.4515 -0.1928
   36CHL1   C25 2655   4.655   2.341   8.115 -0.3199 -0.2755  0.0602
   36CHL1   H25 2656   4.579   2.421   8.127 -0.6435 -0.6659  0.6817
   36CHL1   C26 2657   4.714   2.307   8.251  0.2867 -1.2199 -0.4999
   36CHL1  H26A 2658   4.749   2.202   8.261 -1.0853 -1.5570  1.1926
   36CHL1  H26B 2659   4.802   2.372   8.271  0.9534 -2.2676  0.0893
   36CHL1  H26C 2660   4.637   2.318   8.330  1.7483  2.8114  0.6091
   36CHL1   C27 2661   4.761   2.387   8.014 -0.0791  0.0658  0.0815
   36CHL1  H27A 2662   4.723   2.365   7.911 -1.7640 -0.5156  0.7894
   36CHL1  H27B 2663   4.786   2.492   8.039  0.1580 -0.1580  0.7928
   36CHL1  H27C 2664   4.852   2.325   8.029 -0.1272 -0.6480 -2.1594
   37CHL1    C3 2665   1.510   5.392   6.727 -0.8421  0.4616 -0.6445
   37CHL1    H3 2666   1.445   5.482   6.727 -0.4450  1.0394  4.4170
   37CHL1    O3 2667   1.533   5.337   6.599  0.4338 -0.3929 -0.1174
   37CHL1   H3' 2668   1.446   5.311   6.569 -0.9033  1.6574  1.6754
   37CHL1    C4 2669   1.645   5.422   6.789 -0.3353  0.6340  0.2560
   37CHL1   H4A 2670   1.696   5.323   6.786  0.6646  1.1578 -2.0829
   37CHL1   H4B 2671   1.703   5.479   6.714 -1.0171  0.8783 -0.0938
   37CHL1    C5 2672   1.636   5.472   6.932 -0.0409  0.3976 -0.0566
   37CHL1    C6 2673   1.693   5.584   6.975  0.1430  0.2254 -0.1834
   37CHL1    H6 2674   1.758   5.643   6.909 -0.3119  1.2972  0.3048
   37CHL1    C7 2675   1.702   5.622   7.120  0.6359 -0.0696  0.4450
   37CHL1   H7A 2676   1.809   5.645   7.138  0.7125 -0.2425  0.2189
   37CHL1   H7B 2677   1.642   5.713   7.139  0.4458 -0.0041 -0.3977
   37CHL1    C8 2678   1.645   5.514   7.215  0.3433  0.0266  1.2154
   37CHL1    H8 2679   1.730   5.447   7.241 -1.3910 -2.1373  1.6632
   37CHL1   C14 2680   1.616   5.579   7.350 -0.4856  0.6497  0.2184
   37CHL1   H14 2681   1.536   5.656   7.336  0.7204  2.0424  0.7444
   37CHL1   C15 2682   1.730   5.662   7.412 -0.9320  0.6544  0.2290
   37CHL1  H15A 2683   1.821   5.598   7.416 -0.5382  1.2161  0.4414
   37CHL1  H15B 2684   1.757   5.757   7.361  1.5576 -0.3695 -0.5473
   37CHL1   C16 2685   1.672   5.690   7.554 -0.6221 -0.6086 -0.6888
   37CHL1  H16A 2686   1.747   5.664   7.631  2.9182  4.1400 -2.0164
   37CHL1  H16B 2687   1.647   5.798   7.560  0.6705 -0.3203 -0.1804
   37CHL1   C17 2688   1.550   5.592   7.580  0.2991  0.0988  0.9541
   37CHL1   H17 2689   1.458   5.653   7.565 -0.2930 -0.1425  3.1991
   37CHL1   C13 2690   1.560   5.492   7.465  0.3100 -0.5663  0.4931
   37CHL1   C18 2691   1.660   5.378   7.503  0.4521  0.7101 -0.4114
   37CHL1  H18A 2692   1.621   5.315   7.586 -0.4096  0.1416 -1.2304
   37CHL1  H18B 2693   1.686   5.318   7.414  1.2108  2.1748 -1.2116
   37CHL1  H18C 2694   1.761   5.417   7.526  2.4355 -2.1542 -3.4085
   37CHL1   C12 2695   1.430   5.425   7.404  0.3454 -0.3076 -0.5211
   37CHL1  H12A 2696   1.393   5.353   7.480 -2.1304 -1.2958 -2.5437
   37CHL1  H12B 2697   1.339   5.487   7.393 -0.3695 -1.1118  0.6680
   37CHL1   C11 2698   1.446   5.354   7.267  0.3344  0.1472  0.2465
   37CHL1  H11A 2699   1.499   5.258   7.284  1.0779  0.9515  2.8776
   37CHL1  H11B 2700   1.344   5.327   7.233  1.1817 -2.1829 -0.6442
   37CHL1    C9 2701   1.523   5.446   7.155 -0.1930  0.1710  0.3712
   37CHL1    H9 2702   1.456   5.532   7.136  0.7699  1.0687  0.9384
   37CHL1   C10 2703   1.558   5.377   7.019  0.1225  0.0339 -0.0553
   37CHL1   C19 2704   1.635   5.251   7.053  0.5638 -0.1112  0.1226
   37CHL1  H19A 2705   1.714   5.227   6.979  1.1670  3.2285 -0.4531
   37CHL1  H19B 2706   1.687   5.242   7.150 -0.3542 -1.3136  0.5363
   37CHL1  H19C 2707   1.556   5.174   7.070  0.1069 -0.1322 -1.8216
   37CHL1    C1 2708   1.416   5.341   6.953 -0.0776  0.0143 -0.0290
   37CHL1   H1A 2709   1.354   5.266   7.006  0.7670 -1.2850 -0.8215
   37CHL1   H1B 2710   1.364   5.439   6.958  0.6389  0.3616  1.2228
   37CHL1    C2 2711   1.432   5.295   6.816  0.0673  0.4279  0.6772
   37CHL1   H2A 2712   1.336   5.273   6.763 -0.7664  2.7278  1.0988
   37CHL1   H2B 2713   1.481   5.195   6.817 -0.6601  0.0652  1.5318
   37CHL1   C20 2714   1.527   5.548   7.722  0.4357 -0.4244  0.2963
   37CHL1   H20 2715   1.621   5.490   7.739  0.2648 -1.3772 -1.6855
   37CHL1   C21 2716   1.410   5.453   7.740 -0.3581 -0.1006 -0.4330
   37CHL1  H21A 2717   1.420   5.357   7.686  0.2141 -1.9482  2.7089
   37CHL1  H21B 2718   1.311   5.494   7.713 -0.5703 -0.8200 -0.7563
   37CHL1  H21C 2719   1.396   5.425   7.847  0.2546 -1.5243 -0.7080
   37CHL1   C22 2720   1.510   5.665   7.823 -0.3182  0.7884 -0.4615
   37CHL1  H22A 2721   1.543   5.757   7.769  1.6454  0.2486 -0.2423
   37CHL1  H22B 2722   1.400   5.678   7.838 -0.4462  0.8528 -1.4035
   37CHL1   C23 2723   1.584   5.649   7.960  0.2229 -0.2760  0.8599
   37CHL1  H23A 2724   1.553   5.549   7.998  0.4571 -0.7144 -0.0756
   37CHL1  H23B 2725   1.694   5.657   7.954  0.1404  0.5740  0.3476
   37CHL1   C24 2726   1.534   5.747   8.061  0.1383  0.0348 -0.1018
   37CHL1  H24A 2727   1.550   5.855   8.045  0.0271  0.0950  0.1983
   37CHL1  H24B 2728   1.423   5.738   8.068  0.2148 -1.2452 -0.2174
   37CHL1   C25 2729   1.593   5.722   8.200  0.0942 -0.1699 -0.2409
   37CHL1   H25 2730   1.600   5.613   8.221  1.5460  0.2223  1.5786
   37CHL1   C26 2731   1.724   5.801   8.209 -0.1880  0.5506  0.1107
   37CHL1  H26A 2732   1.779   5.782   8.303 -1.1656 -0.4575  0.4976
   37CHL1  H26B 2733   1.794   5.765   8.131  1.5290  0.7904  1.4849
   37CHL1  H26C 2734   1.717   5.912   8.198  1.0011  0.4466 -2.6576
   37CHL1   C27 2735   1.496   5.763   8.316 -0.8423 -0.1808  0.4432
   37CHL1  H27A 2736   1.394   5.721   8.307 -1.3584  0.6999  1.9224
   37CHL1  H27B 2737   1.542   5.734   8.413 -0.5882 -0.3660  0.2666
   37CHL1  H27C 2738   1.490   5.872   8.292  2.9888  0.0766 -0.0511
   38CHL1    C3 2739   5.402   0.080   6.657 -0.2649  0.2642  0.2234
   38CHL1    H3 2740   5.507   0.043   6.662  0.3820  1.6887 -1.6387
   38CHL1    O3 2741   5.391   0.169   6.548  0.9661 -0.3208  0.0910
   38CHL1   H3' 2742   5.298   0.181   6.529  1.4300  0.7184 -1.8091
   38CHL1    C4 2743   5.317  -0.048   6.637 -0.2596  0.2400 -0.7040
   38CHL1   H4A 2744   5.216  -0.016   6.607 -1.8747 -3.2499  0.4468
   38CHL1   H4B 2745   5.348  -0.104   6.546  0.0107 -1.3078  0.3043
   38CHL1    C5 2746   5.319  -0.144   6.755  0.6364  0.1748 -0.2469
   38CHL1    C6 2747   5.366  -0.272   6.755  0.3464  0.8211  0.2321
   38CHL1    H6 2748   5.395  -0.315   6.658 -2.0788  1.3317 -0.8041
   38CHL1    C7 2749   5.353  -0.369   6.872 -0.4372 -0.1488  0.1924
   38CHL1   H7A 2750   5.309  -0.458   6.822  0.8152  0.2731 -1.7694
   38CHL1   H7B 2751   5.454  -0.393   6.910  0.1296  2.0533  0.2159
   38CHL1    C8 2752   5.266  -0.322   6.987 -0.2488 -0.2136  0.6375
   38CHL1    H8 2753   5.156  -0.328   6.973 -0.3353  1.9070  0.1608
   38CHL1   C14 2754   5.308  -0.404   7.111 -0.1809 -0.0980 -0.4593
   38CHL1   H14 2755   5.414  -0.379   7.129 -0.5705  1.0801  0.3338
   38CHL1   C15 2756   5.294  -0.556   7.107  0.2854  0.2095 -0.1731
   38CHL1  H15A 2757   5.203  -0.579   7.049  0.1272  0.1227  0.1086
   38CHL1  H15B 2758   5.373  -0.606   7.047  1.0274  1.0897  0.0505
   38CHL1   C16 2759   5.287  -0.594   7.259  0.8883  0.0774 -0.6686
   38CHL1  H16A 2760   5.198  -0.659   7.270  2.1890 -1.8899 -1.3621
   38CHL1  H16B 2761   5.375  -0.651   7.294  2.1542  2.1237 -0.3332
   38CHL1   C17 2762   5.282  -0.460   7.336  0.5902  0.7476  0.2148
   38CHL1   H17 2763   5.390  -0.435   7.348  0.5971  1.5486 -1.2878
   38CHL1   C13 2764   5.228  -0.359   7.234 -0.3045 -0.2036 -0.2728
   38CHL1   C18 2765   5.078  -0.392   7.219  0.2548  0.8682  0.0926
   38CHL1  H18A 2766   5.027  -0.348   7.307 -0.7307 -0.9077  0.4365
   38CHL1  H18B 2767   5.041  -0.349   7.124  2.8345  2.5601 -0.2529
   38CHL1  H18C 2768   5.060  -0.501   7.227  0.6111  0.5653 -2.3804
   38CHL1   C12 2769   5.246  -0.205   7.262  0.6976 -0.2794 -0.1167
   38CHL1  H12A 2770   5.181  -0.168   7.344  0.1826  0.3664 -0.8036
   38CHL1  H12B 2771   5.352  -0.197   7.296  1.0897 -0.6045 -1.2270
   38CHL1   C11 2772   5.211  -0.128   7.141  0.3345 -0.0631  0.7465
   38CHL1  H11A 2773   5.100  -0.123   7.134  0.1733 -1.4206  1.9566
   38CHL1  H11B 2774   5.248  -0.025   7.157 -2.8038  1.6772 -2.0203
   38CHL1    C9 2775   5.285  -0.178   7.020 -0.4591  0.3813  0.5053
   38CHL1    H9 2776   5.393  -0.168   7.044  0.2916  0.6542 -2.4986
   38CHL1   C10 2777   5.260  -0.089   6.888  0.2475 -0.5581  0.3594
   38CHL1   C19 2778   5.106  -0.069   6.871  0.4963 -0.3956  0.1913
   38CHL1  H19A 2779   5.059  -0.016   6.957 -1.5131  0.2128 -1.2029
   38CHL1  H19B 2780   5.101  -0.005   6.781  1.9320  0.0715  0.4087
   38CHL1  H19C 2781   5.053  -0.165   6.855  0.1701 -0.2529  0.4004
   38CHL1    C1 2782   5.337   0.049   6.901  0.3448  0.1583 -0.3117
   38CHL1   H1A 2783   5.288   0.109   6.980  1.2479  0.6767 -0.1232
   38CHL1   H1B 2784   5.433   0.019   6.949 -0.6722  1.1140  2.5108
   38CHL1    C2 2785   5.349   0.145   6.784 -0.5263 -0.2063  0.2468
   38CHL1   H2A 2786   5.422   0.226   6.806 -1.5829  1.6558 -2.5865
   38CHL1   H2B 2787   5.255   0.201   6.764  0.9257  2.3187  0.0742
   38CHL1   C20 2788   5.225  -0.444   7.478 -0.2000  0.0733 -0.0836
   38CHL1   H20 2789   5.116  -0.422   7.472 -0.2786 -0.4083 -0.5460
   38CHL1   C21 2790   5.296  -0.336   7.558 -0.6480  0.4860 -0.2066
   38CHL1  H21A 2791   5.285  -0.232   7.518 -0.6361  2.3978  4.1767
   38CHL1  H21B 2792   5.403  -0.365   7.564 -0.5368  1.1401  1.4662
   38CHL1  H21C 2793   5.251  -0.324   7.658  0.3410 -1.9193  0.6020
   38CHL1   C22 2794   5.231  -0.585   7.554 -0.2258  0.4742  0.6863
   38CHL1  H22A 2795   5.180  -0.663   7.494 -2.9973  1.3055  1.8164
   38CHL1  H22B 2796   5.340  -0.608   7.557 -0.2513  0.1345 -0.4591
   38CHL1   C23 2797   5.165  -0.598   7.686  0.6515  0.5505  0.2288
   38CHL1  H23A 2798   5.139  -0.498   7.726  0.1238  0.2041  0.7576
   38CHL1  H23B 2799   5.068  -0.651   7.687  0.7199  0.4302  1.2124
   38CHL1   C24 2800   5.254  -0.672   7.788  0.0882  0.7371 -0.6552
   38CHL1  H24A 2801   5.270  -0.778   7.759 -2.6945 -0.3737  1.4358
   38CHL1  H24B 2802   5.352  -0.620   7.784 -0.7836  2.3770 -2.1885
   38CHL1   C25 2803   5.188  -0.671   7.935 -1.1071  0.7686  0.3832
   38CHL1   H25 2804   5.175  -0.566   7.968 -1.2084  0.1003  2.6489
   38CHL1   C26 2805   5.052  -0.745   7.940 -0.6589 -0.3671 -0.2640
   38CHL1  H26A 2806   4.973  -0.674   7.907  0.5043  1.9474  1.5878
   38CHL1  H26B 2807   5.061  -0.841   7.885  1.2542 -1.6469  2.0776
   38CHL1  H26C 2808   5.043  -0.777   8.046  2.2040  2.2998  0.9232
   38CHL1   C27 2809   5.277  -0.733   8.042  0.1067 -0.0243  0.4620
   38CHL1  H27A 2810   5.282  -0.843   8.027  2.4122 -0.1399  1.7246
   38CHL1  H27B 2811   5.383  -0.700   8.038  1.0216 -2.8191 -0.4091
   38CHL1  H27C 2812   5.237  -0.735   8.146 -4.4079 -0.9329 -1.0469
   39CHL1    C3 2813   5.215   3.920   7.030  0.1451 -0.0725  0.5413
   39CHL1    H3 2814   5.250   3.815   7.039 -1.5286 -0.6293  0.9984
   39CHL1    O3 2815   5.228   3.959   6.897  0.0425 -0.3605  0.5468
   39CHL1   H3' 2816   5.201   4.051   6.889  2.1604  0.2099 -0.6885
   39CHL1    C4 2817   5.061   3.935   7.061 -0.7037 -0.0938 -0.4994
   39CHL1   H4A 2818   5.024   4.033   7.024  1.5781  1.4327  1.0161
   39CHL1   H4B 2819   5.003   3.862   7.001  2.2923 -2.5162 -0.6976
   39CHL1    C5 2820   5.028   3.925   7.212 -0.6468  0.1171  0.2964
   39CHL1    C6 2821   4.927   3.847   7.252  0.4984 -0.2549  0.1227
   39CHL1    H6 2822   4.876   3.783   7.178 -0.3573 -0.8255  1.1718
   39CHL1    C7 2823   4.879   3.833   7.394 -0.3228  0.0280 -0.0482
   39CHL1   H7A 2824   4.769   3.853   7.394 -0.5386 -0.3065  3.8750
   39CHL1   H7B 2825   4.900   3.727   7.418 -0.9595  0.7766  5.0265
   39CHL1    C8 2826   4.956   3.933   7.490  1.1815 -0.1295 -0.0574
   39CHL1    H8 2827   4.910   4.034   7.492  0.6985 -0.3298 -0.7439
   39CHL1   C14 2828   4.956   3.875   7.632  0.5864  0.4692  0.6454
   39CHL1   H14 2829   5.026   3.789   7.626  1.5672  1.3319 -1.2008
   39CHL1   C15 2830   4.822   3.816   7.676 -0.9719  0.1146  0.0862
   39CHL1  H15A 2831   4.734   3.879   7.650  0.0787  0.3996 -3.1052
   39CHL1  H15B 2832   4.798   3.716   7.635 -1.0244  0.5519 -0.9708
   39CHL1   C16 2833   4.846   3.789   7.833  0.3309  0.4418 -0.3155
   39CHL1  H16A 2834   4.753   3.826   7.881  0.1236 -0.4645  0.0015
   39CHL1  H16B 2835   4.859   3.680   7.850 -0.4190  0.2430 -0.9408
   39CHL1   C17 2836   4.981   3.861   7.870 -0.4709  0.0027  0.4275
   39CHL1   H17 2837   5.064   3.787   7.872  0.2784  0.8121  0.0690
   39CHL1   C13 2838   5.007   3.958   7.749 -0.1292 -0.2449  0.0207
   39CHL1   C18 2839   4.926   4.088   7.765  0.8437  0.6511  0.2107
   39CHL1  H18A 2840   4.830   4.067   7.818  0.7382  0.4681 -0.0486
   39CHL1  H18B 2841   4.975   4.169   7.822  1.0864  0.9455 -0.4088
   39CHL1  H18C 2842   4.902   4.134   7.666 -4.2068 -2.2277 -0.2717
   39CHL1   C12 2843   5.155   3.990   7.713  0.8416  0.0694 -0.0708
   39CHL1  H12A 2844   5.214   4.054   7.782 -0.1037  2.4555 -1.3509
   39CHL1  H12B 2845   5.198   3.887   7.709  0.9930  0.1407 -0.2940
   39CHL1   C11 2846   5.171   4.041   7.567  0.1433 -0.5361 -0.1551
   39CHL1  H11A 2847   5.127   4.144   7.562 -0.0543 -0.6657 -1.1542
   39CHL1  H11B 2848   5.278   4.066   7.553  0.4853 -1.4451  0.7279
   39CHL1    C9 2849   5.105   3.954   7.454 -0.2321 -0.3923 -0.4943
   39CHL1    H9 2850   5.152   3.853   7.463  1.7850  0.5619  0.4144
   39CHL1   C10 2851   5.122   4.004   7.310 -0.4614 -0.1660  0.7354
   39CHL1   C19 2852   5.091   4.152   7.301 -0.5724  0.1685  0.2559
   39CHL1  H19A 2853   5.174   4.209   7.350 -0.4630  0.3797 -0.1714
   39CHL1  H19B 2854   5.094   4.197   7.200 -1.0396  0.1354  0.2270
   39CHL1  H19C 2855   4.989   4.170   7.341 -1.3305  1.0307 -1.9473
   39CHL1    C1 2856   5.279   3.986   7.272  0.0227 -0.6499  0.0021
   39CHL1   H1A 2857   5.342   4.048   7.340 -2.1691  1.7351  0.0089
   39CHL1   H1B 2858   5.320   3.883   7.277  2.6865  0.2472 -1.5066
   39CHL1    C2 2859   5.296   4.020   7.125 -0.4447 -0.5659  1.4639
   39CHL1   H2A 2860   5.403   4.000   7.103 -0.4440  0.8870 -0.0417
   39CHL1   H2B 2861   5.279   4.128   7.110 -2.7078 -1.0207  0.3224
   39CHL1   C20 2862   4.978   3.904   8.023  0.3962 -0.1798 -0.5020
   39CHL1   H20 2863   4.893   3.974   8.033  0.6394  0.2069 -1.1102
   39CHL1   C21 2864   5.119   3.959   8.060  0.7991  0.5890 -0.1658
   39CHL1  H21A 2865   5.126   3.971   8.171  4.3787 -2.2017  0.1331
   39CHL1  H21B 2866   5.139   4.051   8.002 -2.1033  1.6467  0.3689
   39CHL1  H21C 2867   5.198   3.887   8.029 -0.1429 -1.0055  0.9588
   39CHL1   C22 2868   4.945   3.785   8.121 -0.1551  0.0266  0.0958
   39CHL1  H22A 2869   4.845   3.745   8.096 -1.3725  1.9813  1.5562
   39CHL1  H22B 2870   5.025   3.708   8.120 -2.6120 -2.6775  0.3615
   39CHL1   C23 2871   4.922   3.828   8.269 -0.1092 -0.2177 -0.0434
   39CHL1  H23A 2872   5.025   3.840   8.308 -0.2833 -0.4605  0.4940
   39CHL1  H23B 2873   4.865   3.922   8.287 -0.3152 -0.3614  0.0581
   39CHL1   C24 2874   4.854   3.709   8.340  0.1334  0.7858  0.1906
   39CHL1  H24A 2875   4.757   3.678   8.297  0.7067 -0.8395  0.0030
   39CHL1  H24B 2876   4.918   3.620   8.322  0.7219  0.5640  2.8801
   39CHL1   C25 2877   4.835   3.721   8.493 -0.3736 -0.0791 -0.8317
   39CHL1   H25 2878   4.795   3.822   8.517  2.1816  0.4919  1.5668
   39CHL1   C26 2879   4.739   3.608   8.540 -0.4810  0.1520  0.6129
   39CHL1  H26A 2880   4.637   3.640   8.509 -0.0813 -0.6367 -1.7139
   39CHL1  H26B 2881   4.771   3.516   8.487  1.9770  1.0266  0.4555
   39CHL1  H26C 2882   4.746   3.591   8.649  1.4168  0.4746  0.5671
   39CHL1   C27 2883   4.972   3.710   8.564  0.1872 -0.3547 -0.1707
   39CHL1  H27A 2884   5.045   3.784   8.527 -0.8171 -0.2072 -1.9890
   39CHL1  H27B 2885   4.948   3.723   8.671 -1.0992  0.1624 -0.5018
   39CHL1  H27C 2886   5.022   3.611   8.554  3.2343  1.1075 -0.1903
   40CHL1    C3 2887   2.634   3.928   6.629 -0.1781  0.3799 -0.0237
   40CHL1    H3 2888   2.612   4.037   6.628  0.1931  0.4785  1.0046
   40CHL1    O3 2889   2.637   3.869   6.497 -0.1357  0.0628 -0.1119
   40CHL1   H3' 2890   2.676   3.938   6.443  0.1730  1.0136  1.2623
   40CHL1    C4 2891   2.773   3.911   6.684  0.1087 -0.6146  1.0443
   40CHL1   H4A 2892   2.804   3.807   6.663 -0.2046 -0.3887 -0.6539
   40CHL1   H4B 2893   2.850   3.964   6.624 -0.2390 -1.5687 -0.2993
   40CHL1    C5 2894   2.783   3.935   6.829 -0.0348  0.2974  0.1484
   40CHL1    C6 2895   2.873   4.025   6.876  0.0982  0.5534  0.4902
   40CHL1    H6 2896   2.944   4.076   6.810  0.1827 -0.4097 -0.1862
   40CHL1    C7 2897   2.897   4.050   7.024  0.2802 -0.3045 -0.2105
   40CHL1   H7A 2898   3.005   4.047   7.048  0.5188  0.9843 -1.0382
   40CHL1   H7B 2899   2.866   4.155   7.046 -1.4808 -0.5209 -1.4795
   40CHL1    C8 2900   2.818   3.958   7.115 -0.0655  0.2310 -0.1619
   40CHL1    H8 2901   2.878   3.864   7.120 -1.4328 -0.7501 -1.1439
   40CHL1   C14 2902   2.809   4.019   7.258 -0.0727  1.0714  0.1653
   40CHL1   H14 2903   2.742   4.108   7.247 -1.5504 -0.0497 -0.2758
   40CHL1   C15 2904   2.942   4.044   7.324 -0.1792 -0.3625  0.1648
   40CHL1  H15A 2905   3.025   3.972   7.307  0.1404  0.3062 -1.3460
   40CHL1  H15B 2906   2.987   4.145   7.309  3.1744 -1.7107  0.3550
   40CHL1   C16 2907   2.914   4.053   7.475 -0.2731 -0.1069 -0.0238
   40CHL1  H16A 2908   2.982   3.986   7.532 -0.5688  0.5122  1.0824
   40CHL1  H16B 2909   2.929   4.157   7.512 -0.2656 -0.7962  1.9991
   40CHL1   C17 2910   2.770   4.009   7.490  0.3788  0.0876 -0.0455
   40CHL1   H17 2911   2.715   4.105   7.484 -1.5075 -0.9457 -0.3607
   40CHL1   C13 2912   2.739   3.933   7.364 -0.1173  1.0114 -0.2674
   40CHL1   C18 2913   2.806   3.796   7.377  0.6684  0.3259  1.2636
   40CHL1  H18A 2914   2.833   3.748   7.281  2.0414  0.5968  1.4967
   40CHL1  H18B 2915   2.896   3.808   7.442 -0.0649 -0.1266  2.4037
   40CHL1  H18C 2916   2.742   3.721   7.430  0.7303 -1.2047 -0.7144
   40CHL1   C12 2917   2.591   3.921   7.305  0.5665  0.7290 -0.2497
   40CHL1  H12A 2918   2.528   3.859   7.372  0.8329  1.0000  0.2538
   40CHL1  H12B 2919   2.542   4.021   7.312 -2.9617 -0.7316 -1.5075
   40CHL1   C11 2920   2.584   3.862   7.165  0.1364 -0.0773 -0.0560
   40CHL1  H11A 2921   2.619   3.756   7.168 -3.0089 -1.1951  1.0740
   40CHL1  H11B 2922   2.486   3.843   7.115  0.8631 -1.3966 -1.0763
   40CHL1    C9 2923   2.680   3.932   7.062  0.0356 -0.1169 -0.3064
   40CHL1    H9 2924   2.635   4.033   7.047  0.7449  0.0830 -1.2363
   40CHL1   C10 2925   2.679   3.866   6.921 -0.1676 -0.3075 -0.5033
   40CHL1   C19 2926   2.733   3.715   6.938 -0.1039 -0.1683 -0.3587
   40CHL1  H19A 2927   2.840   3.722   6.970 -0.2798  0.4781  0.1132
   40CHL1  H19B 2928   2.683   3.652   7.015  0.4584 -2.8840 -2.0759
   40CHL1  H19C 2929   2.718   3.664   6.841  0.5140 -2.1042  0.5102
   40CHL1    C1 2930   2.542   3.872   6.861  0.1940  0.2528 -0.0496
   40CHL1   H1A 2931   2.476   3.797   6.910  1.6208 -0.9075  0.1603
   40CHL1   H1B 2932   2.497   3.970   6.887  0.4551  0.2703  0.3407
   40CHL1    C2 2933   2.529   3.852   6.716  0.0266 -0.0042  0.1428
   40CHL1   H2A 2934   2.430   3.870   6.670 -0.0777 -2.0725 -0.5325
   40CHL1   H2B 2935   2.552   3.745   6.696  0.1386 -0.0503  0.4992
   40CHL1   C20 2936   2.743   3.947   7.628 -0.1286 -0.2030  0.2678
   40CHL1   H20 2937   2.808   3.857   7.637 -0.1675 -0.4629 -1.6124
   40CHL1   C21 2938   2.588   3.907   7.644 -0.4845  0.1156  0.7017
   40CHL1  H21A 2939   2.583   3.844   7.735  0.1138 -2.3475 -0.8894
   40CHL1  H21B 2940   2.548   3.839   7.566  1.4661  0.8993 -1.1056
   40CHL1  H21C 2941   2.516   3.992   7.648  0.3505  0.9295 -0.6670
   40CHL1   C22 2942   2.790   4.047   7.742 -0.0430 -0.2734  0.6294
   40CHL1  H22A 2943   2.900   4.052   7.726 -0.3259  0.6914 -1.2741
   40CHL1  H22B 2944   2.761   4.146   7.701  1.7965 -0.8802 -2.5097
   40CHL1   C23 2945   2.748   4.012   7.878 -0.1610  0.7168  0.0940
   40CHL1  H23A 2946   2.640   4.035   7.890  0.1990  2.0846  0.9516
   40CHL1  H23B 2947   2.745   3.902   7.894 -0.9407  0.6434 -0.5412
   40CHL1   C24 2948   2.817   4.073   7.993  0.3414 -0.2211 -0.3166
   40CHL1  H24A 2949   2.915   4.023   8.005  0.2928  0.0495  1.4842
   40CHL1  H24B 2950   2.824   4.184   7.993 -0.3767 -0.1407  1.3911
   40CHL1   C25 2951   2.769   4.034   8.134 -0.3929 -0.1631 -0.7215
   40CHL1   H25 2952   2.787   3.926   8.154 -0.1453 -0.2808 -1.5392
   40CHL1   C26 2953   2.870   4.084   8.252  1.2245  0.8941  0.2872
   40CHL1  H26A 2954   2.868   4.194   8.265  0.0848  1.0130 -0.6831
   40CHL1  H26B 2955   2.828   4.036   8.343  1.2463  0.8531  0.2754
   40CHL1  H26C 2956   2.969   4.043   8.224  0.1162 -0.5075 -1.8231
   40CHL1   C27 2957   2.623   4.068   8.160  0.4435 -0.4359  0.3181
   40CHL1  H27A 2958   2.554   4.007   8.097 -0.1566  2.2545 -1.8105
   40CHL1  H27B 2959   2.590   4.061   8.266  0.5506  2.4917  0.6194
   40CHL1  H27C 2960   2.604   4.172   8.125 -1.0405 -0.8550 -0.1649
   41CHL1    C3 2961   0.627   4.888   6.791  0.1176 -0.4287  0.2760
   41CHL1    H3 2962   0.723   4.943   6.783  1.0866 -1.9054  1.2199
   41CHL1    O3 2963   0.608   4.825   6.662 -0.0628 -0.8525  0.0743
   41CHL1   H3' 2964   0.609   4.901   6.603 -2.3896 -0.0587  0.9472
   41CHL1    C4 2965   0.643   4.766   6.890  1.7252 -0.3842  0.2585
   41CHL1   H4A 2966   0.545   4.714   6.894  1.1762  0.6639  0.7575
   41CHL1   H4B 2967   0.712   4.688   6.852  0.4116 -0.1994 -2.8737
   41CHL1    C5 2968   0.666   4.833   7.023  0.0101 -0.6162  0.2230
   41CHL1    C6 2969   0.792   4.819   7.070  0.2132 -0.1801 -0.4848
   41CHL1    H6 2970   0.862   4.744   7.030  0.2615 -1.1956  1.4026
   41CHL1    C7 2971   0.823   4.886   7.199  0.1710  0.2814 -0.2128
   41CHL1   H7A 2972   0.890   4.816   7.253 -0.7186 -0.7646 -0.4265
   41CHL1   H7B 2973   0.884   4.978   7.192 -0.1346  0.5767  0.8438
   41CHL1    C8 2974   0.697   4.912   7.288 -0.1656 -0.6162  0.3269
   41CHL1    H8 2975   0.655   4.811   7.311 -0.5143 -1.0139 -1.8352
   41CHL1   C14 2976   0.736   4.977   7.420 -0.5833  0.0136  0.6884
   41CHL1   H14 2977   0.775   5.076   7.388  1.8372 -0.9703  0.3902
   41CHL1   C15 2978   0.844   4.911   7.506  1.1042 -0.1399  0.0715
   41CHL1  H15A 2979   0.812   4.805   7.515  0.3085  0.0509 -0.3950
   41CHL1  H15B 2980   0.947   4.926   7.467  1.6108 -2.1366  0.5730
   41CHL1   C16 2981   0.825   4.982   7.646 -0.4707 -0.2152  0.1077
   41CHL1  H16A 2982   0.825   4.909   7.730 -2.6640 -2.0533 -1.3637
   41CHL1  H16B 2983   0.909   5.054   7.656 -1.2842  0.8855 -0.7311
   41CHL1   C17 2984   0.695   5.055   7.648  0.7548 -0.4834  0.7358
   41CHL1   H17 2985   0.701   5.165   7.632 -1.0968 -0.4987 -0.3389
   41CHL1   C13 2986   0.617   5.000   7.519  0.0228 -0.1024 -0.1840
   41CHL1   C18 2987   0.552   4.865   7.562  0.2152 -0.2241  0.3387
   41CHL1  H18A 2988   0.618   4.811   7.633 -0.5614  1.5685  2.5662
   41CHL1  H18B 2989   0.460   4.895   7.617 -0.4607 -0.5957 -0.5621
   41CHL1  H18C 2990   0.515   4.791   7.488 -1.9067  0.7981  0.2946
   41CHL1   C12 2991   0.520   5.099   7.450  0.0475  0.1156 -0.0830
   41CHL1  H12A 2992   0.435   5.118   7.518  0.4082  0.4868  0.2710
   41CHL1  H12B 2993   0.562   5.201   7.435 -0.1937  0.0194 -1.6320
   41CHL1   C11 2994   0.472   5.046   7.312  0.5115  0.6162  0.9815
   41CHL1  H11A 2995   0.390   4.972   7.325 -0.3890  1.8771  2.9132
   41CHL1  H11B 2996   0.432   5.143   7.275  0.2677  1.3791  3.0891
   41CHL1    C9 2997   0.591   4.994   7.216  0.2694 -0.1439 -0.0165
   41CHL1    H9 2998   0.642   5.089   7.189  0.2276  0.1726  0.9616
   41CHL1   C10 2999   0.556   4.929   7.078 -0.1538  0.1196  0.4895
   41CHL1   C19 3000   0.433   4.842   7.101  0.4141 -0.4826  0.1865
   41CHL1  H19A 3001   0.350   4.891   7.156 -0.1315 -0.9488 -0.2051
   41CHL1  H19B 3002   0.396   4.800   7.005  0.2986  1.7339 -0.8064
   41CHL1  H19C 3003   0.457   4.765   7.177  0.1039 -1.7001 -0.9214
   41CHL1    C1 3004   0.525   5.042   6.969  0.3217  0.9528 -0.8116
   41CHL1   H1A 3005   0.441   5.103   7.010  1.8833  1.3843  2.0315
   41CHL1   H1B 3006   0.614   5.109   6.964  1.6950 -0.5737  1.3952
   41CHL1    C2 3007   0.502   4.980   6.826  0.1580  0.1814 -0.1365
   41CHL1   H2A 3008   0.485   5.054   6.746 -0.3449 -2.1185 -2.2653
   41CHL1   H2B 3009   0.410   4.917   6.830  1.3482 -1.6349 -0.0457
   41CHL1   C20 3010   0.626   5.050   7.785 -0.2320 -0.5902 -0.0379
   41CHL1   H20 3011   0.612   4.944   7.815 -0.1228 -0.5714  0.0826
   41CHL1   C21 3012   0.499   5.126   7.786 -0.8479  0.6609 -0.2285
   41CHL1  H21A 3013   0.516   5.234   7.764  2.5554  0.4172  0.7088
   41CHL1  H21B 3014   0.449   5.130   7.886  2.1234  1.5435  1.3580
   41CHL1  H21C 3015   0.430   5.082   7.711 -0.7085  0.3678 -0.1846
   41CHL1   C22 3016   0.724   5.103   7.892  0.5150  0.9602  0.7129
   41CHL1  H22A 3017   0.783   5.011   7.910 -1.8039 -0.8607 -0.3539
   41CHL1  H22B 3018   0.777   5.191   7.848  2.6330  0.6364  2.4673
   41CHL1   C23 3019   0.663   5.141   8.027  0.1305 -0.2790  0.1252
   41CHL1  H23A 3020   0.622   5.245   8.022 -2.3363 -1.2077 -0.2983
   41CHL1  H23B 3021   0.581   5.067   8.042  0.2291 -0.7691 -1.6226
   41CHL1   C24 3022   0.771   5.130   8.136  0.1659  0.8630 -0.0975
   41CHL1  H24A 3023   0.831   5.037   8.135  1.4041  1.6454 -0.1544
   41CHL1  H24B 3024   0.844   5.209   8.109  2.5693 -1.2449 -0.1320
   41CHL1   C25 3025   0.706   5.144   8.278  0.5383 -0.0199  0.7211
   41CHL1   H25 3026   0.668   5.246   8.298 -0.7959 -0.4984  0.7630
   41CHL1   C26 3027   0.597   5.047   8.302 -0.2883 -0.2095 -0.0611
   41CHL1  H26A 3028   0.627   4.940   8.289 -1.0690 -0.2628 -1.6466
   41CHL1  H26B 3029   0.556   5.053   8.405  1.8745 -0.4223  0.8750
   41CHL1  H26C 3030   0.510   5.069   8.237  0.3772  0.8372 -0.6201
   41CHL1   C27 3031   0.817   5.106   8.375 -0.4025 -0.0113  0.4427
   41CHL1  H27A 3032   0.784   5.132   8.478  1.7514 -3.4202  2.1615
   41CHL1  H27B 3033   0.833   4.996   8.375  2.5038  0.3326 -0.5168
   41CHL1  H27C 3034   0.911   5.165   8.366 -1.5653  1.9323  0.4491
   42CHL1    C3 3035   4.660   2.828   6.882  0.2379 -0.8884  0.2569
   42CHL1    H3 3036   4.668   2.731   6.937 -3.0770 -0.7882  1.1309
   42CHL1    O3 3037   4.643   2.806   6.744 -0.4698  0.2148  0.2331
   42CHL1   H3' 3038   4.719   2.853   6.709 -0.7304  0.4889  0.0232
   42CHL1    C4 3039   4.537   2.907   6.928  0.1012 -0.0766  0.2717
   42CHL1   H4A 3040   4.529   3.004   6.874  4.1288  0.2717  0.0359
   42CHL1   H4B 3041   4.443   2.851   6.906 -1.0878  2.0446 -0.3975
   42CHL1    C5 3042   4.544   2.937   7.075 -0.1743  0.6707  0.8868
   42CHL1    C6 3043   4.453   2.895   7.158 -0.4584  0.3740 -0.7150
   42CHL1    H6 3044   4.354   2.850   7.136 -1.2934  1.2616  1.0374
   42CHL1    C7 3045   4.450   2.926   7.312 -0.0234 -0.1564  0.9699
   42CHL1   H7A 3046   4.346   2.947   7.345 -0.1711  0.8454 -0.0496
   42CHL1   H7B 3047   4.505   2.840   7.354  1.6536  1.0059  1.2761
   42CHL1    C8 3048   4.545   3.043   7.337 -0.0923  0.0053 -0.2984
   42CHL1    H8 3049   4.498   3.131   7.290 -1.1599  1.8463  3.7603
   42CHL1   C14 3050   4.565   3.055   7.485 -0.4867 -0.5067 -0.1900
   42CHL1   H14 3051   4.611   2.960   7.521 -0.1392  1.0558  4.1233
   42CHL1   C15 3052   4.433   3.062   7.567  0.2199  0.1371  0.4516
   42CHL1  H15A 3053   4.365   3.118   7.500  1.3061  0.4445 -0.4185
   42CHL1  H15B 3054   4.393   2.959   7.580 -0.4042  0.2735 -0.3368
   42CHL1   C16 3055   4.474   3.144   7.693  0.2725 -0.0875 -0.1439
   42CHL1  H16A 3056   4.429   3.246   7.695  2.2266  0.8414 -1.0184
   42CHL1  H16B 3057   4.441   3.084   7.781 -1.4414 -0.3095 -0.9003
   42CHL1   C17 3058   4.633   3.155   7.686 -0.0949  0.0650 -0.4416
   42CHL1   H17 3059   4.678   3.055   7.708  0.1013 -0.1934 -1.9274
   42CHL1   C13 3060   4.667   3.163   7.536  0.3412 -0.7361  0.5975
   42CHL1   C18 3061   4.616   3.289   7.469 -0.0269  0.1063  0.0740
   42CHL1  H18A 3062   4.655   3.384   7.510 -0.5184  0.8218 -1.0656
   42CHL1  H18B 3063   4.634   3.294   7.359  0.1799  2.4892  0.1725
   42CHL1  H18C 3064   4.508   3.311   7.482  0.2268  0.7018  1.3340
   42CHL1   C12 3065   4.804   3.123   7.481  0.2211  0.2188  0.0197
   42CHL1  H12A 3066   4.885   3.195   7.504  1.5984 -0.4104 -2.5668
   42CHL1  H12B 3067   4.832   3.028   7.531  1.1703  0.7603  0.5595
   42CHL1   C11 3068   4.793   3.120   7.326 -0.5488 -0.5170 -0.4649
   42CHL1  H11A 3069   4.778   3.221   7.282 -0.1609 -0.3330 -0.1836
   42CHL1  H11B 3070   4.890   3.089   7.282  0.5753  1.8667  0.1343
   42CHL1    C9 3071   4.679   3.014   7.277 -0.5515  0.2041 -0.1314
   42CHL1    H9 3072   4.716   2.918   7.318  1.9597  0.8570 -0.6655
   42CHL1   C10 3073   4.673   3.013   7.122  0.6315  0.0926  0.1517
   42CHL1   C19 3074   4.677   3.157   7.063 -0.2087 -0.5043 -0.7082
   42CHL1  H19A 3075   4.606   3.224   7.117 -1.2765 -1.4040 -0.9618
   42CHL1  H19B 3076   4.770   3.218   7.068  1.0157 -1.8260 -4.2762
   42CHL1  H19C 3077   4.654   3.159   6.954 -1.0095 -0.0732 -0.5430
   42CHL1    C1 3078   4.792   2.938   7.059 -0.6994 -0.3082  0.2164
   42CHL1   H1A 3079   4.886   2.994   7.081  0.7771 -3.0799  1.4616
   42CHL1   H1B 3080   4.806   2.842   7.114  2.0554 -0.6394 -0.9196
   42CHL1    C2 3081   4.787   2.909   6.906 -0.3109 -0.3653  0.0704
   42CHL1   H2A 3082   4.875   2.847   6.875  0.0403 -0.3427  0.9842
   42CHL1   H2B 3083   4.768   3.002   6.848 -0.4501 -1.4153 -1.6452
   42CHL1   C20 3084   4.691   3.266   7.774  0.4456  0.5206  0.2123
   42CHL1   H20 3085   4.700   3.351   7.704  0.5628  0.0750 -0.3142
   42CHL1   C21 3086   4.836   3.220   7.816  0.0648  0.4981 -0.5707
   42CHL1  H21A 3087   4.889   3.190   7.724 -0.5931 -0.7860 -0.5555
   42CHL1  H21B 3088   4.821   3.132   7.884 -0.6009  0.4596 -0.7623
   42CHL1  H21C 3089   4.901   3.295   7.865  2.4416 -0.9749 -1.2973
   42CHL1   C22 3090   4.604   3.318   7.897 -0.3196 -0.6477  0.0771
   42CHL1  H22A 3091   4.655   3.411   7.930 -1.8697  0.8007 -1.4115
   42CHL1  H22B 3092   4.502   3.345   7.862 -0.4908 -0.4020  0.7594
   42CHL1   C23 3093   4.593   3.223   8.018 -0.1302  0.6356  0.0691
   42CHL1  H23A 3094   4.559   3.123   7.984  0.1301  0.1192  1.2678
   42CHL1  H23B 3095   4.686   3.201   8.074 -1.3564 -3.1535  0.9444
   42CHL1   C24 3096   4.475   3.248   8.113 -0.4684 -0.4758  0.2691
   42CHL1  H24A 3097   4.379   3.221   8.065 -1.3021  0.0691  1.5746
   42CHL1  H24B 3098   4.488   3.171   8.192 -0.3725 -0.5977  0.1372
   42CHL1   C25 3099   4.473   3.394   8.175 -0.0530 -0.5879 -0.7563
   42CHL1   H25 3100   4.450   3.466   8.094  0.6205 -0.5539 -0.9292
   42CHL1   C26 3101   4.368   3.413   8.285 -0.9147 -0.1615  0.3261
   42CHL1  H26A 3102   4.264   3.408   8.246 -0.6929 -2.4951 -0.1647
   42CHL1  H26B 3103   4.379   3.329   8.358 -0.1414 -0.2832  0.0756
   42CHL1  H26C 3104   4.388   3.509   8.337  1.1403 -1.6462  2.4479
   42CHL1   C27 3105   4.607   3.434   8.233  0.5569  0.0579  0.2411
   42CHL1  H27A 3106   4.649   3.354   8.297 -1.2188  0.6140  2.2110
   42CHL1  H27B 3107   4.599   3.527   8.294 -1.0164  1.7186 -2.2990
   42CHL1  H27C 3108   4.679   3.447   8.150 -1.6030  2.1845 -1.4555
   43CHL1    C3 3109   2.569   5.481   6.755 -0.5036  0.0994 -0.3712
   43CHL1    H3 3110   2.494   5.561   6.769  0.0885  0.3395  1.8162
   43CHL1    O3 3111   2.596   5.462   6.617 -0.0043 -0.5440 -0.0940
   43CHL1   H3' 3112   2.626   5.549   6.591 -2.0679  1.2266  2.8728
   43CHL1    C4 3113   2.696   5.509   6.844  0.2464  0.1371  0.2096
   43CHL1   H4A 3114   2.768   5.431   6.812 -2.2748 -1.6141 -1.5732
   43CHL1   H4B 3115   2.744   5.606   6.816 -1.0197  1.2466  1.7128
   43CHL1    C5 3116   2.669   5.514   6.993 -0.7377  0.5160  0.1126
   43CHL1    C6 3117   2.710   5.615   7.071  0.4899 -0.5080  0.6976
   43CHL1    H6 3118   2.764   5.701   7.027 -1.6022  0.4232 -0.2046
   43CHL1    C7 3119   2.677   5.615   7.219 -0.6908  0.3133 -0.1593
   43CHL1   H7A 3120   2.763   5.642   7.284  0.4694 -0.6131 -1.2454
   43CHL1   H7B 3121   2.596   5.691   7.228 -2.6086 -1.5691 -0.7844
   43CHL1    C8 3122   2.633   5.482   7.272 -0.2438  0.3779  0.3725
   43CHL1    H8 3123   2.720   5.413   7.280  0.0607  0.7660  0.3977
   43CHL1   C14 3124   2.580   5.491   7.411 -0.1725 -0.4820  0.1796
   43CHL1   H14 3125   2.494   5.560   7.402  1.4163  1.7043  0.8181
   43CHL1   C15 3126   2.664   5.571   7.511 -0.0430  0.4491 -0.4878
   43CHL1  H15A 3127   2.771   5.546   7.498 -0.2112 -1.8787  1.8630
   43CHL1  H15B 3128   2.665   5.682   7.502  0.6617  0.3566 -1.7880
   43CHL1   C16 3129   2.605   5.511   7.644 -0.6119  0.1258 -0.3210
   43CHL1  H16A 3130   2.686   5.462   7.701 -1.3124 -0.4968  0.1517
   43CHL1  H16B 3131   2.570   5.594   7.708 -1.8090  0.4187 -1.3121
   43CHL1   C17 3132   2.497   5.404   7.621  0.0212  0.4116 -0.0343
   43CHL1   H17 3133   2.398   5.454   7.617 -0.0413  0.4983  1.8289
   43CHL1   C13 3134   2.535   5.355   7.480  0.7264 -0.1670 -0.1577
   43CHL1   C18 3135   2.652   5.250   7.501 -0.2303 -0.6727 -0.0251
   43CHL1  H18A 3136   2.727   5.283   7.576 -2.8997 -0.2498  2.6644
   43CHL1  H18B 3137   2.601   5.158   7.536  0.0453 -0.4413  1.0104
   43CHL1  H18C 3138   2.696   5.214   7.406  1.5890 -1.1829  0.9767
   43CHL1   C12 3139   2.425   5.304   7.390 -0.2518 -0.4247 -0.3807
   43CHL1  H12A 3140   2.396   5.202   7.423  0.1671 -0.2143  0.6734
   43CHL1  H12B 3141   2.334   5.368   7.386 -1.1141 -1.6404 -1.1494
   43CHL1   C11 3142   2.467   5.288   7.245 -0.0410  0.0315  0.6601
   43CHL1  H11A 3143   2.532   5.198   7.246  1.2847  0.9528  0.3869
   43CHL1  H11B 3144   2.375   5.264   7.188 -0.6491 -1.0293  2.0305
   43CHL1    C9 3145   2.536   5.410   7.180 -0.6016  0.4355 -1.0845
   43CHL1    H9 3146   2.448   5.477   7.178 -0.5924  0.4308 -2.1975
   43CHL1   C10 3147   2.586   5.394   7.037  0.5020 -0.4971  0.3991
   43CHL1   C19 3148   2.681   5.271   7.028 -0.4992 -0.2196  0.0017
   43CHL1  H19A 3149   2.632   5.178   7.063  2.5044 -1.2153  1.8987
   43CHL1  H19B 3150   2.706   5.246   6.922 -0.3917  0.7682 -0.2140
   43CHL1  H19C 3151   2.770   5.289   7.091 -1.5174  2.4182  0.8388
   43CHL1    C1 3152   2.459   5.368   6.945  0.3852 -0.0682  0.3980
   43CHL1   H1A 3153   2.397   5.283   6.980  0.5905 -0.4167 -0.0668
   43CHL1   H1B 3154   2.392   5.457   6.952 -2.1893 -1.9856  1.7910
   43CHL1    C2 3155   2.503   5.348   6.797  0.1467 -0.2273 -0.5918
   43CHL1   H2A 3156   2.412   5.344   6.734 -0.4088  0.7521  0.1256
   43CHL1   H2B 3157   2.559   5.253   6.784 -0.4095 -0.6091 -0.2812
   43CHL1   C20 3158   2.487   5.300   7.739  0.0032  0.1831  0.7128
   43CHL1   H20 3159   2.586   5.252   7.754 -0.4861 -0.7982  0.9034
   43CHL1   C21 3160   2.377   5.187   7.718  0.0081  0.1220  0.5694
   43CHL1  H21A 3161   2.279   5.232   7.692 -0.4826  0.6086  3.0062
   43CHL1  H21B 3162   2.373   5.112   7.801  0.4149  0.7333  1.1531
   43CHL1  H21C 3163   2.400   5.139   7.621 -1.0965  1.9069 -0.6298
   43CHL1   C22 3164   2.445   5.374   7.869 -0.0349 -0.2745  0.1384
   43CHL1  H22A 3165   2.518   5.456   7.883  0.2985 -0.1054 -2.3234
   43CHL1  H22B 3166   2.349   5.424   7.846 -0.0270 -0.9717 -1.4847
   43CHL1   C23 3167   2.455   5.298   8.003  0.2727 -0.0049 -0.1253
   43CHL1  H23A 3168   2.384   5.213   7.991  1.5637 -1.1210 -0.0879
   43CHL1  H23B 3169   2.559   5.263   8.015  0.1730  0.5183  3.5873
   43CHL1   C24 3170   2.408   5.367   8.131  0.9990  0.2353 -0.2278
   43CHL1  H24A 3171   2.494   5.436   8.138  1.6065 -0.3693 -1.5597
   43CHL1  H24B 3172   2.319   5.432   8.118 -0.5137 -1.3713  1.3765
   43CHL1   C25 3173   2.394   5.280   8.261  0.1459  0.0931 -0.5058
   43CHL1   H25 3174   2.356   5.351   8.337  0.9128  0.2188 -0.2328
   43CHL1   C26 3175   2.298   5.157   8.256  0.0085  0.4435  0.1669
   43CHL1  H26A 3176   2.209   5.182   8.195  1.0561  0.3272 -1.4707
   43CHL1  H26B 3177   2.348   5.068   8.214  1.0532  1.3733 -0.6449
   43CHL1  H26C 3178   2.268   5.129   8.360 -0.3788  2.8815  0.7902
   43CHL1   C27 3179   2.543   5.243   8.298  0.2766  0.5994 -0.1173
   43CHL1  H27A 3180   2.569   5.153   8.237 -1.3567  0.5288 -0.7863
   43CHL1  H27B 3181   2.607   5.332   8.286 -0.1857  1.0689  0.8536
   43CHL1  H27C 3182   2.541   5.211   8.404  0.0064  3.2885  0.7441
   44CHL1    C3 3183   3.352   4.999   6.767  0.5099 -0.2171 -0.1386
   44CHL1    H3 3184   3.289   4.918   6.811 -1.8305  1.4515 -0.2560
   44CHL1    O3 3185   3.389   4.971   6.638 -0.1450  0.4663 -0.1765
   44CHL1   H3' 3186   3.438   5.051   6.619 -1.8255  2.0040  1.5284
   44CHL1    C4 3187   3.264   5.125   6.773  0.0306 -0.2386  0.2802
   44CHL1   H4A 3188   3.322   5.209   6.728 -2.3071  0.7162 -1.1231
   44CHL1   H4B 3189   3.178   5.136   6.704 -0.2251  4.2724  0.9646
   44CHL1    C5 3190   3.229   5.153   6.918  0.3336  0.2555  0.7383
   44CHL1    C6 3191   3.100   5.163   6.953  0.1625 -1.2513 -0.2005
   44CHL1    H6 3192   3.023   5.159   6.875  0.1682 -1.8216 -0.1825
   44CHL1    C7 3193   3.061   5.209   7.088  0.2535  0.2385  0.0602
   44CHL1   H7A 3194   2.978   5.283   7.088  1.2670  1.4201  0.9341
   44CHL1   H7B 3195   3.012   5.125   7.142 -1.3803  1.3073  0.3012
   44CHL1    C8 3196   3.174   5.265   7.179  0.5233  0.5303  0.1995
   44CHL1    H8 3197   3.191   5.370   7.148  0.8912  0.7561  1.1519
   44CHL1   C14 3198   3.138   5.255   7.329 -0.0904  0.6592 -0.3311
   44CHL1   H14 3199   3.121   5.146   7.344  0.0990  0.5336 -0.9747
   44CHL1   C15 3200   3.011   5.333   7.370  0.2820  0.4860  0.2956
   44CHL1  H15A 3201   3.001   5.424   7.308  1.4081  0.5813  0.2282
   44CHL1  H15B 3202   2.924   5.266   7.353  1.8332 -2.4897  2.8371
   44CHL1   C16 3203   3.029   5.352   7.519  0.3394  0.7451 -0.8431
   44CHL1  H16A 3204   3.017   5.459   7.545 -0.2461  1.0457 -2.2601
   44CHL1  H16B 3205   2.955   5.303   7.585  0.3628 -1.3484 -2.2741
   44CHL1   C17 3206   3.176   5.306   7.560  0.1240  0.1330  0.3442
   44CHL1   H17 3207   3.172   5.202   7.597 -0.2951  0.3596  0.9415
   44CHL1   C13 3208   3.249   5.304   7.421  0.1919 -0.5983 -0.8366
   44CHL1   C18 3209   3.279   5.453   7.384 -0.0654 -0.5234  0.3566
   44CHL1  H18A 3210   3.340   5.461   7.291 -2.1331  0.5619 -0.9862
   44CHL1  H18B 3211   3.191   5.519   7.370 -0.8151 -1.2633  1.4653
   44CHL1  H18C 3212   3.340   5.506   7.460  1.6998 -0.5383 -0.9740
   44CHL1   C12 3213   3.364   5.206   7.410  0.0384  0.2884  0.3006
   44CHL1  H12A 3214   3.449   5.241   7.473  0.0692 -1.2182  1.1310
   44CHL1  H12B 3215   3.338   5.105   7.448 -0.2441  0.2801  0.0935
   44CHL1   C11 3216   3.410   5.202   7.267 -0.1404 -0.3437 -0.1906
   44CHL1  H11A 3217   3.458   5.299   7.244  1.1765 -0.6569  1.0778
   44CHL1  H11B 3218   3.487   5.122   7.256  1.4439  0.9868  0.8175
   44CHL1    C9 3219   3.293   5.174   7.164 -0.3678  0.4469  0.6745
   44CHL1    H9 3220   3.270   5.068   7.187  1.8894 -0.1413  0.4194
   44CHL1   C10 3221   3.352   5.171   7.012  0.3556 -0.0252  0.1438
   44CHL1   C19 3222   3.425   5.304   6.978 -0.0881  0.4777  0.2109
   44CHL1  H19A 3223   3.518   5.317   7.038  1.8143  0.7388 -2.6164
   44CHL1  H19B 3224   3.460   5.300   6.872 -0.0217  0.0701  0.2446
   44CHL1  H19C 3225   3.362   5.394   6.993 -2.5442 -1.2826  1.0748
   44CHL1    C1 3226   3.446   5.047   6.995  0.0466 -0.9512  0.2897
   44CHL1   H1A 3227   3.545   5.063   7.043 -0.2602  2.2516  0.0211
   44CHL1   H1B 3228   3.405   4.956   7.045 -0.3752 -0.7654  0.2838
   44CHL1    C2 3229   3.476   5.013   6.846 -0.0734  0.5100 -0.1395
   44CHL1   H2A 3230   3.533   4.918   6.848  1.0674  1.1455 -1.1604
   44CHL1   H2B 3231   3.546   5.084   6.797  1.0915 -0.7536 -0.3661
   44CHL1   C20 3232   3.230   5.388   7.677 -0.1700  0.3175 -0.1826
   44CHL1   H20 3233   3.234   5.497   7.652 -4.6258  0.2825 -2.0395
   44CHL1   C21 3234   3.366   5.334   7.717 -0.7475 -0.0040 -0.4240
   44CHL1  H21A 3235   3.379   5.224   7.706 -1.0540 -0.1220  0.3058
   44CHL1  H21B 3236   3.392   5.353   7.824 -2.7494 -1.7190  0.4322
   44CHL1  H21C 3237   3.441   5.390   7.657  0.4426  1.2845  2.1004
   44CHL1   C22 3238   3.137   5.370   7.800 -0.2450  0.1782  0.2586
   44CHL1  H22A 3239   3.031   5.383   7.770  0.4773 -0.2205 -2.6973
   44CHL1  H22B 3240   3.151   5.265   7.835  1.1699  0.4047  0.4404
   44CHL1   C23 3241   3.150   5.477   7.916  0.2524 -0.0002 -0.1379
   44CHL1  H23A 3242   3.241   5.474   7.980 -0.1600 -0.6019  0.4331
   44CHL1  H23B 3243   3.174   5.576   7.869  2.4632 -1.3880 -2.1727
   44CHL1   C24 3244   3.030   5.498   8.004  0.5836  0.0580  0.4329
   44CHL1  H24A 3245   3.026   5.601   8.043 -1.1574 -0.1071  0.7709
   44CHL1  H24B 3246   2.937   5.489   7.944  1.4168 -1.0609 -0.7504
   44CHL1   C25 3247   3.016   5.390   8.114 -0.9693  0.6859  0.3094
   44CHL1   H25 3248   3.004   5.288   8.072 -0.1735 -0.1555  2.0439
   44CHL1   C26 3249   3.141   5.397   8.210  0.0523 -0.2931  0.6994
   44CHL1  H26A 3250   3.174   5.503   8.216  2.9220 -1.0458 -0.2479
   44CHL1  H26B 3251   3.116   5.351   8.308 -1.4470  0.4581  0.6966
   44CHL1  H26C 3252   3.230   5.345   8.169  0.7370  2.1828 -1.2307
   44CHL1   C27 3253   2.891   5.421   8.193 -0.0537  0.2045  0.2187
   44CHL1  H27A 3254   2.807   5.381   8.133  0.1884  0.6659 -0.4423
   44CHL1  H27B 3255   2.901   5.375   8.294 -0.3206 -1.8494 -0.6354
   44CHL1  H27C 3256   2.875   5.531   8.196 -0.1455  0.1669  1.3958
   45CHL1    C3 3257   3.195   1.054   6.791 -0.7259 -0.1133  0.3481
   45CHL1    H3 3258   3.289   1.108   6.766  0.2530 -1.8790  0.0839
   45CHL1    O3 3259   3.114   1.076   6.681 -0.3122  0.8057  0.1351
   45CHL1   H3' 3260   3.156   1.040   6.603 -0.5905  1.0344 -0.1263
   45CHL1    C4 3261   3.205   0.901   6.811  0.4526 -0.5908 -0.0035
   45CHL1   H4A 3262   3.100   0.869   6.828 -0.7378  0.8946 -3.6834
   45CHL1   H4B 3263   3.240   0.858   6.715  1.1294  0.4282 -0.2198
   45CHL1    C5 3264   3.287   0.867   6.930 -0.3246 -0.0118 -0.0615
   45CHL1    C6 3265   3.392   0.791   6.929  0.1208  0.1800  0.6801
   45CHL1    H6 3266   3.429   0.738   6.841 -1.1895 -1.1196  0.8772
   45CHL1    C7 3267   3.474   0.760   7.049  0.3086  0.2425  0.1586
   45CHL1   H7A 3268   3.502   0.653   7.037  0.3584  0.5158 -3.0719
   45CHL1   H7B 3269   3.567   0.821   7.045 -0.6484  1.7421  0.0306
   45CHL1    C8 3270   3.411   0.783   7.180  0.5916 -0.4391  0.2179
   45CHL1    H8 3271   3.338   0.702   7.201  2.6772 -2.0148  1.8570
   45CHL1   C14 3272   3.516   0.787   7.297  0.4532  0.3374  0.4925
   45CHL1   H14 3273   3.582   0.876   7.288  0.3068  0.5713  1.5784
   45CHL1   C15 3274   3.612   0.666   7.310 -0.5836 -0.1698 -0.3971
   45CHL1  H15A 3275   3.562   0.570   7.284  1.0241 -0.7113 -1.6424
   45CHL1  H15B 3276   3.691   0.693   7.237 -0.5612  3.1533  0.6776
   45CHL1   C16 3277   3.656   0.666   7.455 -0.7657 -0.0302  0.6091
   45CHL1  H16A 3278   3.627   0.572   7.507 -1.3380 -0.6884 -0.8475
   45CHL1  H16B 3279   3.759   0.687   7.491 -1.1754 -0.4109  2.0744
   45CHL1   C17 3280   3.579   0.789   7.525 -0.2582  1.1263  0.3514
   45CHL1   H17 3281   3.657   0.869   7.521  0.5298  0.4175  1.0745
   45CHL1   C13 3282   3.461   0.806   7.434  0.5785 -0.0658  0.1547
   45CHL1   C18 3283   3.349   0.694   7.458 -0.0706  0.4583  0.1091
   45CHL1  H18A 3284   3.378   0.591   7.427  1.2309  0.8327  0.0118
   45CHL1  H18B 3285   3.321   0.689   7.565  1.5817 -2.7573  0.5236
   45CHL1  H18C 3286   3.257   0.725   7.404  0.4898  3.0053  0.4934
   45CHL1   C12 3287   3.398   0.949   7.439 -0.7444  0.1510 -0.0849
   45CHL1  H12A 3288   3.337   0.967   7.531 -2.5681  0.7113 -1.3401
   45CHL1  H12B 3289   3.479   1.023   7.421 -0.1335 -1.1571 -3.2072
   45CHL1   C11 3290   3.292   0.966   7.321 -0.8067  0.1883  0.4795
   45CHL1  H11A 3291   3.197   0.921   7.358 -1.2380  0.9135  0.2655
   45CHL1  H11B 3292   3.269   1.075   7.320  1.0674  0.6097  0.3840
   45CHL1    C9 3293   3.339   0.921   7.182  0.1599  0.0176  0.2475
   45CHL1    H9 3294   3.416   0.997   7.157  0.6556 -0.8504 -0.9789
   45CHL1   C10 3295   3.240   0.935   7.063  0.6773 -0.4657  0.6331
   45CHL1   C19 3296   3.111   0.863   7.091 -0.5863 -0.1600  0.1745
   45CHL1  H19A 3297   3.034   0.875   7.012  0.5319  2.3179 -0.6386
   45CHL1  H19B 3298   3.124   0.754   7.104  1.4059  0.2226  2.0308
   45CHL1  H19C 3299   3.066   0.903   7.185 -0.7263 -0.8208  0.3965
   45CHL1    C1 3300   3.213   1.088   7.037  0.5319  0.4131  1.1663
   45CHL1   H1A 3301   3.161   1.123   7.129 -0.0911 -2.0043  1.8034
   45CHL1   H1B 3302   3.315   1.125   7.016  0.6129 -1.3156 -2.0693
   45CHL1    C2 3303   3.126   1.116   6.913  0.0135  0.5337  0.0780
   45CHL1   H2A 3304   3.115   1.224   6.895 -2.1969  0.4795  0.8621
   45CHL1   H2B 3305   3.026   1.068   6.916 -0.0622  0.6953  0.1475
   45CHL1   C20 3306   3.564   0.771   7.679 -1.0527  0.1944 -0.0327
   45CHL1   H20 3307   3.514   0.673   7.694 -1.2032  0.6232  2.9242
   45CHL1   C21 3308   3.476   0.879   7.738  0.2061 -0.3510 -1.1469
   45CHL1  H21A 3309   3.466   0.881   7.848  0.4428 -3.4408 -0.9589
   45CHL1  H21B 3310   3.370   0.869   7.707 -0.3308  1.6363 -0.0655
   45CHL1  H21C 3311   3.508   0.982   7.712 -1.6491  0.8991  1.1875
   45CHL1   C22 3312   3.696   0.754   7.749  0.0050 -0.4804 -0.0027
   45CHL1  H22A 3313   3.763   0.672   7.717  0.6221  0.2433 -0.6226
   45CHL1  H22B 3314   3.753   0.848   7.732 -0.6359 -0.0489  0.2047
   45CHL1   C23 3315   3.688   0.744   7.901  0.1186 -0.3476  0.0718
   45CHL1  H23A 3316   3.639   0.838   7.935 -0.0024 -0.1194 -0.7011
   45CHL1  H23B 3317   3.636   0.654   7.937  1.0687 -0.6085  0.8337
   45CHL1   C24 3318   3.827   0.758   7.966  0.4546  0.6315  0.8660
   45CHL1  H24A 3319   3.899   0.682   7.930  0.1905  1.7245 -2.2447
   45CHL1  H24B 3320   3.874   0.847   7.918 -0.2747 -0.4138 -1.9789
   45CHL1   C25 3321   3.840   0.780   8.119 -0.6747  0.4153 -0.0613
   45CHL1   H25 3322   3.948   0.793   8.141 -1.4666  2.1088  3.5160
   45CHL1   C26 3323   3.764   0.909   8.154 -0.5129 -0.5664 -0.2115
   45CHL1  H26A 3324   3.655   0.898   8.135 -0.5915  1.5295 -1.2734
   45CHL1  H26B 3325   3.780   0.938   8.260 -1.4473 -1.1023  0.0828
   45CHL1  H26C 3326   3.799   0.996   8.095 -2.2977 -0.1389 -0.6972
   45CHL1   C27 3327   3.772   0.667   8.193  0.2691 -0.0155 -0.1743
   45CHL1  H27A 3328   3.670   0.655   8.151 -0.7029 -0.2051  2.1370
   45CHL1  H27B 3329   3.826   0.573   8.170  0.0462 -1.0380  3.0529
   45CHL1  H27C 3330   3.778   0.680   8.303  2.3947  1.4118 -0.3966
   46CHL1    C3 3331   4.037   3.721   7.068 -0.2344 -0.1783 -0.6671
   46CHL1    H3 3332   4.085   3.625   7.096 -1.6080  0.2958  4.3155
   46CHL1    O3 3333   4.065   3.752   6.937  0.6838 -0.4663  0.1043
   46CHL1   H3' 3334   3.998   3.817   6.915 -0.6394 -1.5701  0.7580
   46CHL1    C4 3335   3.887   3.719   7.086 -0.5958 -0.3291  0.0552
   46CHL1   H4A 3336   3.839   3.808   7.040  1.4686  0.7034 -0.2428
   46CHL1   H4B 3337   3.840   3.634   7.033  0.2945 -1.1854  0.6040
   46CHL1    C5 3338   3.855   3.697   7.233  1.0061 -0.5287  0.4093
   46CHL1    C6 3339   3.776   3.598   7.282  0.3760 -0.2144 -0.4096
   46CHL1    H6 3340   3.723   3.530   7.215 -0.0790 -0.6810  0.4166
   46CHL1    C7 3341   3.736   3.578   7.422  0.0152  0.7530  0.6575
   46CHL1   H7A 3342   3.634   3.536   7.417  0.5343 -0.7333  1.8769
   46CHL1   H7B 3343   3.794   3.493   7.464 -0.7743 -0.2327 -0.1909
   46CHL1    C8 3344   3.755   3.710   7.497 -0.8501 -0.1772 -0.0225
   46CHL1    H8 3345   3.673   3.778   7.467 -0.4060 -0.8455 -3.1174
   46CHL1   C14 3346   3.730   3.684   7.643  0.2747  0.5554  0.3207
   46CHL1   H14 3347   3.817   3.623   7.675  0.4129 -0.8119 -2.3635
   46CHL1   C15 3348   3.609   3.592   7.683  0.6818  0.4383 -0.3244
   46CHL1  H15A 3349   3.523   3.605   7.614  0.6793 -4.1392 -1.4731
   46CHL1  H15B 3350   3.631   3.483   7.686 -1.5761 -0.0554  0.1379
   46CHL1   C16 3351   3.575   3.645   7.826  0.3968  0.3855  0.3743
   46CHL1  H16A 3352   3.471   3.685   7.825 -0.3916 -1.5671  0.2069
   46CHL1  H16B 3353   3.566   3.560   7.896 -1.0215  0.8914  0.8324
   46CHL1   C17 3354   3.683   3.751   7.865 -0.5368  0.3820  0.0960
   46CHL1   H17 3355   3.769   3.693   7.905 -1.5117  0.5937  2.7419
   46CHL1   C13 3356   3.740   3.807   7.731  0.0372 -0.1206 -0.1343
   46CHL1   C18 3357   3.633   3.915   7.690 -0.2276  0.1246  0.5402
   46CHL1  H18A 3358   3.645   3.958   7.588 -0.7971 -1.9117 -0.4289
   46CHL1  H18B 3359   3.531   3.872   7.692 -0.7282  1.0525 -1.5722
   46CHL1  H18C 3360   3.629   4.000   7.762  0.4969 -1.4125  2.4931
   46CHL1   C12 3361   3.886   3.854   7.726 -0.3774  0.4297 -0.8733
   46CHL1  H12A 3362   3.904   3.941   7.793 -0.4792  0.0619 -0.3594
   46CHL1  H12B 3363   3.948   3.772   7.768 -0.6393  0.7038  0.0632
   46CHL1   C11 3364   3.925   3.883   7.583 -0.4875  0.4613  0.3800
   46CHL1  H11A 3365   3.880   3.979   7.550 -2.3530 -0.8257 -1.0435
   46CHL1  H11B 3366   4.035   3.900   7.592 -0.3068 -0.4846  0.1058
   46CHL1    C9 3367   3.893   3.771   7.480  0.1150 -0.4240  0.0107
   46CHL1    H9 3368   3.965   3.695   7.517  1.8044  0.8275 -0.6072
   46CHL1   C10 3369   3.917   3.803   7.325 -0.1358  1.0179 -0.9594
   46CHL1   C19 3370   3.849   3.937   7.299  0.7920  0.3949 -0.2311
   46CHL1  H19A 3371   3.744   3.924   7.335  1.6216 -1.1417  1.8452
   46CHL1  H19B 3372   3.893   4.014   7.366  1.2643 -0.7844  0.8548
   46CHL1  H19C 3373   3.849   3.976   7.195  1.3642 -0.1640 -0.4480
   46CHL1    C1 3374   4.071   3.813   7.300  0.5830  0.3075 -0.0439
   46CHL1   H1A 3375   4.112   3.898   7.359 -1.8307  0.6774  1.2475
   46CHL1   H1B 3376   4.130   3.730   7.343 -0.5487  0.7174  2.4641
   46CHL1    C2 3377   4.099   3.833   7.153  0.2411  0.9314 -0.5109
   46CHL1   H2A 3378   4.208   3.822   7.139  0.0334  1.3062 -2.7331
   46CHL1   H2B 3379   4.064   3.932   7.118  0.5599  1.6379  1.0804
   46CHL1   C20 3380   3.636   3.841   7.978 -0.0487 -0.3888 -0.3227
   46CHL1   H20 3381   3.556   3.904   7.934  1.0872  1.1058 -0.3089
   46CHL1   C21 3382   3.745   3.926   8.039  0.3490  0.5369  0.2245
   46CHL1  H21A 3383   3.805   3.982   7.964  1.8010 -2.2099 -0.8142
   46CHL1  H21B 3384   3.814   3.857   8.092 -0.7914  0.7462  2.0530
   46CHL1  H21C 3385   3.700   4.000   8.109  0.4290 -0.0346  0.8917
   46CHL1   C22 3386   3.568   3.767   8.104 -0.4739 -0.3947 -0.5719
   46CHL1  H22A 3387   3.488   3.701   8.064  0.5408 -1.1127 -1.4860
   46CHL1  H22B 3388   3.651   3.708   8.149 -1.0821 -2.0299 -1.5086
   46CHL1   C23 3389   3.497   3.864   8.204  0.0300  0.3348  0.4155
   46CHL1  H23A 3390   3.447   3.795   8.275  0.7979 -1.9316 -1.1090
   46CHL1  H23B 3391   3.567   3.931   8.258  1.7368  0.7823 -2.1393
   46CHL1   C24 3392   3.400   3.952   8.131 -0.4938 -0.2803 -0.2246
   46CHL1  H24A 3393   3.452   4.025   8.065  2.8156  0.8978  3.2994
   46CHL1  H24B 3394   3.328   3.892   8.072 -0.5750 -0.1131 -0.2967
   46CHL1   C25 3395   3.315   4.037   8.229 -0.5099  0.4397  0.7198
   46CHL1   H25 3396   3.389   4.075   8.303  1.5978  0.5362 -1.3122
   46CHL1   C26 3397   3.250   4.160   8.168 -0.2351 -0.0516 -0.0840
   46CHL1  H26A 3398   3.188   4.211   8.245 -1.6020  1.5310 -2.1158
   46CHL1  H26B 3399   3.321   4.237   8.132  1.8258 -0.6112  2.5628
   46CHL1  H26C 3400   3.177   4.137   8.086  0.1725  0.1053 -0.4939
   46CHL1   C27 3401   3.220   3.946   8.312 -0.2183  0.3157  1.1103
   46CHL1  H27A 3402   3.184   4.017   8.389 -1.7068 -0.5083  1.2033
   46CHL1  H27B 3403   3.136   3.903   8.254  1.9151 -0.9309 -1.2849
   46CHL1  H27C 3404   3.259   3.854   8.361 -0.3606  0.1724  0.9577
   47CHL1    C3 3405   1.650   2.452   6.620 -0.9134 -0.5092  0.1280
   47CHL1    H3 3406   1.737   2.384   6.613  1.4727  2.2519  0.7180
   47CHL1    O3 3407   1.608   2.483   6.492  0.0162  0.1204 -0.2415
   47CHL1   H3' 3408   1.679   2.532   6.449 -0.1380  0.0370 -0.5935
   47CHL1    C4 3409   1.536   2.384   6.696  0.4686 -0.1583 -0.3056
   47CHL1   H4A 3410   1.445   2.445   6.682  0.7902  0.0188 -1.8088
   47CHL1   H4B 3411   1.525   2.284   6.649  0.4182 -0.1025 -0.4127
   47CHL1    C5 3412   1.563   2.364   6.849 -0.3827 -0.0584 -0.5968
   47CHL1    C6 3413   1.544   2.244   6.903 -0.2115 -0.3663 -0.2224
   47CHL1    H6 3414   1.508   2.160   6.842 -3.4597  0.3353  0.5227
   47CHL1    C7 3415   1.559   2.208   7.044  0.0753 -1.1115  0.1106
   47CHL1   H7A 3416   1.476   2.145   7.081  1.6264 -3.0297  0.4614
   47CHL1   H7B 3417   1.639   2.131   7.049 -2.4436 -3.9455 -0.3060
   47CHL1    C8 3418   1.598   2.330   7.136  1.0076 -0.0522 -0.1486
   47CHL1    H8 3419   1.504   2.382   7.165  0.5678 -0.1941 -1.2519
   47CHL1   C14 3420   1.663   2.276   7.265  0.5304  0.4172 -0.2600
   47CHL1   H14 3421   1.754   2.232   7.218 -0.5713  0.7085 -2.8205
   47CHL1   C15 3422   1.584   2.166   7.339 -0.1237 -0.0365 -0.3655
   47CHL1  H15A 3423   1.474   2.181   7.345 -0.0896  2.7232 -3.3433
   47CHL1  H15B 3424   1.603   2.069   7.288 -0.5745 -0.4047  0.1578
   47CHL1   C16 3425   1.632   2.181   7.487  0.1627 -0.1685  0.8245
   47CHL1  H16A 3426   1.561   2.229   7.558 -0.4932 -0.0352  0.0891
   47CHL1  H16B 3427   1.669   2.089   7.537  0.4163  0.7279  2.3618
   47CHL1   C17 3428   1.746   2.290   7.482  0.0667 -0.2981 -0.0077
   47CHL1   H17 3429   1.843   2.249   7.445  0.0225  1.8875 -2.9300
   47CHL1   C13 3430   1.706   2.385   7.367 -0.2156  0.3045  0.4652
   47CHL1   C18 3431   1.595   2.479   7.408  0.6342 -0.0794 -0.3707
   47CHL1  H18A 3432   1.503   2.428   7.446  0.5954 -0.3184 -0.7781
   47CHL1  H18B 3433   1.628   2.552   7.484 -1.2527  1.4931 -0.9623
   47CHL1  H18C 3434   1.567   2.541   7.320  3.6874  0.7752 -0.8555
   47CHL1   C12 3435   1.813   2.469   7.291  0.0661  0.3741 -0.3385
   47CHL1  H12A 3436   1.839   2.554   7.358  2.5272 -1.0260  0.6169
   47CHL1  H12B 3437   1.893   2.394   7.272 -1.8964 -1.3769 -2.1714
   47CHL1   C11 3438   1.765   2.526   7.160 -0.1730  0.2388  0.1275
   47CHL1  H11A 3439   1.696   2.608   7.188 -0.3838  0.3361 -0.6488
   47CHL1  H11B 3440   1.851   2.568   7.104 -0.0628  2.1846  1.6578
   47CHL1    C9 3441   1.690   2.422   7.065  0.4387 -0.4718  0.4643
   47CHL1    H9 3442   1.770   2.352   7.033 -1.0236 -0.3643 -4.0825
   47CHL1   C10 3443   1.626   2.480   6.934 -0.1023  0.1419 -0.2031
   47CHL1   C19 3444   1.530   2.586   6.971  0.0886 -0.2937  0.4094
   47CHL1  H19A 3445   1.437   2.568   7.028 -0.2618 -0.9758 -0.3552
   47CHL1  H19B 3446   1.577   2.670   7.026  2.6625  0.7983 -3.0862
   47CHL1  H19C 3447   1.501   2.635   6.875 -0.7999  0.2970  0.9647
   47CHL1    C1 3448   1.735   2.545   6.845  0.8127  1.0537 -0.2635
   47CHL1   H1A 3449   1.775   2.636   6.895  1.4597 -0.2125  1.6049
   47CHL1   H1B 3450   1.821   2.475   6.831  0.1535  0.1325  0.2789
   47CHL1    C2 3451   1.702   2.581   6.696  0.0870  0.1893 -0.7304
   47CHL1   H2A 3452   1.786   2.617   6.633  1.0862 -1.6326 -0.5309
   47CHL1   H2B 3453   1.623   2.659   6.695  0.0643  0.2110  0.7015
   47CHL1   C20 3454   1.774   2.357   7.620 -0.9336  0.1957 -0.4606
   47CHL1   H20 3455   1.683   2.417   7.639 -1.3472 -0.0965 -1.4841
   47CHL1   C21 3456   1.886   2.465   7.615 -0.4125  0.0513 -0.2005
   47CHL1  H21A 3457   1.973   2.422   7.561 -0.0875 -1.0602  1.1318
   47CHL1  H21B 3458   1.929   2.486   7.715  1.4100  1.7085 -1.2517
   47CHL1  H21C 3459   1.859   2.563   7.571  2.2545  1.2566  0.6230
   47CHL1   C22 3460   1.805   2.251   7.734  0.1661 -1.1453 -0.2710
   47CHL1  H22A 3461   1.746   2.160   7.713 -0.7648 -0.1750 -2.1640
   47CHL1  H22B 3462   1.909   2.214   7.716  0.8089  1.6445 -3.5696
   47CHL1   C23 3463   1.797   2.296   7.886 -0.0442  0.0076 -0.2732
   47CHL1  H23A 3464   1.825   2.403   7.885 -1.6054  0.4765  1.1669
   47CHL1  H23B 3465   1.690   2.296   7.919  0.7584 -1.5398  2.6827
   47CHL1   C24 3466   1.879   2.203   7.980  0.2251 -0.1878 -0.6794
   47CHL1  H24A 3467   1.886   2.094   7.960 -1.2231 -1.1479  3.1013
   47CHL1  H24B 3468   1.977   2.255   7.980 -0.9728  2.2051  1.0963
   47CHL1   C25 3469   1.850   2.204   8.133 -0.0906  0.4543 -0.2900
   47CHL1   H25 3470   1.913   2.132   8.192 -2.2718 -0.2842  1.2687
   47CHL1   C26 3471   1.896   2.342   8.184 -0.7214 -0.1040  0.1582
   47CHL1  H26A 3472   1.844   2.426   8.133  0.7955 -0.6638 -2.5279
   47CHL1  H26B 3473   1.880   2.348   8.294  3.1889  0.0463  0.8594
   47CHL1  H26C 3474   1.999   2.381   8.171 -0.3565 -1.0335  0.1579
   47CHL1   C27 3475   1.709   2.158   8.160  0.2172  0.2397  0.0139
   47CHL1  H27A 3476   1.689   2.061   8.110  0.9891  0.2710 -0.3667
   47CHL1  H27B 3477   1.671   2.155   8.265  0.7288  0.0140  0.1963
   47CHL1  H27C 3478   1.642   2.219   8.095  0.7871 -2.4827 -3.3758
   48CHL1    C3 3479   1.510   4.443   6.663  0.9875 -0.0187  0.9830
   48CHL1    H3 3480   1.565   4.536   6.687  1.0922  0.2892 -0.3541
   48CHL1    O3 3481   1.546   4.421   6.527 -0.4671  0.3492  0.0252
   48CHL1   H3' 3482   1.532   4.326   6.514  2.6621 -0.2987  0.6203
   48CHL1    C4 3483   1.549   4.326   6.752  0.3247 -0.0087 -0.2993
   48CHL1   H4A 3484   1.490   4.236   6.724  0.6693  0.0007 -1.0915
   48CHL1   H4B 3485   1.653   4.299   6.723  0.0704 -1.6234  0.1844
   48CHL1    C5 3486   1.516   4.362   6.891 -0.4264  0.5629 -0.4341
   48CHL1    C6 3487   1.622   4.375   6.981 -0.3330  0.2050  0.2352
   48CHL1    H6 3488   1.723   4.351   6.945 -1.0034  1.4908 -2.8164
   48CHL1    C7 3489   1.596   4.409   7.126 -0.4154 -0.6220  0.4997
   48CHL1   H7A 3490   1.654   4.347   7.197  0.5431  0.9650  1.1624
   48CHL1   H7B 3491   1.621   4.517   7.138 -0.6271 -0.5251  0.0933
   48CHL1    C8 3492   1.449   4.398   7.172  0.1665 -0.0057 -0.3933
   48CHL1    H8 3493   1.427   4.289   7.179  0.6982 -0.0136  1.7909
   48CHL1   C14 3494   1.424   4.471   7.307 -0.1959  0.1447 -0.2875
   48CHL1   H14 3495   1.456   4.576   7.294 -0.2348 -0.0725 -2.4735
   48CHL1   C15 3496   1.508   4.425   7.429  0.0899 -0.2047  0.0927
   48CHL1  H15A 3497   1.504   4.314   7.436  0.5488 -0.1363  1.9246
   48CHL1  H15B 3498   1.611   4.461   7.407  0.2298 -1.5318 -1.6923
   48CHL1   C16 3499   1.436   4.494   7.546 -0.7379 -0.1156 -0.4293
   48CHL1  H16A 3500   1.423   4.423   7.632 -1.3433 -0.3046 -0.6719
   48CHL1  H16B 3501   1.496   4.577   7.588 -0.8471 -0.2295 -0.0350
   48CHL1   C17 3502   1.302   4.553   7.496  0.1987 -0.4656  0.2703
   48CHL1   H17 3503   1.325   4.658   7.469  1.2263 -0.5679  0.7273
   48CHL1   C13 3504   1.279   4.481   7.358 -0.0194 -0.2432 -0.1378
   48CHL1   C18 3505   1.212   4.342   7.394  0.8758 -0.2763 -0.5109
   48CHL1  H18A 3506   1.102   4.358   7.396  1.0263  0.7611  0.3057
   48CHL1  H18B 3507   1.234   4.264   7.319 -0.6484 -1.8296  0.5731
   48CHL1  H18C 3508   1.244   4.309   7.495 -1.7553  0.4078  0.6411
   48CHL1   C12 3509   1.203   4.557   7.250  0.0240  0.2713  0.7246
   48CHL1  H12A 3510   1.095   4.570   7.275 -0.0567  0.9049  0.0804
   48CHL1  H12B 3511   1.243   4.659   7.237  0.5594 -0.1664 -1.3498
   48CHL1   C11 3512   1.209   4.484   7.114  0.5773 -0.0766 -0.4439
   48CHL1  H11A 3513   1.171   4.384   7.145  3.8992 -0.1152  4.6883
   48CHL1  H11B 3514   1.141   4.532   7.040 -0.8673  1.5454  1.8237
   48CHL1    C9 3515   1.361   4.464   7.061  0.4264  0.1237 -0.0746
   48CHL1    H9 3516   1.396   4.567   7.042 -3.1916  1.2834 -1.3181
   48CHL1   C10 3517   1.372   4.400   6.917  0.3813 -0.4007 -0.8910
   48CHL1   C19 3518   1.290   4.266   6.910 -0.6098  0.5143 -0.5897
   48CHL1  H19A 3519   1.317   4.207   6.819 -0.5981  0.9328 -0.8592
   48CHL1  H19B 3520   1.302   4.200   6.998 -1.0077  1.5129  0.2264
   48CHL1  H19C 3521   1.180   4.281   6.914 -0.7150 -0.4074  0.9362
   48CHL1    C1 3522   1.329   4.504   6.812 -1.0423  0.8036  0.1058
   48CHL1   H1A 3523   1.219   4.518   6.819 -1.0617  0.0594  1.5043
   48CHL1   H1B 3524   1.380   4.602   6.821  2.0458 -0.6418 -0.2743
   48CHL1    C2 3525   1.359   4.465   6.667 -0.4864  0.5511  0.1936
   48CHL1   H2A 3526   1.319   4.535   6.590  0.6412 -1.9329 -2.8990
   48CHL1   H2B 3527   1.319   4.364   6.644  0.8394 -0.1780  0.9706
   48CHL1   C20 3528   1.193   4.560   7.595  0.5437 -0.1998 -0.1330
   48CHL1   H20 3529   1.163   4.458   7.627  3.0028 -0.8236  0.3358
   48CHL1   C21 3530   1.070   4.627   7.528 -0.0536  0.1190 -0.4945
   48CHL1  H21A 3531   1.009   4.561   7.462 -0.4908  0.1461 -0.1288
   48CHL1  H21B 3532   1.089   4.720   7.471 -0.2250  1.2392  1.2140
   48CHL1  H21C 3533   0.993   4.647   7.606  1.5887 -1.6239  1.7094
   48CHL1   C22 3534   1.236   4.642   7.726 -0.4606 -0.4594 -0.0923
   48CHL1  H22A 3535   1.333   4.597   7.757 -1.1241 -0.4903  2.1515
   48CHL1  H22B 3536   1.256   4.749   7.703  1.2608  0.1339  3.4505
   48CHL1   C23 3537   1.142   4.629   7.846 -0.2944 -0.4970 -0.6406
   48CHL1  H23A 3538   1.038   4.663   7.829  0.0758  0.1302 -1.7094
   48CHL1  H23B 3539   1.127   4.523   7.876  1.8831 -0.6848 -0.0677
   48CHL1   C24 3540   1.198   4.699   7.971  0.1813 -0.8443 -0.2577
   48CHL1  H24A 3541   1.306   4.672   7.969  0.0019 -2.2199 -5.3028
   48CHL1  H24B 3542   1.209   4.807   7.949  2.0814 -1.1360 -0.9855
   48CHL1   C25 3543   1.121   4.680   8.101 -0.1383  0.3666  0.1389
   48CHL1   H25 3544   1.101   4.572   8.118 -0.1318  0.6241  1.9277
   48CHL1   C26 3545   1.189   4.731   8.221 -0.8275 -0.7364 -0.6980
   48CHL1  H26A 3546   1.288   4.683   8.229 -2.0384 -3.2125  0.8640
   48CHL1  H26B 3547   1.201   4.840   8.204  1.0737 -0.7555  0.2953
   48CHL1  H26C 3548   1.136   4.706   8.316 -1.1921 -0.3256 -0.7878
   48CHL1   C27 3549   0.993   4.760   8.094 -0.4183  0.4624 -0.1650
   48CHL1  H27A 3550   0.943   4.784   8.190  0.6174 -1.0184  0.7666
   48CHL1  H27B 3551   1.008   4.846   8.024  0.8017 -0.2466 -0.8052
   48CHL1  H27C 3552   0.917   4.701   8.039 -1.5612 -0.2085  2.0484
   49CHL1    C3 3553   5.236   2.056   6.512 -0.2603  0.2879 -0.7479
   49CHL1    H3 3554   5.307   2.141   6.503 -0.3904  0.1855 -3.2895
   49CHL1    O3 3555   5.182   2.022   6.379  0.4442 -0.3685 -0.2918
   49CHL1   H3' 3556   5.106   2.079   6.364 -0.0461 -0.6962  0.8386
   49CHL1    C4 3557   5.322   1.931   6.554  0.6278  0.4407 -0.1954
   49CHL1   H4A 3558   5.271   1.833   6.542  2.1988 -0.4863  0.3341
   49CHL1   H4B 3559   5.408   1.927   6.484  0.0008  0.5784 -0.9785
   49CHL1    C5 3560   5.373   1.934   6.698 -0.3278 -0.1899 -0.1604
   49CHL1    C6 3561   5.499   1.915   6.726  0.0737 -0.3334 -0.1534
   49CHL1    H6 3562   5.563   1.883   6.642 -0.5140 -0.9855 -0.3672
   49CHL1    C7 3563   5.557   1.916   6.871 -0.0820  0.0354  0.6058
   49CHL1   H7A 3564   5.620   1.826   6.888  0.1203  0.6015  3.1389
   49CHL1   H7B 3565   5.620   2.007   6.869 -0.5910  0.3989 -1.1722
   49CHL1    C8 3566   5.446   1.919   6.978  0.2012 -0.1578 -0.0027
   49CHL1    H8 3567   5.410   1.815   6.997  0.0437  0.1023  1.2443
   49CHL1   C14 3568   5.508   1.976   7.103 -0.1148  0.1749  0.6874
   49CHL1   H14 3569   5.551   2.076   7.081  1.2292 -0.3338  0.8815
   49CHL1   C15 3570   5.626   1.899   7.149 -0.4609  0.8341 -0.2497
   49CHL1  H15A 3571   5.616   1.790   7.131  1.3404  0.8859 -2.0049
   49CHL1  H15B 3572   5.718   1.926   7.092  0.7063  0.1514  1.2318
   49CHL1   C16 3573   5.642   1.926   7.306 -0.3688 -0.6149  1.0905
   49CHL1  H16A 3574   5.640   1.828   7.359 -0.3295 -0.9845  0.4304
   49CHL1  H16B 3575   5.733   1.981   7.339 -1.2041  0.5306  1.5392
   49CHL1   C17 3576   5.515   2.012   7.346 -0.2524  0.4140 -0.2743
   49CHL1   H17 3577   5.536   2.118   7.323 -1.6791  1.1562  1.5574
   49CHL1   C13 3578   5.415   1.979   7.231  0.8501  0.4449 -0.1522
   49CHL1   C18 3579   5.337   1.847   7.253 -0.3999  0.6095  0.0348
   49CHL1  H18A 3580   5.395   1.776   7.316 -3.3869 -2.0680  0.0014
   49CHL1  H18B 3581   5.246   1.873   7.312 -1.5155 -0.9721 -0.9142
   49CHL1  H18C 3582   5.303   1.806   7.155  0.7994  2.9173 -1.4237
   49CHL1   C12 3583   5.313   2.092   7.185  0.3554  0.3793  0.1059
   49CHL1  H12A 3584   5.244   2.113   7.270 -0.6689  0.0367 -0.6284
   49CHL1  H12B 3585   5.376   2.179   7.158  1.3210 -1.2803 -3.5687
   49CHL1   C11 3586   5.233   2.058   7.054 -0.4967  0.2181  0.7824
   49CHL1  H11A 3587   5.162   1.979   7.086 -0.0199 -1.0480 -1.1715
   49CHL1  H11B 3588   5.177   2.150   7.027 -1.1038  0.0663  1.4767
   49CHL1    C9 3589   5.329   2.013   6.941 -0.2353 -0.0891  0.5041
   49CHL1    H9 3590   5.383   2.109   6.924 -0.3087  0.3304  2.4124
   49CHL1   C10 3591   5.267   1.973   6.807 -0.4850 -0.0948 -0.4514
   49CHL1   C19 3592   5.179   1.844   6.832  0.3705 -1.0330  0.7053
   49CHL1  H19A 3593   5.092   1.867   6.898 -1.1790  0.1476 -1.5954
   49CHL1  H19B 3594   5.127   1.805   6.742 -0.2567  0.4657  0.3732
   49CHL1  H19C 3595   5.231   1.765   6.890  0.1805 -0.8766  1.0932
   49CHL1    C1 3596   5.192   2.101   6.756 -0.4468 -0.8669  0.3293
   49CHL1   H1A 3597   5.104   2.131   6.817  0.6357  1.2945  0.9349
   49CHL1   H1B 3598   5.262   2.187   6.749 -2.1177  0.4091 -1.5585
   49CHL1    C2 3599   5.135   2.081   6.618  0.4212 -0.1327 -0.0822
   49CHL1   H2A 3600   5.071   2.168   6.592  0.1274  0.3532  2.0969
   49CHL1   H2B 3601   5.073   1.989   6.629  1.2815 -0.3836  4.6816
   49CHL1   C20 3602   5.474   2.004   7.493 -0.1781 -0.3203  0.5978
   49CHL1   H20 3603   5.423   1.906   7.496 -2.6506  0.9111  0.9801
   49CHL1   C21 3604   5.372   2.120   7.509  0.0234 -0.4643 -0.4317
   49CHL1  H21A 3605   5.417   2.210   7.462 -1.5820 -0.9426 -3.0908
   49CHL1  H21B 3606   5.343   2.148   7.612  0.6040 -1.1881 -0.0567
   49CHL1  H21C 3607   5.277   2.093   7.458  0.8303 -0.6609 -1.8893
   49CHL1   C22 3608   5.601   1.988   7.591 -0.0055  0.3469  0.4591
   49CHL1  H22A 3609   5.655   1.896   7.559  1.5308  1.5451 -0.4835
   49CHL1  H22B 3610   5.667   2.077   7.591 -0.4781  0.7057  0.8961
   49CHL1   C23 3611   5.548   1.977   7.732 -0.0122  0.1435 -0.4686
   49CHL1  H23A 3612   5.514   2.079   7.758 -1.8362  0.4265 -3.4660
   49CHL1  H23B 3613   5.473   1.897   7.753  1.4473 -0.9004  1.1420
   49CHL1   C24 3614   5.665   1.963   7.829 -0.0475  0.5997 -0.0105
   49CHL1  H24A 3615   5.727   1.876   7.799  0.4697  0.5034  1.2899
   49CHL1  H24B 3616   5.736   2.048   7.815 -0.3260  1.1229  1.5921
   49CHL1   C25 3617   5.631   1.965   7.986  0.3171 -0.6947 -0.2669
   49CHL1   H25 3618   5.565   1.876   7.993 -0.2616 -0.2534  0.1001
   49CHL1   C26 3619   5.753   1.955   8.074 -0.1859  0.2781 -0.4447
   49CHL1  H26A 3620   5.839   2.025   8.059  0.6064 -0.4760  0.4595
   49CHL1  H26B 3621   5.723   1.974   8.179 -0.1690 -0.3619 -0.3213
   49CHL1  H26C 3622   5.791   1.852   8.059 -1.5535 -0.1390 -1.1800
   49CHL1   C27 3623   5.543   2.083   8.035 -0.0193  0.3645 -0.5352
   49CHL1  H27A 3624   5.479   2.099   7.946  1.2493  1.2769 -1.3163
   49CHL1  H27B 3625   5.486   2.053   8.126  1.7159  0.8626  0.7784
   49CHL1  H27C 3626   5.612   2.168   8.056 -0.5513  0.5984  0.3317
   50CHL1    C3 3627   5.933   1.894   6.652  0.5238  1.2192 -0.0491
   50CHL1    H3 3628   5.832   1.930   6.681  0.0639 -0.4810  0.6305
   50CHL1    O3 3629   5.946   1.895   6.510  0.0927 -0.3617 -0.2006
   50CHL1   H3' 3630   6.032   1.854   6.492  0.7424  0.2919  1.2288
   50CHL1    C4 3631   6.049   1.979   6.704 -0.7265  0.1224  0.0761
   50CHL1   H4A 3632   6.153   1.946   6.682  0.1549  1.3856  2.0693
   50CHL1   H4B 3633   6.049   2.082   6.664  2.4525 -0.3303 -1.3888
   50CHL1    C5 3634   6.042   1.981   6.857  0.2900 -0.7961 -0.0270
   50CHL1    C6 3635   6.013   2.087   6.931  1.0925 -0.4146 -0.3799
   50CHL1    H6 3636   6.004   2.190   6.892  1.2592  0.8710  2.7089
   50CHL1    C7 3637   5.998   2.081   7.080 -0.4937  0.5164 -0.4170
   50CHL1   H7A 3638   6.041   2.173   7.124  2.1807 -0.6816 -0.3797
   50CHL1   H7B 3639   5.889   2.078   7.103 -0.6674  0.4033 -1.2113
   50CHL1    C8 3640   6.071   1.956   7.144  1.0614  0.1499  0.1707
   50CHL1    H8 3641   6.179   1.969   7.122  0.8539  0.4629 -0.7083
   50CHL1   C14 3642   6.058   1.949   7.293  1.1828 -0.3248 -0.4605
   50CHL1   H14 3643   5.950   1.930   7.311  1.4939 -0.7153  1.1355
   50CHL1   C15 3644   6.081   2.075   7.371  0.2406  0.1198 -0.5235
   50CHL1  H15A 3645   6.172   2.128   7.336  0.2117 -0.2382 -1.1493
   50CHL1  H15B 3646   5.999   2.149   7.356 -2.0425 -2.3045 -0.6762
   50CHL1   C16 3647   6.082   2.019   7.511 -0.5224  0.1103  0.0067
   50CHL1  H16A 3648   6.173   2.059   7.561  0.6740  2.3534 -3.6182
   50CHL1  H16B 3649   5.998   2.064   7.570 -1.0806 -1.0334  0.1053
   50CHL1   C17 3650   6.081   1.869   7.511 -0.1040  0.3919  0.6482
   50CHL1   H17 3651   5.977   1.831   7.521 -0.6192  0.7712 -2.3081
   50CHL1   C13 3652   6.125   1.833   7.364  0.5145 -0.1523  0.1578
   50CHL1   C18 3653   6.275   1.855   7.338 -0.0777  0.0578 -0.3773
   50CHL1  H18A 3654   6.296   1.828   7.232 -2.0959  2.2869 -1.4336
   50CHL1  H18B 3655   6.316   1.956   7.357  2.0517 -0.6402 -1.0037
   50CHL1  H18C 3656   6.338   1.776   7.384  0.0841  0.6973  0.5440
   50CHL1   C12 3657   6.068   1.698   7.302 -0.8769  0.1052 -0.0917
   50CHL1  H12A 3658   6.120   1.613   7.352 -1.4973 -0.4155 -0.3161
   50CHL1  H12B 3659   5.959   1.684   7.311 -0.9967  0.9159 -0.2739
   50CHL1   C11 3660   6.081   1.706   7.146 -0.3502 -0.3905 -0.5627
   50CHL1  H11A 3661   6.189   1.683   7.136  0.2481 -1.1551  4.6501
   50CHL1  H11B 3662   6.014   1.628   7.103 -1.6480  0.9391 -1.0250
   50CHL1    C9 3663   6.021   1.834   7.076 -0.2662 -0.2483  0.0197
   50CHL1    H9 3664   5.911   1.824   7.092 -0.3461 -1.7038 -1.1679
   50CHL1   C10 3665   6.054   1.843   6.923  1.0847  0.6155  0.4978
   50CHL1   C19 3666   6.201   1.793   6.904 -0.1828  0.2395 -0.2504
   50CHL1  H19A 3667   6.250   1.837   6.815  1.7081  1.9414  1.5159
   50CHL1  H19B 3668   6.255   1.838   6.991  0.2673  1.2051 -1.0151
   50CHL1  H19C 3669   6.197   1.682   6.909 -1.1376  0.3075  2.7999
   50CHL1    C1 3670   5.960   1.746   6.847 -0.1962 -1.1934  0.2267
   50CHL1   H1A 3671   5.976   1.640   6.874  2.0855 -1.5904 -2.2925
   50CHL1   H1B 3672   5.855   1.761   6.879 -1.4798 -2.0343 -3.1923
   50CHL1    C2 3673   5.953   1.754   6.691 -0.0185  0.0860  0.0805
   50CHL1   H2A 3674   5.862   1.698   6.662  1.0133 -2.1524  0.9249
   50CHL1   H2B 3675   6.039   1.704   6.642  0.6748 -0.6995  1.9987
   50CHL1   C20 3676   6.157   1.807   7.632  1.0418 -0.2566 -0.0684
   50CHL1   H20 3677   6.260   1.850   7.635  1.3810 -1.0658  2.4745
   50CHL1   C21 3678   6.171   1.657   7.608  0.0288 -0.0060 -0.2028
   50CHL1  H21A 3679   6.245   1.622   7.532  0.4233 -1.7186  0.9078
   50CHL1  H21B 3680   6.073   1.612   7.581  0.8226 -1.2367 -1.1564
   50CHL1  H21C 3681   6.197   1.613   7.706  0.3446  0.7296  0.0521
   50CHL1   C22 3682   6.092   1.841   7.766  0.2319  0.4313  0.4408
   50CHL1  H22A 3683   6.049   1.943   7.757  1.5458  0.8549 -1.5627
   50CHL1  H22B 3684   5.997   1.785   7.775  0.7962 -0.9473 -1.5986
   50CHL1   C23 3685   6.163   1.820   7.896 -0.7609  0.5884  0.0747
   50CHL1  H23A 3686   6.202   1.716   7.897 -0.2883  0.7677  0.4466
   50CHL1  H23B 3687   6.243   1.897   7.894 -1.6695  1.5443 -1.0687
   50CHL1   C24 3688   6.087   1.848   8.020  0.6399 -0.5917 -0.4679
   50CHL1  H24A 3689   6.092   1.958   8.031  0.7601 -0.5418 -0.9724
   50CHL1  H24B 3690   5.986   1.812   7.989  1.4169 -3.1677 -0.2863
   50CHL1   C25 3691   6.135   1.772   8.146  0.0397 -0.7342 -0.4137
   50CHL1   H25 3692   6.140   1.666   8.112  0.0565 -0.3981 -1.5125
   50CHL1   C26 3693   6.286   1.804   8.185 -0.2531 -0.4313 -0.6489
   50CHL1  H26A 3694   6.312   1.737   8.270 -0.9505  0.8602  0.6349
   50CHL1  H26B 3695   6.359   1.793   8.102  0.9540  0.3246  0.2776
   50CHL1  H26C 3696   6.300   1.907   8.226 -0.5681 -0.6382 -0.0037
   50CHL1   C27 3697   6.037   1.781   8.260  0.1282  0.1535 -1.1092
   50CHL1  H27A 3698   6.066   1.705   8.335  1.0248 -0.3782 -1.9697
   50CHL1  H27B 3699   6.028   1.884   8.300 -0.2046  0.2567 -1.4335
   50CHL1  H27C 3700   5.936   1.752   8.223 -0.3490  0.5765 -0.1729
   51CHL1    C3 3701   0.522   1.260   6.749  0.1062  0.9321  0.0407
   51CHL1    H3 3702   0.551   1.362   6.782 -3.0298  2.0609 -0.2703
   51CHL1    O3 3703   0.470   1.259   6.620  0.5269  0.2204  0.3400
   51CHL1   H3' 3704   0.541   1.287   6.561 -0.6811  0.4279 -1.0858
   51CHL1    C4 3705   0.631   1.161   6.757  0.5377 -0.0730 -0.1808
   51CHL1   H4A 3706   0.582   1.064   6.736  1.1223 -0.3722 -0.1737
   51CHL1   H4B 3707   0.705   1.185   6.679 -0.4214  0.7216 -0.8679
   51CHL1    C5 3708   0.683   1.173   6.901 -0.8662  0.3542 -0.8639
   51CHL1    C6 3709   0.808   1.217   6.925  0.6703 -1.1089 -0.4595
   51CHL1    H6 3710   0.865   1.237   6.833  0.5708  0.1545 -0.2697
   51CHL1    C7 3711   0.863   1.231   7.060 -0.3062  0.0371 -0.2423
   51CHL1   H7A 3712   0.970   1.201   7.067 -0.6117 -0.9380  0.5065
   51CHL1   H7B 3713   0.862   1.338   7.090 -1.4836  0.2040 -0.8312
   51CHL1    C8 3714   0.792   1.152   7.173 -1.2870 -0.1135  0.2591
   51CHL1    H8 3715   0.813   1.043   7.165 -0.6284  0.0468 -0.2731
   51CHL1   C14 3716   0.835   1.190   7.310 -0.8212 -0.2673 -0.5572
   51CHL1   H14 3717   0.805   1.296   7.323  1.4809  0.5489 -1.3848
   51CHL1   C15 3718   0.988   1.200   7.347  0.1035 -1.1779  0.4947
   51CHL1  H15A 3719   1.027   1.096   7.340  0.6046 -1.1096  1.8916
   51CHL1  H15B 3720   1.043   1.278   7.290 -0.5932 -0.2544  1.0687
   51CHL1   C16 3721   0.982   1.225   7.496 -0.4963 -0.2322  0.3683
   51CHL1  H16A 3722   1.050   1.149   7.539  0.1931 -1.2051 -2.2347
   51CHL1  H16B 3723   1.020   1.326   7.520 -0.1260  0.0522 -1.2919
   51CHL1   C17 3724   0.841   1.186   7.544  0.1847  0.6504 -0.6665
   51CHL1   H17 3725   0.790   1.284   7.557 -2.7983 -0.7918 -0.6449
   51CHL1   C13 3726   0.762   1.122   7.425 -0.3752  0.6994 -0.3142
   51CHL1   C18 3727   0.791   0.966   7.417 -0.6970 -0.4159 -0.1295
   51CHL1  H18A 3728   0.734   0.923   7.502 -0.1401  0.9915  0.9963
   51CHL1  H18B 3729   0.751   0.925   7.321  1.7362 -1.2724 -0.8380
   51CHL1  H18C 3730   0.899   0.940   7.418  0.1554  2.7127 -0.0563
   51CHL1   C12 3731   0.611   1.160   7.417  0.0287 -0.3108 -0.3447
   51CHL1  H12A 3732   0.551   1.107   7.494  2.4101 -1.8956  0.5646
   51CHL1  H12B 3733   0.599   1.270   7.416  2.3443 -0.0038 -1.2252
   51CHL1   C11 3734   0.559   1.115   7.279  0.9396  1.0598 -0.3622
   51CHL1  H11A 3735   0.548   1.005   7.278  0.5434  1.0456  1.4042
   51CHL1  H11B 3736   0.458   1.158   7.262  0.6180  1.2269  1.6721
   51CHL1    C9 3737   0.642   1.170   7.158  0.7717 -0.1359 -0.0948
   51CHL1    H9 3738   0.624   1.279   7.166  0.7528 -0.1333 -0.1704
   51CHL1   C10 3739   0.585   1.132   7.014  0.3876 -0.7292  0.0725
   51CHL1   C19 3740   0.551   0.983   6.995  0.7902 -0.1495 -0.4675
   51CHL1  H19A 3741   0.479   0.948   7.072  0.4503  1.0581 -0.2100
   51CHL1  H19B 3742   0.505   0.955   6.898  1.5391 -0.5661 -0.7178
   51CHL1  H19C 3743   0.646   0.926   7.011  0.8250 -0.2365 -0.9688
   51CHL1    C1 3744   0.450   1.211   6.995  0.0645 -0.5225  0.3691
   51CHL1   H1A 3745   0.365   1.160   7.046 -2.4973  1.0127 -2.1059
   51CHL1   H1B 3746   0.454   1.313   7.040  1.6829  0.2104 -1.3288
   51CHL1    C2 3747   0.397   1.220   6.847 -0.5840  0.0106  0.0609
   51CHL1   H2A 3748   0.315   1.294   6.841 -0.5205  0.2969  2.0872
   51CHL1   H2B 3749   0.365   1.115   6.827 -1.0513  0.2545 -0.5135
   51CHL1   C20 3750   0.837   1.111   7.689  0.1752 -0.1947  0.2493
   51CHL1   H20 3751   0.889   1.014   7.671 -0.6898 -0.7242  0.5405
   51CHL1   C21 3752   0.690   1.095   7.747 -0.2367  0.0817 -0.7686
   51CHL1  H21A 3753   0.695   1.055   7.850  0.5215  0.4427 -0.6524
   51CHL1  H21B 3754   0.636   1.028   7.677 -1.6719  0.4071 -0.0036
   51CHL1  H21C 3755   0.631   1.189   7.740 -0.5127 -0.1256 -1.3274
   51CHL1   C22 3756   0.935   1.173   7.796 -0.6502  0.2568  0.0619
   51CHL1  H22A 3757   1.029   1.211   7.751 -0.4278  2.0089  1.8549
   51CHL1  H22B 3758   0.883   1.264   7.832 -0.1096  0.8169 -0.5477
   51CHL1   C23 3759   0.983   1.079   7.909 -0.0891  0.3388 -0.3515
   51CHL1  H23A 3760   0.895   1.036   7.961  0.4294 -1.6548 -1.0494
   51CHL1  H23B 3761   1.028   0.994   7.854 -1.7137 -0.6260 -0.2667
   51CHL1   C24 3762   1.081   1.136   8.014  0.1468  0.3243  0.1474
   51CHL1  H24A 3763   1.181   1.167   7.978  0.6478 -0.5294  0.7757
   51CHL1  H24B 3764   1.022   1.224   8.048 -1.0246 -0.2942 -0.2051
   51CHL1   C25 3765   1.123   1.030   8.126  0.2873  0.7484 -0.1918
   51CHL1   H25 3766   1.025   1.014   8.176 -0.5348 -0.3780 -2.0531
   51CHL1   C26 3767   1.195   0.900   8.085  0.2582 -0.8223  0.2860
   51CHL1  H26A 3768   1.124   0.840   8.024 -0.1449  0.2209 -0.3002
   51CHL1  H26B 3769   1.290   0.920   8.032  0.5085 -1.0947  0.6303
   51CHL1  H26C 3770   1.214   0.836   8.174  2.4538 -2.2150 -1.1245
   51CHL1   C27 3771   1.215   1.112   8.213 -0.7161  0.1151  0.2737
   51CHL1  H27A 3772   1.219   1.064   8.313 -0.5526 -1.7367 -0.5662
   51CHL1  H27B 3773   1.320   1.117   8.177 -1.8883  1.9934 -3.4375
   51CHL1  H27C 3774   1.188   1.218   8.227  0.7184  0.6969 -0.9929
   52CHL1    C3 3775   6.571   0.360   6.657  0.3279  0.3864 -0.2259
   52CHL1    H3 3776   6.560   0.250   6.666 -1.3766  0.2927 -2.3501
   52CHL1    O3 3777   6.545   0.405   6.526  0.0531 -0.3440  0.0290
   52CHL1   H3' 3778   6.527   0.497   6.543 -0.0616 -0.6434  1.6650
   52CHL1    C4 3779   6.465   0.417   6.755  0.1008 -0.6234  0.1379
   52CHL1   H4A 3780   6.452   0.525   6.734 -1.9225 -0.9009 -0.1808
   52CHL1   H4B 3781   6.371   0.377   6.713  0.1313  1.6472 -2.3376
   52CHL1    C5 3782   6.499   0.394   6.903 -0.3534 -0.2324 -0.2952
   52CHL1    C6 3783   6.416   0.330   6.985  0.0672  0.2216  0.1877
   52CHL1    H6 3784   6.314   0.315   6.949 -0.6246  1.7861  1.3319
   52CHL1    C7 3785   6.448   0.294   7.129  0.1794 -0.4065  0.0683
   52CHL1   H7A 3786   6.367   0.299   7.204  1.3067  0.5710  1.2726
   52CHL1   H7B 3787   6.487   0.190   7.127  0.2593 -0.3892  0.7120
   52CHL1    C8 3788   6.565   0.382   7.183  0.4387 -0.5044 -0.5398
   52CHL1    H8 3789   6.522   0.484   7.193 -1.1149 -1.1108 -0.7708
   52CHL1   C14 3790   6.611   0.323   7.322  0.4013  0.0502 -0.2403
   52CHL1   H14 3791   6.647   0.221   7.298 -0.3441 -0.3926  0.4800
   52CHL1   C15 3792   6.507   0.322   7.434 -0.2794  0.2406  0.7726
   52CHL1  H15A 3793   6.455   0.420   7.445 -2.0384 -0.6337  0.6057
   52CHL1  H15B 3794   6.422   0.253   7.415 -0.0893 -0.4136  2.1847
   52CHL1   C16 3795   6.590   0.299   7.562  0.5082  0.0902  0.0446
   52CHL1  H16A 3796   6.565   0.366   7.647 -0.0219  1.7890 -1.3972
   52CHL1  H16B 3797   6.560   0.198   7.596  1.2579 -0.5174 -1.0492
   52CHL1   C17 3798   6.739   0.326   7.523  0.3025  0.5525  0.6186
   52CHL1   H17 3799   6.785   0.227   7.502 -0.4781  0.3534 -0.2191
   52CHL1   C13 3800   6.726   0.399   7.386 -0.9069  0.5051 -0.1547
   52CHL1   C18 3801   6.694   0.550   7.410  0.3681  0.3732 -0.0290
   52CHL1  H18A 3802   6.677   0.606   7.315 -0.0457  3.0282  1.4847
   52CHL1  H18B 3803   6.604   0.570   7.472 -0.1790 -0.1024 -0.6539
   52CHL1  H18C 3804   6.781   0.602   7.455 -0.4410  1.4127  0.4003
   52CHL1   C12 3805   6.851   0.390   7.294  0.4077 -0.8416  0.2071
   52CHL1  H12A 3806   6.946   0.435   7.331  1.5097 -3.7330  1.1515
   52CHL1  H12B 3807   6.873   0.285   7.266  1.6894 -0.5677  0.1011
   52CHL1   C11 3808   6.811   0.444   7.155  0.4632 -0.0472  0.2873
   52CHL1  H11A 3809   6.807   0.555   7.163  0.1117  0.0575 -1.1505
   52CHL1  H11B 3810   6.892   0.428   7.081  0.9650  1.1222  0.5531
   52CHL1    C9 3811   6.684   0.388   7.089 -0.2056 -0.3928  0.3009
   52CHL1    H9 3812   6.708   0.281   7.076 -2.8785 -1.2819  1.8834
   52CHL1   C10 3813   6.646   0.436   6.944  0.3531  0.1411  0.2360
   52CHL1   C19 3814   6.674   0.598   6.937 -0.1578  0.4429 -0.1855
   52CHL1  H19A 3815   6.648   0.627   6.833 -0.1321 -0.4716 -0.4574
   52CHL1  H19B 3816   6.612   0.651   7.012 -1.4549 -1.8165  0.4204
   52CHL1  H19C 3817   6.782   0.623   6.952  1.0960 -2.7969 -2.4889
   52CHL1    C1 3818   6.742   0.370   6.838 -0.5923 -0.1514 -0.1895
   52CHL1   H1A 3819   6.841   0.414   6.861 -0.6629 -0.2476  0.3236
   52CHL1   H1B 3820   6.744   0.262   6.865 -2.7346 -0.2783 -0.3653
   52CHL1    C2 3821   6.704   0.402   6.695 -0.2254 -0.2134  0.7432
   52CHL1   H2A 3822   6.779   0.355   6.628 -0.1019 -0.8001  1.2922
   52CHL1   H2B 3823   6.722   0.506   6.661  0.7911 -0.5417  0.2332
   52CHL1   C20 3824   6.823   0.396   7.640  0.1647 -0.0617 -0.0783
   52CHL1   H20 3825   6.782   0.498   7.657  1.2416  0.4606 -0.4766
   52CHL1   C21 3826   6.975   0.417   7.602 -0.1266  0.1136  0.5401
   52CHL1  H21A 3827   7.023   0.321   7.576 -1.3651 -0.6919  1.1255
   52CHL1  H21B 3828   7.035   0.466   7.682  1.4260 -2.2199  0.8980
   52CHL1  H21C 3829   6.977   0.481   7.511 -0.1113  0.6404  0.9030
   52CHL1   C22 3830   6.827   0.323   7.777 -0.0552  0.1322 -0.0506
   52CHL1  H22A 3831   6.724   0.288   7.796 -0.9012  0.1677 -3.8201
   52CHL1  H22B 3832   6.898   0.237   7.771 -0.0697  0.0686  0.5840
   52CHL1   C23 3833   6.861   0.414   7.897  0.3844 -0.5936  0.1632
   52CHL1  H23A 3834   6.970   0.435   7.897  0.7399 -2.0796  2.2251
   52CHL1  H23B 3835   6.799   0.506   7.889  0.9081 -0.3652 -1.7938
   52CHL1   C24 3836   6.813   0.345   8.028 -0.6861 -0.7479  0.6565
   52CHL1  H24A 3837   6.706   0.316   8.033 -1.0137  0.4022  0.6018
   52CHL1  H24B 3838   6.877   0.255   8.029  1.7912  0.7715 -2.4988
   52CHL1   C25 3839   6.844   0.417   8.156 -0.2542 -0.4451 -0.2337
   52CHL1   H25 3840   6.772   0.500   8.171  0.1522 -0.2589  0.7730
   52CHL1   C26 3841   6.824   0.320   8.278  0.1719  0.0588 -0.5867
   52CHL1  H26A 3842   6.715   0.296   8.285 -0.0340  1.1982  0.3125
   52CHL1  H26B 3843   6.873   0.223   8.258  1.4112  0.5849 -0.1815
   52CHL1  H26C 3844   6.869   0.361   8.371  1.0909 -1.6392 -0.2371
   52CHL1   C27 3845   6.989   0.463   8.166  0.6350  0.3883 -0.7109
   52CHL1  H27A 3846   7.019   0.504   8.265 -2.3311  1.7328 -0.2442
   52CHL1  H27B 3847   7.053   0.374   8.148 -0.2520 -1.0401  2.4212
   52CHL1  H27C 3848   7.004   0.548   8.097  1.2827  0.5802 -0.3413
   53CHL1    C3 3849   4.958   4.759   6.895 -0.0819  0.0113  0.2994
   53CHL1    H3 3850   4.910   4.859   6.901  0.4471  0.4882 -2.1694
   53CHL1    O3 3851   5.026   4.746   6.768 -0.0907  0.8166 -0.4361
   53CHL1   H3' 3852   5.019   4.652   6.748 -0.9391  0.5720  0.9078
   53CHL1    C4 3853   5.059   4.740   7.004  0.8326  0.5825  0.3483
   53CHL1   H4A 3854   5.106   4.642   6.980  0.2974  0.4322 -0.1084
   53CHL1   H4B 3855   5.140   4.815   7.000 -1.6219  3.3355 -1.5734
   53CHL1    C5 3856   5.004   4.736   7.150 -0.8099 -0.1005 -0.4630
   53CHL1    C6 3857   5.047   4.817   7.247  0.0379  0.2463  0.0163
   53CHL1    H6 3858   5.130   4.886   7.230 -0.0811  0.8161  1.6379
   53CHL1    C7 3859   5.003   4.796   7.391 -0.2712  0.4061 -0.1580
   53CHL1   H7A 3860   5.085   4.787   7.466 -0.5178  0.2501  0.0936
   53CHL1   H7B 3861   4.956   4.896   7.406 -0.0115  0.2044  2.4578
   53CHL1    C8 3862   4.897   4.690   7.415 -0.8453 -1.4472 -1.1693
   53CHL1    H8 3863   4.947   4.602   7.459 -1.0405 -1.2406 -0.5217
   53CHL1   C14 3864   4.798   4.744   7.521 -0.2531 -0.0933 -0.3416
   53CHL1   H14 3865   4.743   4.829   7.476  0.2097  0.0201 -0.7022
   53CHL1   C15 3866   4.862   4.791   7.648 -1.3548  0.0733  0.0685
   53CHL1  H15A 3867   4.939   4.719   7.683 -1.5524 -0.7199 -1.0706
   53CHL1  H15B 3868   4.915   4.888   7.646 -1.5053  0.2876  2.6174
   53CHL1   C16 3869   4.739   4.800   7.745  0.6243 -0.4998 -0.5491
   53CHL1  H16A 3870   4.754   4.737   7.835 -0.9265  0.7791  0.6649
   53CHL1  H16B 3871   4.716   4.907   7.768 -0.6138 -0.8637 -0.0170
   53CHL1   C17 3872   4.617   4.732   7.674  0.6711  0.3546 -0.3699
   53CHL1   H17 3873   4.557   4.800   7.611 -1.5278 -1.5329 -0.4589
   53CHL1   C13 3874   4.689   4.646   7.569  0.7102  0.4028  0.3355
   53CHL1   C18 3875   4.747   4.515   7.630  0.2667  0.3023  0.3202
   53CHL1  H18A 3876   4.669   4.448   7.671  0.0030  1.0416  1.0719
   53CHL1  H18B 3877   4.822   4.462   7.567  0.3157  0.6507  0.0792
   53CHL1  H18C 3878   4.805   4.545   7.720 -0.4224 -1.5637  1.4430
   53CHL1   C12 3879   4.606   4.610   7.440  0.5809  0.0323 -0.1626
   53CHL1  H12A 3880   4.536   4.527   7.463 -1.5218  1.8263  0.2697
   53CHL1  H12B 3881   4.542   4.697   7.416  1.8942  0.8479 -0.7795
   53CHL1   C11 3882   4.695   4.575   7.324 -0.2229  0.5912  0.0109
   53CHL1  H11A 3883   4.741   4.477   7.348  1.6045  1.2005 -0.8402
   53CHL1  H11B 3884   4.624   4.551   7.242 -2.0956  0.8037  1.4937
   53CHL1    C9 3885   4.812   4.669   7.296  0.0540 -0.1283 -0.1560
   53CHL1    H9 3886   4.775   4.771   7.272  2.9695  1.4230  1.3210
   53CHL1   C10 3887   4.889   4.634   7.171 -1.2835  0.3977  0.5432
   53CHL1   C19 3888   4.955   4.495   7.176 -0.2284  0.5639 -0.3081
   53CHL1  H19A 3889   4.883   4.411   7.190 -0.1907  0.5963  0.0910
   53CHL1  H19B 3890   5.021   4.475   7.089 -0.5395  0.3894 -0.5048
   53CHL1  H19C 3891   5.016   4.494   7.268 -1.8393 -1.3610  0.8199
   53CHL1    C1 3892   4.786   4.641   7.044 -0.9410 -0.3605  0.0530
   53CHL1   H1A 3893   4.719   4.554   7.064 -1.5122  0.7228  3.5684
   53CHL1   H1B 3894   4.734   4.739   7.049  1.2054  1.0649 -2.6593
   53CHL1    C2 3895   4.851   4.642   6.903  0.1319 -0.0867 -0.6692
   53CHL1   H2A 3896   4.768   4.643   6.829  0.3451 -2.5918 -1.0305
   53CHL1   H2B 3897   4.909   4.548   6.890  3.0797  0.7932  3.8257
   53CHL1   C20 3898   4.522   4.655   7.775 -0.4368  0.0616 -0.1347
   53CHL1   H20 3899   4.569   4.575   7.837  0.3560  1.5093  1.2120
   53CHL1   C21 3900   4.397   4.589   7.704 -0.5557  0.0400  0.0467
   53CHL1  H21A 3901   4.438   4.515   7.631 -1.1153 -0.1824 -0.0469
   53CHL1  H21B 3902   4.332   4.658   7.646 -1.5405  0.4657  1.5945
   53CHL1  H21C 3903   4.335   4.550   7.788  0.7577  0.8107  1.4085
   53CHL1   C22 3904   4.466   4.764   7.878  0.8476  0.1275  0.5523
   53CHL1  H22A 3905   4.549   4.816   7.931  0.0721  1.0899  0.8462
   53CHL1  H22B 3906   4.402   4.838   7.826 -1.1130 -1.1842  0.9958
   53CHL1   C23 3907   4.380   4.706   7.995 -0.3962  0.5759  0.1742
   53CHL1  H23A 3908   4.277   4.697   7.954 -0.1089  0.0218 -0.4323
   53CHL1  H23B 3909   4.428   4.609   8.020  1.8589  1.0222 -1.9876
   53CHL1   C24 3910   4.384   4.791   8.124  0.0677  0.0809 -0.0135
   53CHL1  H24A 3911   4.476   4.852   8.127  0.9782 -1.2793  0.7429
   53CHL1  H24B 3912   4.307   4.870   8.117 -0.7232 -0.6817 -0.1830
   53CHL1   C25 3913   4.335   4.708   8.249  0.2495  0.1620 -0.3384
   53CHL1   H25 3914   4.399   4.622   8.274 -1.8458 -1.9978 -1.9159
   53CHL1   C26 3915   4.328   4.809   8.367  0.0924 -0.8087 -0.4744
   53CHL1  H26A 3916   4.243   4.791   8.436 -0.0082 -0.7505 -0.5833
   53CHL1  H26B 3917   4.415   4.793   8.434  1.9860  1.3662 -2.2430
   53CHL1  H26C 3918   4.327   4.914   8.333  0.3655 -0.4414  0.6225
   53CHL1   C27 3919   4.204   4.630   8.238  0.0368  0.1172 -0.1804
   53CHL1  H27A 3920   4.115   4.696   8.232 -0.7702 -1.0111 -1.1297
   53CHL1  H27B 3921   4.211   4.555   8.155  1.2223 -0.8957  0.7882
   53CHL1  H27C 3922   4.183   4.567   8.326 -0.4091  0.4222 -0.0671
   54CHL1    C3 3923   4.200   1.548   6.734  0.0180 -0.6078 -0.3415
   54CHL1    H3 3924   4.202   1.659   6.736  1.9680 -0.6122  0.9610
   54CHL1    O3 3925   4.171   1.509   6.601  0.1689 -0.0845 -0.0217
   54CHL1   H3' 3926   4.117   1.430   6.603  0.4909 -0.3726 -1.3276
   54CHL1    C4 3927   4.342   1.491   6.777  0.6586 -0.0920  0.2766
   54CHL1   H4A 3928   4.347   1.384   6.748 -0.1707 -0.6241  1.9835
   54CHL1   H4B 3929   4.418   1.546   6.717 -0.3198  1.5108  0.4278
   54CHL1    C5 3930   4.359   1.498   6.929 -0.1527 -0.5511 -0.1073
   54CHL1    C6 3931   4.476   1.557   6.974 -0.2848  0.1190 -0.0846
   54CHL1    H6 3932   4.554   1.586   6.902  0.1736  1.6624  0.9836
   54CHL1    C7 3933   4.508   1.568   7.121  0.2608 -0.7654  0.0623
   54CHL1   H7A 3934   4.614   1.541   7.139 -0.1184 -1.4493  1.3467
   54CHL1   H7B 3935   4.498   1.676   7.146  4.2426 -0.7058  2.2156
   54CHL1    C8 3936   4.415   1.487   7.219 -0.5140  0.1258  0.2775
   54CHL1    H8 3937   4.432   1.378   7.210 -1.1650  0.0167  0.3176
   54CHL1   C14 3938   4.439   1.525   7.368  0.6932 -0.5207  0.5115
   54CHL1   H14 3939   4.420   1.634   7.382  1.4479 -0.2833 -0.2327
   54CHL1   C15 3940   4.588   1.511   7.424 -0.2067  0.7718 -0.1421
   54CHL1  H15A 3941   4.627   1.417   7.380  0.4866  1.4889 -1.0986
   54CHL1  H15B 3942   4.652   1.599   7.402 -1.2948  1.4131 -0.8956
   54CHL1   C16 3943   4.572   1.510   7.585  0.2536  0.1272  0.2610
   54CHL1  H16A 3944   4.613   1.413   7.619  0.7129 -0.0351 -0.7207
   54CHL1  H16B 3945   4.629   1.591   7.635  1.3082 -1.4438  1.6795
   54CHL1   C17 3946   4.414   1.507   7.607 -0.6875  0.2782 -0.2654
   54CHL1   H17 3947   4.373   1.609   7.621 -0.0495  0.4406  0.4769
   54CHL1   C13 3948   4.352   1.451   7.470  0.3636  0.0771 -0.4297
   54CHL1   C18 3949   4.373   1.298   7.458 -0.4450 -0.1377 -0.6166
   54CHL1  H18A 3950   4.326   1.260   7.364 -1.6970  0.8089 -0.3929
   54CHL1  H18B 3951   4.481   1.271   7.455 -0.1425  0.9416 -3.7581
   54CHL1  H18C 3952   4.322   1.244   7.540  0.8502  1.9643  1.7241
   54CHL1   C12 3953   4.205   1.493   7.437 -0.3323  0.2742  0.0814
   54CHL1  H12A 3954   4.146   1.418   7.494 -0.0021 -1.2432 -1.4731
   54CHL1  H12B 3955   4.176   1.595   7.469 -0.5406 -0.0194  0.8526
   54CHL1   C11 3956   4.164   1.466   7.283 -0.0413 -0.3839  0.3186
   54CHL1  H11A 3957   4.152   1.356   7.276 -0.0799 -0.4279  1.0280
   54CHL1  H11B 3958   4.067   1.517   7.265 -0.2071 -0.8831 -0.2340
   54CHL1    C9 3959   4.271   1.508   7.176  0.5811 -0.7613 -0.3029
   54CHL1    H9 3960   4.260   1.618   7.179  0.7348 -0.7417 -0.4636
   54CHL1   C10 3961   4.244   1.464   7.028 -0.0105  0.5269 -0.1306
   54CHL1   C19 3962   4.231   1.311   7.032  0.5831 -0.2002  0.4937
   54CHL1  H19A 3963   4.325   1.272   7.076  1.6099  0.4701 -1.0248
   54CHL1  H19B 3964   4.143   1.274   7.088  1.4966 -2.3543  0.6107
   54CHL1  H19C 3965   4.225   1.262   6.932 -0.8016  0.0149  0.4598
   54CHL1    C1 3966   4.109   1.517   6.973 -0.4306  0.0442 -0.1281
   54CHL1   H1A 3967   4.029   1.472   7.035  0.2301  0.1195  0.8003
   54CHL1   H1B 3968   4.117   1.625   6.999 -1.4864  0.3579 -1.0510
   54CHL1    C2 3969   4.083   1.493   6.827  0.3795 -0.1111  0.3590
   54CHL1   H2A 3970   3.982   1.523   6.789 -0.5949 -1.5870  1.6423
   54CHL1   H2B 3971   4.096   1.384   6.813 -2.9299 -0.5573 -0.1324
   54CHL1   C20 3972   4.370   1.436   7.738 -0.8974 -0.4202 -0.3752
   54CHL1   H20 3973   4.380   1.326   7.738  1.3139 -0.2973  1.3651
   54CHL1   C21 3974   4.225   1.473   7.778 -0.2836 -0.1743 -0.3654
   54CHL1  H21A 3975   4.199   1.448   7.883  0.3776 -2.3600 -0.6619
   54CHL1  H21B 3976   4.160   1.416   7.707 -1.7509  1.2796 -0.2536
   54CHL1  H21C 3977   4.205   1.578   7.748 -0.3012 -0.3632 -1.0459
   54CHL1   C22 3978   4.467   1.472   7.862  0.3378  1.0611  0.2242
   54CHL1  H22A 3979   4.443   1.413   7.952  0.3887  2.4892  1.2059
   54CHL1  H22B 3980   4.569   1.437   7.835 -0.1282  1.2056 -1.9744
   54CHL1   C23 3981   4.475   1.620   7.897  0.4070  0.0463  0.3741
   54CHL1  H23A 3982   4.530   1.666   7.813  0.5322 -0.6285  0.0863
   54CHL1  H23B 3983   4.376   1.669   7.906 -0.8018 -1.2947 -3.6556
   54CHL1   C24 3984   4.536   1.642   8.034  0.7190  0.7739  0.3834
   54CHL1  H24A 3985   4.498   1.734   8.083 -2.4392 -0.1528 -0.0655
   54CHL1  H24B 3986   4.505   1.558   8.100 -2.8132  2.3743  0.9472
   54CHL1   C25 3987   4.693   1.649   8.020 -0.4726  0.2309 -0.4755
   54CHL1   H25 3988   4.728   1.583   7.938 -0.8046 -1.3522  0.6154
   54CHL1   C26 3989   4.727   1.795   8.000  0.1648  0.1046 -0.2318
   54CHL1  H26A 3990   4.679   1.857   8.078 -1.2762 -0.1808 -0.8568
   54CHL1  H26B 3991   4.837   1.803   8.014 -0.0676  0.6077  1.5561
   54CHL1  H26C 3992   4.704   1.836   7.899  1.9039 -1.4134 -1.3066
   54CHL1   C27 3993   4.771   1.588   8.142  0.2163 -0.2174  1.2527
   54CHL1  H27A 3994   4.876   1.624   8.147  0.9239 -1.9540 -0.2218
   54CHL1  H27B 3995   4.719   1.622   8.233 -1.1155  0.7945  0.1538
   54CHL1  H27C 3996   4.770   1.478   8.125 -0.4700 -0.0279 -0.0955
   55CHL1    C3 3997   3.697   1.864   7.008 -0.1376  0.2035  0.1417
   55CHL1    H3 3998   3.807   1.864   6.993 -0.1060  1.5613  0.2414
   55CHL1    O3 3999   3.639   1.855   6.880  0.2277  0.3722 -0.1608
   55CHL1   H3' 4000   3.711   1.879   6.821  0.0684 -0.4602 -0.7052
   55CHL1    C4 4001   3.662   1.734   7.092  0.0587  0.0577 -0.4984
   55CHL1   H4A 4002   3.552   1.731   7.102  0.0510 -2.4110 -0.7008
   55CHL1   H4B 4003   3.687   1.636   7.047  4.4990 -0.9742  3.3523
   55CHL1    C5 4004   3.729   1.742   7.229  0.3062  0.2652  0.5086
   55CHL1    C6 4005   3.804   1.648   7.280 -0.2538 -0.5896 -0.1475
   55CHL1    H6 4006   3.836   1.572   7.207  0.8982  0.9685 -1.3479
   55CHL1    C7 4007   3.874   1.655   7.418  0.1363  0.0221  0.7755
   55CHL1   H7A 4008   3.870   1.553   7.463  1.6883 -1.3448 -1.8904
   55CHL1   H7B 4009   3.976   1.697   7.400  0.2297  0.1946  1.6634
   55CHL1    C8 4010   3.805   1.750   7.514  0.2450  0.2283 -0.2175
   55CHL1    H8 4011   3.706   1.715   7.549  0.0173  2.1459  1.2156
   55CHL1   C14 4012   3.889   1.760   7.640  0.4641 -0.4932 -0.6261
   55CHL1   H14 4013   3.993   1.792   7.615  0.0814  1.8484  0.4825
   55CHL1   C15 4014   3.910   1.634   7.726 -0.1197  0.5748 -0.0726
   55CHL1  H15A 4015   3.816   1.575   7.739  1.5224 -1.7717  2.0087
   55CHL1  H15B 4016   3.993   1.570   7.688 -0.2990 -0.2478  0.8721
   55CHL1   C16 4017   3.957   1.685   7.863  0.0462 -0.1944  0.8220
   55CHL1  H16A 4018   3.890   1.625   7.929  0.4058 -0.5964  0.8291
   55CHL1  H16B 4019   4.061   1.657   7.890  0.2122 -0.3772  0.0225
   55CHL1   C17 4020   3.925   1.837   7.862  0.4371  0.2075  0.4818
   55CHL1   H17 4021   4.024   1.880   7.835  0.9959 -1.6428 -0.6588
   55CHL1   C13 4022   3.832   1.859   7.743 -0.6505 -0.4292 -0.1085
   55CHL1   C18 4023   3.695   1.815   7.792 -0.7199 -0.9879  0.2513
   55CHL1  H18A 4024   3.619   1.811   7.711 -0.2576  1.8977 -0.4311
   55CHL1  H18B 4025   3.701   1.718   7.846 -0.2865 -1.9693 -1.4893
   55CHL1  H18C 4026   3.661   1.890   7.866 -0.0363 -1.0644  0.6487
   55CHL1   C12 4027   3.830   1.998   7.674  0.0231 -0.3348 -0.2238
   55CHL1  H12A 4028   3.789   2.083   7.734 -0.6983  0.9685 -2.4585
   55CHL1  H12B 4029   3.926   2.035   7.632 -0.6116 -0.4168 -1.8091
   55CHL1   C11 4030   3.736   1.994   7.545 -0.2228 -0.5141 -0.2998
   55CHL1  H11A 4031   3.640   1.969   7.594  0.2013 -0.0011  0.8180
   55CHL1  H11B 4032   3.730   2.096   7.502  2.8301  0.6409  1.6323
   55CHL1    C9 4033   3.781   1.882   7.443 -0.4305 -0.0800  0.8073
   55CHL1    H9 4034   3.881   1.915   7.406  0.2836 -0.2006  2.5515
   55CHL1   C10 4035   3.691   1.873   7.313  0.1903 -0.0937 -0.1435
   55CHL1   C19 4036   3.542   1.863   7.341 -0.3302 -0.0067  0.3824
   55CHL1  H19A 4037   3.533   1.763   7.387  0.2360 -0.3958 -0.3270
   55CHL1  H19B 4038   3.501   1.933   7.417 -0.8561 -2.6221  2.6633
   55CHL1  H19C 4039   3.481   1.865   7.248 -0.5746 -1.3174  0.5081
   55CHL1    C1 4040   3.724   1.992   7.224  0.4289 -0.8318  0.1897
   55CHL1   H1A 4041   3.677   2.080   7.272  1.0157  0.2430 -1.1405
   55CHL1   H1B 4042   3.833   2.012   7.223  0.5092 -0.4816  3.6647
   55CHL1    C2 4043   3.670   2.001   7.076 -0.0881 -0.1381  0.9230
   55CHL1   H2A 4044   3.716   2.086   7.023  1.9253 -0.3023  2.2776
   55CHL1   H2B 4045   3.561   2.014   7.091 -0.3367  1.3384 -1.7171
   55CHL1   C20 4046   3.874   1.885   8.001 -0.3757 -0.4255  0.0185
   55CHL1   H20 4047   3.769   1.861   8.025 -0.1457 -1.5683 -0.0679
   55CHL1   C21 4048   3.881   2.039   8.014 -0.8018  0.1784  0.6034
   55CHL1  H21A 4049   3.869   2.067   8.121  1.9526 -0.4049  1.1391
   55CHL1  H21B 4050   3.805   2.091   7.952  0.8914  2.2715  0.1521
   55CHL1  H21C 4051   3.977   2.084   7.979 -0.6698 -1.1749 -0.8596
   55CHL1   C22 4052   3.964   1.816   8.112  0.0994  0.6121  0.1922
   55CHL1  H22A 4053   3.931   1.849   8.212  3.8934 -0.3216  1.9219
   55CHL1  H22B 4054   3.930   1.710   8.122 -0.1654  0.5237 -1.3002
   55CHL1   C23 4055   4.116   1.840   8.110  0.3208  0.3496  0.1978
   55CHL1  H23A 4056   4.169   1.789   8.027 -1.1988  0.9139 -1.1581
   55CHL1  H23B 4057   4.126   1.949   8.090  0.0626  0.7932  2.2604
   55CHL1   C24 4058   4.186   1.807   8.245 -0.1518 -0.3634  0.0309
   55CHL1  H24A 4059   4.293   1.837   8.237  0.0266 -1.3382 -1.4073
   55CHL1  H24B 4060   4.131   1.862   8.325 -2.0714 -2.3437  0.1557
   55CHL1   C25 4061   4.166   1.657   8.300 -0.8125 -0.3665 -0.2384
   55CHL1   H25 4062   4.056   1.657   8.316 -1.1732  1.8802 -2.1901
   55CHL1   C26 4063   4.217   1.552   8.202  0.0269 -0.4411  0.8969
   55CHL1  H26A 4064   4.181   1.450   8.228  0.5860 -1.0036 -0.4230
   55CHL1  H26B 4065   4.167   1.570   8.105  1.2848 -0.8585  0.1421
   55CHL1  H26C 4066   4.328   1.546   8.201 -0.0323 -2.1802 -0.0406
   55CHL1   C27 4067   4.221   1.638   8.443  0.7779  0.3346  0.2916
   55CHL1  H27A 4068   4.331   1.650   8.446  0.9757 -1.2244  3.0716
   55CHL1  H27B 4069   4.185   1.713   8.517 -0.7917 -2.2129  2.2950
   55CHL1  H27C 4070   4.187   1.539   8.481  1.4456  0.1388  0.3767
   56CHL1    C3 4071   4.675   5.643   7.015  0.6907 -0.0318 -0.4628
   56CHL1    H3 4072   4.738   5.716   7.069 -1.2032  0.9566  0.5438
   56CHL1    O3 4073   4.741   5.589   6.905 -0.1302  1.1134  0.0682
   56CHL1   H3' 4074   4.675   5.526   6.874  0.3836 -0.7626  2.5349
   56CHL1    C4 4075   4.655   5.531   7.123 -0.0902  0.7382  0.6199
   56CHL1   H4A 4076   4.611   5.436   7.087  0.8292  0.1459  1.0251
   56CHL1   H4B 4077   4.761   5.507   7.147  0.0973  0.5645 -0.3803
   56CHL1    C5 4078   4.575   5.589   7.238 -0.3225  0.2009  0.4808
   56CHL1    C6 4079   4.624   5.574   7.360  0.1660 -0.2324  0.3436
   56CHL1    H6 4080   4.718   5.521   7.381 -0.1305 -0.7840  0.2947
   56CHL1    C7 4081   4.548   5.610   7.485  0.4335 -0.3364 -0.2590
   56CHL1   H7A 4082   4.548   5.529   7.562 -0.5144  0.3966  0.5297
   56CHL1   H7B 4083   4.594   5.697   7.536 -1.8442  0.7465  0.0363
   56CHL1    C8 4084   4.398   5.650   7.459 -0.1175 -0.2646  0.2415
   56CHL1    H8 4085   4.341   5.555   7.457 -2.7128  1.1969  0.9186
   56CHL1   C14 4086   4.344   5.735   7.576 -0.1378  0.2011 -0.2524
   56CHL1   H14 4087   4.399   5.832   7.574  1.5915 -0.7428 -0.5729
   56CHL1   C15 4088   4.365   5.671   7.716  0.4362 -0.7307  0.4569
   56CHL1  H15A 4089   4.329   5.566   7.716  2.5373 -1.5371 -1.5156
   56CHL1  H15B 4090   4.467   5.678   7.759  0.3866  0.7960  0.3832
   56CHL1   C16 4091   4.261   5.743   7.803  0.0296  0.7875  0.1143
   56CHL1  H16A 4092   4.208   5.668   7.866 -1.0953  0.9560 -0.6016
   56CHL1  H16B 4093   4.304   5.812   7.879  0.2511  1.4207 -0.5835
   56CHL1   C17 4094   4.173   5.812   7.708  0.2912 -0.3904  0.4164
   56CHL1   H17 4095   4.215   5.915   7.703  1.8067 -0.6948  4.1133
   56CHL1   C13 4096   4.199   5.747   7.558  0.6515 -0.0240 -0.0435
   56CHL1   C18 4097   4.118   5.620   7.541 -0.6916 -0.4862  0.8020
   56CHL1  H18A 4098   4.130   5.566   7.445 -0.5135  1.4443 -0.3176
   56CHL1  H18B 4099   4.137   5.553   7.628  0.2780  0.8978  1.6938
   56CHL1  H18C 4100   4.008   5.637   7.543 -0.4872  0.8782  1.3194
   56CHL1   C12 4101   4.183   5.849   7.440  0.2384 -0.1634  0.1715
   56CHL1  H12A 4102   4.078   5.887   7.436  0.7786  1.3722 -2.8704
   56CHL1  H12B 4103   4.243   5.941   7.459 -0.9059  0.3689  1.4051
   56CHL1   C11 4104   4.236   5.786   7.311 -0.1099 -0.2179  0.3358
   56CHL1  H11A 4105   4.164   5.708   7.279  1.3281 -1.5181  0.1305
   56CHL1  H11B 4106   4.239   5.859   7.228 -1.4411  1.4367  1.6564
   56CHL1    C9 4107   4.382   5.731   7.335  0.4284  0.0967 -0.4925
   56CHL1    H9 4108   4.448   5.820   7.341 -1.0411  1.2089 -0.4390
   56CHL1   C10 4109   4.435   5.659   7.211  0.2889 -0.6012  0.1137
   56CHL1   C19 4110   4.346   5.537   7.168  1.4263  0.0849  0.9961
   56CHL1  H19A 4111   4.391   5.488   7.079  3.3336  0.2286  1.8169
   56CHL1  H19B 4112   4.342   5.459   7.247 -2.0801 -1.6669 -0.6879
   56CHL1  H19C 4113   4.243   5.569   7.141  1.7784  0.0291 -0.4828
   56CHL1    C1 4114   4.456   5.756   7.090 -0.2843  0.4577 -0.4927
   56CHL1   H1A 4115   4.363   5.790   7.039 -0.5416  1.7177  0.7398
   56CHL1   H1B 4116   4.514   5.842   7.129  0.1695 -1.1661  2.6761
   56CHL1    C2 4117   4.542   5.697   6.975 -0.0570 -0.9863  0.5097
   56CHL1   H2A 4118   4.548   5.779   6.901 -0.4356 -0.1202  1.4060
   56CHL1   H2B 4119   4.479   5.613   6.937  0.4637 -1.8219  1.4255
   56CHL1   C20 4120   4.038   5.830   7.760 -0.5496  0.0300  1.0928
   56CHL1   H20 4121   3.988   5.731   7.768 -2.6662  0.9988  0.5916
   56CHL1   C21 4122   3.944   5.916   7.664  0.0261 -0.1394 -0.8598
   56CHL1  H21A 4123   3.997   6.010   7.641 -0.2732  0.5566  1.1249
   56CHL1  H21B 4124   3.850   5.936   7.720  0.7534 -1.6261  1.0193
   56CHL1  H21C 4125   3.905   5.860   7.576  0.4037  0.4959 -1.4386
   56CHL1   C22 4126   4.026   5.874   7.906 -0.1448 -0.7230  0.7393
   56CHL1  H22A 4127   3.916   5.876   7.924 -0.0691  2.0669  1.2321
   56CHL1  H22B 4128   4.084   5.822   7.985 -0.2205 -0.3943  1.0097
   56CHL1   C23 4129   4.068   6.018   7.929  0.4898 -0.8460 -0.2628
   56CHL1  H23A 4130   4.180   6.016   7.929  0.5251  0.1704 -0.4997
   56CHL1  H23B 4131   4.037   6.088   7.848  1.9147  0.4875  0.2959
   56CHL1   C24 4132   4.006   6.066   8.071 -1.4791  0.5537  0.2143
   56CHL1  H24A 4133   3.896   6.077   8.062 -1.5566 -0.2735  0.0392
   56CHL1  H24B 4134   4.026   5.990   8.150  0.5627  2.4133  1.6099
   56CHL1   C25 4135   4.079   6.193   8.121 -0.0579  0.2847 -0.1775
   56CHL1   H25 4136   4.187   6.176   8.102 -0.0929  0.4381 -0.5235
   56CHL1   C26 4137   4.020   6.315   8.040  0.1229  0.2211  0.1992
   56CHL1  H26A 4138   3.915   6.344   8.058 -0.0133 -0.9978  1.5552
   56CHL1  H26B 4139   4.028   6.292   7.932 -0.6145  1.1755 -0.0665
   56CHL1  H26C 4140   4.079   6.405   8.068  0.0252 -0.1072  1.5368
   56CHL1   C27 4141   4.068   6.234   8.273  0.3956  0.2349 -0.0610
   56CHL1  H27A 4142   4.117   6.156   8.336  0.7947  1.9052  1.8303
   56CHL1  H27B 4143   4.119   6.333   8.278  0.0605  0.4064 -0.0698
   56CHL1  H27C 4144   3.965   6.249   8.311  1.1264  4.4083  0.7536
   57SAPC     N 4145   3.254   5.791  10.526  0.4182 -0.5651 -0.5151
   57SAPC   C12 4146   3.308   5.698  10.419  0.4252  0.1533 -0.5797
   57SAPC  H12A 4147   3.258   5.720  10.326  1.3795  1.0876 -0.8968
   57SAPC  H12B 4148   3.286   5.595  10.439 -0.6157  0.4550 -0.0956
   57SAPC   C13 4149   3.102   5.770  10.542  0.1437 -0.7229  0.8261
   57SAPC  H13A 4150   3.049   5.843  10.601 -0.8570  0.1199 -1.0333
   57SAPC  H13B 4151   3.049   5.767  10.447 -1.9582 -4.2068  1.9423
   57SAPC  H13C 4152   3.075   5.679  10.593 -1.0116 -0.2370  1.1103
   57SAPC   C14 4153   3.312   5.750  10.657 -0.6481 -0.4485  0.7167
   57SAPC  H14A 4154   3.265   5.662  10.698  1.2982 -1.8225  0.1542
   57SAPC  H14B 4155   3.417   5.724  10.649 -1.2790 -3.2527  0.6342
   57SAPC  H14C 4156   3.306   5.832  10.727  0.9683 -0.3729  0.8060
   57SAPC   C15 4157   3.276   5.943  10.504  0.5486  0.6714 -0.3491
   57SAPC  H15A 4158   3.382   5.959  10.500  0.5978  0.6726  0.7214
   57SAPC  H15B 4159   3.230   5.978  10.412 -0.6149 -2.1238 -0.9325
   57SAPC  H15C 4160   3.231   6.002  10.583  1.4337  1.6804 -0.5773
   57SAPC   C11 4161   3.457   5.708  10.393  1.0029 -0.1999  1.0126
   57SAPC  H11A 4162   3.485   5.815  10.384 -0.1372  0.0203 -0.2353
   57SAPC  H11B 4163   3.477   5.671  10.290  1.4261 -1.0382  1.3863
   57SAPC     P 4164   3.540   5.493  10.527 -0.2732 -0.1096  0.0239
   57SAPC   O13 4165   3.650   5.463  10.625 -0.1064  0.5647 -0.3538
   57SAPC   O14 4166   3.406   5.445  10.548  0.0658 -0.1931  0.0242
   57SAPC   O12 4167   3.531   5.654  10.504  0.5933 -0.0473  0.6075
   57SAPC   O11 4168   3.577   5.441  10.378 -0.1069  0.2176 -0.2733
   57SAPC    C1 4169   3.710   5.397  10.346  0.4095  0.4223 -0.3999
   57SAPC    HA 4170   3.761   5.344  10.429 -1.1378 -0.9544 -0.3041
   57SAPC    HB 4171   3.714   5.325  10.262  3.1917 -1.1170  0.9098
   57SAPC    C2 4172   3.795   5.511  10.295 -0.3650  0.2266  0.2671
   57SAPC    HS 4173   3.832   5.578  10.375  3.2855  1.2189 -2.0216
   57SAPC   O21 4174   3.727   5.579  10.192  0.3444 -0.0800 -0.3182
   57SAPC   C21 4175   3.753   5.707  10.179  0.5864 -0.5423  0.2397
   57SAPC   O22 4176   3.836   5.774  10.238  0.3673  0.6204  0.0615
   57SAPC   C22 4177   3.653   5.764  10.077  0.3919  0.4186 -0.4818
   57SAPC   H2R 4178   3.566   5.697  10.061 -1.0605  1.8291  1.1046
   57SAPC   H2S 4179   3.620   5.851  10.138  0.0618 -0.0852  0.0686
   57SAPC    C3 4180   3.925   5.458  10.228 -0.3755  1.0081 -0.1803
   57SAPC    HX 4181   3.980   5.408  10.311 -0.9638  2.5169  1.1788
   57SAPC    HY 4182   3.983   5.552  10.216  1.4971  0.2034  1.9005
   57SAPC   O31 4183   3.906   5.378  10.110 -0.3758  0.6017  0.2106
   57SAPC   C31 4184   4.028   5.376  10.044 -0.0483 -0.3701 -0.5530
   57SAPC   O32 4185   4.130   5.426  10.086 -0.2047 -0.4459 -0.4819
   57SAPC   C32 4186   4.019   5.288   9.923  0.7630 -1.1758 -0.4969
   57SAPC   H2X 4187   3.934   5.325   9.862  0.5189 -0.8791  0.0125
   57SAPC   H2Y 4188   3.990   5.185   9.952 -4.4965 -0.6413 -2.8153
   57SAPC   C23 4189   3.726   5.817   9.957  0.1490 -0.2773 -0.2170
   57SAPC   H3R 4190   3.805   5.882  10.000  0.5530 -0.1101 -1.2051
   57SAPC   H3S 4191   3.672   5.893   9.896 -0.1299  1.2195  1.7612
   57SAPC   C24 4192   3.770   5.709   9.858  0.1644  0.2504  0.4003
   57SAPC   H4R 4193   3.834   5.639   9.917  0.7431 -0.6787 -1.2864
   57SAPC   H4S 4194   3.832   5.771   9.790  1.7319 -2.1187 -0.4314
   57SAPC   C25 4195   3.652   5.641   9.798 -0.3911 -1.7582  0.6784
   57SAPC   H5R 4196   3.572   5.641   9.873 -0.7379 -2.9077  0.3273
   57SAPC   C26 4197   3.634   5.594   9.674  0.1061 -0.1179  0.5510
   57SAPC   H6R 4198   3.533   5.567   9.640  0.1097 -0.5443  0.8784
   57SAPC   C27 4199   3.740   5.608   9.569 -0.0425  0.9450  0.3754
   57SAPC   H7R 4200   3.834   5.646   9.614  0.4597 -2.0581  2.1354
   57SAPC   H7S 4201   3.709   5.688   9.498 -0.2549  1.8422  1.4493
   57SAPC   C28 4202   3.752   5.472   9.506  0.0547  0.1474  0.3464
   57SAPC   H8R 4203   3.795   5.406   9.583  0.4036  1.2553  1.1411
   57SAPC   C29 4204   3.742   5.440   9.374  0.4027 -0.1426  0.4258
   57SAPC   H9R 4205   3.752   5.332   9.351 -0.7354 -0.9123  3.1051
   57SAPC  C210 4206   3.720   5.527   9.251  0.4652 -0.4849 -0.3034
   57SAPC  H10R 4207   3.764   5.627   9.272  1.3320 -0.6484 -1.2746
   57SAPC  H10S 4208   3.609   5.539   9.255  0.5826  1.1464 -1.0603
   57SAPC  C211 4209   3.758   5.467   9.125  0.0054  1.3521  0.5026
   57SAPC  H11R 4210   3.800   5.366   9.133 -2.8595  0.0551  0.3505
   57SAPC  C212 4211   3.760   5.531   9.002  0.4863  0.0934 -0.1583
   57SAPC  H12R 4212   3.796   5.477   8.913  2.8956  0.5169  0.4797
   57SAPC  C213 4213   3.719   5.674   8.974 -0.2532 -0.1338  0.0184
   57SAPC  H13R 4214   3.812   5.728   8.947 -0.6808 -0.2611 -1.8623
   57SAPC  H13S 4215   3.664   5.711   9.063  0.6351  0.8202  0.1830
   57SAPC  C214 4216   3.604   5.681   8.871  0.0287 -0.2691 -0.6780
   57SAPC  H14R 4217   3.518   5.612   8.875 -2.5697  2.8301  0.7405
   57SAPC  C215 4218   3.611   5.753   8.761 -0.4684 -0.4090 -0.6210
   57SAPC  H15R 4219   3.520   5.758   8.698 -1.1165  2.8807  0.3845
   57SAPC  C216 4220   3.713   5.860   8.718 -0.6030  0.3083  0.7319
   57SAPC  H16R 4221   3.812   5.848   8.767 -0.7078  1.1254  1.1495
   57SAPC  H16S 4222   3.677   5.960   8.751 -0.0532  0.5730  0.5299
   57SAPC  C217 4223   3.745   5.860   8.568 -1.0373  0.3729  0.3442
   57SAPC  H17R 4224   3.779   5.759   8.539 -1.9755 -0.5882  2.4073
   57SAPC  H17S 4225   3.828   5.933   8.554  0.2875 -0.8139  1.6284
   57SAPC  C218 4226   3.614   5.882   8.482  0.0088  0.0883  0.1803
   57SAPC  H18R 4227   3.552   5.959   8.533 -1.8363 -0.0831 -1.6922
   57SAPC  H18S 4228   3.551   5.792   8.467  0.6923 -0.1724 -1.2278
   57SAPC  C219 4229   3.651   5.940   8.343  0.0760  0.0448 -0.7357
   57SAPC  H19R 4230   3.562   5.923   8.279 -1.8244 -0.7151  1.9078
   57SAPC  H19S 4231   3.738   5.882   8.305  0.7952  0.2010  0.6161
   57SAPC  C220 4232   3.699   6.084   8.356 -0.0401 -0.0702  0.3079
   57SAPC  H20R 4233   3.710   6.116   8.250  0.2749 -3.7454 -0.9149
   57SAPC  H20S 4234   3.798   6.087   8.407  0.4969  0.3954 -0.7166
   57SAPC  H20T 4235   3.619   6.138   8.411  0.4465 -0.4633  1.4251
   57SAPC   C33 4236   4.151   5.291   9.838  0.1624 -0.7425  0.2897
   57SAPC   H3X 4237   4.219   5.238   9.909 -1.8624 -0.3730  2.6726
   57SAPC   H3Y 4238   4.200   5.386   9.811  0.3548 -0.2999  2.0400
   57SAPC   C34 4239   4.137   5.213   9.706  0.6577 -0.9889 -0.3333
   57SAPC   H4X 4240   4.075   5.271   9.635  1.0404  2.6232  2.0056
   57SAPC   H4Y 4241   4.095   5.117   9.740 -2.0644  0.6386  1.2437
   57SAPC   C35 4242   4.265   5.179   9.628  0.0724 -0.4453  0.6838
   57SAPC   H5X 4243   4.335   5.120   9.690  1.7159  1.7210  1.0324
   57SAPC   H5Y 4244   4.322   5.269   9.599 -1.0693 -0.2427 -1.0914
   57SAPC   C36 4245   4.232   5.096   9.508  0.5244 -0.4169  0.1927
   57SAPC   H6X 4246   4.172   5.155   9.436  2.7079  0.1103 -1.3030
   57SAPC   H6Y 4247   4.185   5.001   9.543  0.9125 -0.0236  1.8526
   57SAPC   C37 4248   4.351   5.045   9.431 -0.4937 -0.4448  0.3332
   57SAPC   H7X 4249   4.311   4.966   9.364 -2.7658 -0.4789  1.6529
   57SAPC   H7Y 4250   4.425   5.012   9.507  2.6656  2.9168 -0.9669
   57SAPC   C38 4251   4.440   5.154   9.364 -0.1351  0.3924  0.5909
   57SAPC   H8X 4252   4.456   5.250   9.418  0.6222  0.7371 -0.2193
   57SAPC   H8Y 4253   4.384   5.185   9.272  0.5668 -1.0900 -0.3685
   57SAPC   C39 4254   4.584   5.102   9.326  0.1224  0.4525 -0.0106
   57SAPC   H9X 4255   4.590   5.018   9.254  2.8332  0.2645  0.3178
   57SAPC   H9Y 4256   4.630   5.072   9.423 -1.0925  1.5089  0.9298
   57SAPC  C310 4257   4.678   5.213   9.272  0.4220  0.2297 -0.7864
   57SAPC  H10X 4258   4.677   5.301   9.340 -1.3555 -0.3082 -0.0579
   57SAPC  H10Y 4259   4.638   5.238   9.172 -0.3333  0.6654 -0.3825
   57SAPC  C311 4260   4.820   5.163   9.265 -0.3149  0.4619 -0.2626
   57SAPC  H11X 4261   4.812   5.068   9.208  0.3189 -0.8390  1.6686
   57SAPC  H11Y 4262   4.849   5.142   9.371 -0.9162  0.6410 -0.0611
   57SAPC  C312 4263   4.915   5.264   9.204  0.4379  0.0409  0.3725
   57SAPC  H12X 4264   4.899   5.366   9.243  0.2846  0.1586  0.0092
   57SAPC  H12Y 4265   4.895   5.276   9.095  2.0179 -0.0621  0.0401
   57SAPC  C313 4266   5.060   5.223   9.220  0.7814 -0.2582 -0.8154
   57SAPC  H13X 4267   5.087   5.201   9.326 -0.4104  1.1419 -0.1837
   57SAPC  H13Y 4268   5.110   5.319   9.193  2.6236 -1.1626 -0.8198
   57SAPC  C314 4269   5.111   5.123   9.114  0.5507 -0.2261  0.0333
   57SAPC  H14X 4270   5.215   5.147   9.085  0.7624  0.1603  1.0753
   57SAPC  H14Y 4271   5.056   5.140   9.019  0.8687 -1.6041 -0.4305
   57SAPC  C315 4272   5.098   4.972   9.144  0.5175 -0.2306  0.2755
   57SAPC  H15X 4273   5.147   4.922   9.059  0.8751  0.4292  0.0896
   57SAPC  H15Y 4274   4.992   4.942   9.160  0.1595  1.1217  0.6634
   57SAPC  C316 4275   5.197   4.941   9.251  0.7887  0.0546 -0.3915
   57SAPC  H16X 4276   5.176   4.993   9.347 -1.9175  1.2550 -1.5612
   57SAPC  H16Y 4277   5.295   4.963   9.203 -0.1200  0.0587 -2.2990
   57SAPC  C317 4278   5.211   4.784   9.267  0.5386 -0.5219  0.6103
   57SAPC  H17X 4279   5.171   4.723   9.184 -2.8714  0.4116  1.4033
   57SAPC  H17Y 4280   5.137   4.756   9.346  0.5217 -3.7002 -0.4046
   57SAPC  C318 4281   5.342   4.748   9.329  0.1046  0.0671 -0.5555
   57SAPC  H18X 4282   5.342   4.640   9.354  0.3348  0.6682  2.4393
   57SAPC  H18Y 4283   5.346   4.807   9.423  0.7623 -1.7877  0.6342
   57SAPC  H18Z 4284   5.431   4.782   9.272  0.4218 -0.6911 -0.5222
   58SAPC     N 4285   2.762   2.396  10.765  0.0568  0.0411 -0.2387
   58SAPC   C12 4286   2.688   2.411  10.629 -0.0323 -0.2558 -0.2444
   58SAPC  H12A 4287   2.638   2.318  10.608 -0.3673  0.3024 -2.1310
   58SAPC  H12B 4288   2.770   2.420  10.559 -0.3925  0.3170 -0.6013
   58SAPC   C13 4289   2.668   2.387  10.881 -0.1249 -0.5008 -0.1547
   58SAPC  H13A 4290   2.629   2.286  10.890  0.4830 -0.8201 -0.9628
   58SAPC  H13B 4291   2.720   2.413  10.972  0.0590  0.2607 -0.4740
   58SAPC  H13C 4292   2.581   2.449  10.864  0.2553 -0.2023 -1.0376
   58SAPC   C14 4293   2.861   2.287  10.764  1.0271  0.8728 -0.2475
   58SAPC  H14A 4294   2.924   2.300  10.850  0.5355  1.2186  0.0700
   58SAPC  H14B 4295   2.807   2.197  10.788  2.4063  0.1508  0.2486
   58SAPC  H14C 4296   2.917   2.274  10.672  1.1433  0.6779 -0.1496
   58SAPC   C15 4297   2.846   2.518  10.788  0.2772  0.0541 -0.0117
   58SAPC  H15A 4298   2.891   2.511  10.886  1.5226 -0.0077 -0.5758
   58SAPC  H15B 4299   2.921   2.528  10.711 -0.3282 -0.3812 -0.6677
   58SAPC  H15C 4300   2.783   2.606  10.783 -0.2937 -0.4012 -1.3166
   58SAPC   C11 4301   2.581   2.521  10.614 -0.0408  0.1631 -0.5465
   58SAPC  H11A 4302   2.512   2.494  10.696  0.9151 -0.2913  0.1191
   58SAPC  H11B 4303   2.532   2.516  10.514 -0.0065 -1.4728 -0.5071
   58SAPC     P 4304   2.546   2.772  10.673  0.1904 -0.0309  0.3083
   58SAPC   O13 4305   2.399   2.739  10.671 -0.3763  0.1009  0.2542
   58SAPC   O14 4306   2.589   2.847  10.792 -0.2244 -0.2344 -0.1108
   58SAPC   O12 4307   2.636   2.647  10.648  0.1313  0.2496  0.1477
   58SAPC   O11 4308   2.581   2.862  10.553  0.2293  0.1027 -0.3106
   58SAPC    C1 4309   2.717   2.882  10.517 -0.3624  0.1432 -0.2293
   58SAPC    HA 4310   2.732   2.990  10.492 -0.3792  0.6962  1.9151
   58SAPC    HB 4311   2.800   2.855  10.586  0.6075  0.1392 -1.3692
   58SAPC    C2 4312   2.745   2.811  10.377  0.0835 -0.0908 -0.2790
   58SAPC    HS 4313   2.776   2.706  10.398  0.5142 -0.0472 -0.6644
   58SAPC   O21 4314   2.847   2.888  10.309  0.9732 -0.2500 -0.3684
   58SAPC   C21 4315   2.934   2.823  10.228 -0.3973 -0.9194 -0.0705
   58SAPC   O22 4316   2.932   2.700  10.215 -0.1055 -0.0013  0.5288
   58SAPC   C22 4317   3.044   2.915  10.168 -0.2134 -0.0354  0.2091
   58SAPC   H2R 4318   3.099   2.965  10.251  0.9331 -1.2438  0.2046
   58SAPC   H2S 4319   3.111   2.844  10.114  0.0551  1.1652 -1.0895
   58SAPC    C3 4320   2.627   2.808  10.285  0.2028  1.1188  0.0243
   58SAPC    HX 4321   2.597   2.915  10.276 -0.6369  1.0006  1.1753
   58SAPC    HY 4322   2.559   2.742  10.343 -0.3554  0.1478 -1.6468
   58SAPC   O31 4323   2.655   2.749  10.154 -0.9027 -0.3336 -0.1674
   58SAPC   C31 4324   2.572   2.655  10.107  0.0217 -0.3464 -0.2112
   58SAPC   O32 4325   2.476   2.612  10.169  0.8063  0.0290  0.0153
   58SAPC   C32 4326   2.620   2.594   9.977  0.1591 -0.1754  0.5294
   58SAPC   H2X 4327   2.601   2.485   9.981 -1.8030  0.0575 -1.0696
   58SAPC   H2Y 4328   2.731   2.601   9.970  0.1998 -0.3180  1.0475
   58SAPC   C23 4329   2.993   3.027  10.066  0.1652 -0.4789 -0.6365
   58SAPC   H3R 4330   3.084   3.079  10.029  0.3904  0.7095  1.4520
   58SAPC   H3S 4331   2.935   3.101  10.125 -0.5704 -1.4932 -0.0589
   58SAPC   C24 4332   2.925   2.967   9.938 -0.2114  0.0520  0.3743
   58SAPC   H4R 4333   2.838   2.907   9.973 -0.8244 -0.3784 -1.7584
   58SAPC   H4S 4334   3.001   2.898   9.896  0.1944  1.0739 -0.5839
   58SAPC   C25 4335   2.871   3.067   9.844 -0.0658 -0.1775 -0.3534
   58SAPC   H5R 4336   2.799   3.140   9.884  0.4911  0.6428 -0.8283
   58SAPC   C26 4337   2.880   3.055   9.708  0.6741  0.3088 -0.1126
   58SAPC   H6R 4338   2.832   3.131   9.646  2.3722  0.9308 -0.7128
   58SAPC   C27 4339   2.945   2.945   9.624 -0.4054  0.0816 -0.1798
   58SAPC   H7R 4340   2.996   2.873   9.690 -1.4510 -0.5797 -0.0676
   58SAPC   H7S 4341   3.035   2.992   9.580  1.3466 -1.5201  1.5081
   58SAPC   C28 4342   2.849   2.889   9.519 -0.6373  0.2666 -0.3184
   58SAPC   H8R 4343   2.762   2.836   9.560 -2.1374  1.2935 -2.0435
   58SAPC   C29 4344   2.859   2.902   9.385 -1.1165  0.4707  0.3645
   58SAPC   H9R 4345   2.783   2.851   9.324 -1.0446  1.5246 -0.6362
   58SAPC  C210 4346   2.970   2.968   9.311 -0.3313  0.7808 -0.5266
   58SAPC  H10R 4347   3.044   2.894   9.274 -1.4341 -0.3789 -0.4570
   58SAPC  H10S 4348   3.028   3.045   9.367  0.7440  0.4014 -1.0858
   58SAPC  C211 4349   2.917   3.048   9.190 -0.1337  0.2626  0.4435
   58SAPC  H11R 4350   2.899   2.977   9.109  1.1351 -2.2099  2.2091
   58SAPC  C212 4351   2.922   3.181   9.168  0.1798  0.2975  0.5316
   58SAPC  H12R 4352   2.877   3.232   9.082  0.3036  1.4263  1.1167
   58SAPC  C213 4353   2.971   3.287   9.264 -0.2986  0.1449  0.1805
   58SAPC  H13R 4354   2.934   3.263   9.366 -0.6737  0.7665  0.1989
   58SAPC  H13S 4355   2.932   3.390   9.248 -1.1099 -0.2247 -0.2475
   58SAPC  C214 4356   3.126   3.294   9.263  0.1574  0.1107  0.5341
   58SAPC  H14R 4357   3.175   3.241   9.180 -1.7733  1.6903 -1.7471
   58SAPC  C215 4358   3.196   3.349   9.367 -0.5413  0.4430  1.5125
   58SAPC  H15R 4359   3.306   3.345   9.362 -0.5562 -1.4482  1.6383
   58SAPC  C216 4360   3.139   3.416   9.492 -0.0871 -0.5539  0.2425
   58SAPC  H16R 4361   3.029   3.430   9.490 -0.4992 -3.0416  1.5590
   58SAPC  H16S 4362   3.193   3.512   9.502  1.1702 -0.8869 -2.3092
   58SAPC  C217 4363   3.175   3.344   9.627 -0.4126  0.2987  0.0066
   58SAPC  H17R 4364   3.285   3.358   9.634  0.0893 -3.2188  1.0241
   58SAPC  H17S 4365   3.155   3.236   9.613  2.1166 -0.1054 -0.9578
   58SAPC  C218 4366   3.120   3.407   9.749 -0.4122  0.3947 -0.4511
   58SAPC  H18R 4367   3.018   3.362   9.746 -0.1648 -0.4238  1.7643
   58SAPC  H18S 4368   3.120   3.517   9.733  0.7764  0.4720  0.0178
   58SAPC  C219 4369   3.211   3.374   9.865 -0.1189 -0.0305 -0.2106
   58SAPC  H19R 4370   3.312   3.419   9.854 -0.4547  1.2957  1.7112
   58SAPC  H19S 4371   3.229   3.264   9.854  1.2602  0.3695 -2.6838
   58SAPC  C220 4372   3.150   3.400  10.001  0.0720 -0.7049 -0.0106
   58SAPC  H20R 4373   3.045   3.364   9.998 -0.4349  0.5867  1.0521
   58SAPC  H20S 4374   3.149   3.509  10.026  1.0758 -0.4033 -1.2011
   58SAPC  H20T 4375   3.200   3.350  10.087  0.3406  3.0635  2.2689
   58SAPC   C33 4376   2.554   2.651   9.851 -0.5659 -0.3058 -0.1718
   58SAPC   H3X 4377   2.603   2.748   9.830  2.0849 -0.7716  2.9605
   58SAPC   H3Y 4378   2.447   2.675   9.873  0.3625  2.3545  1.9653
   58SAPC   C34 4379   2.551   2.557   9.732 -0.1832  0.4098 -0.0910
   58SAPC   H4X 4380   2.492   2.467   9.758  0.4532 -1.0186 -3.0897
   58SAPC   H4Y 4381   2.648   2.511   9.702 -1.0356 -1.1661 -0.5684
   58SAPC   C35 4382   2.509   2.617   9.601  0.2672 -0.4373 -0.4846
   58SAPC   H5X 4383   2.565   2.711   9.579 -1.0626  0.4633 -0.1652
   58SAPC   H5Y 4384   2.408   2.659   9.615  1.1453  1.1779  1.5311
   58SAPC   C36 4385   2.512   2.526   9.472  0.2685 -0.0533  0.4205
   58SAPC   H6X 4386   2.446   2.438   9.464  2.0148 -1.4214  0.3125
   58SAPC   H6Y 4387   2.615   2.488   9.455  0.0513  0.0285 -1.2330
   58SAPC   C37 4388   2.505   2.614   9.349  0.5075  0.1513  0.1771
   58SAPC   H7X 4389   2.577   2.700   9.347 -2.5599  2.9480  1.2166
   58SAPC   H7Y 4390   2.408   2.667   9.361  0.9061  1.8024 -2.7685
   58SAPC   C38 4391   2.504   2.538   9.219  0.3431  0.0459 -0.5224
   58SAPC   H8X 4392   2.421   2.464   9.208  1.3698 -1.2691  0.2266
   58SAPC   H8Y 4393   2.598   2.481   9.204 -1.4801 -2.2341 -5.4137
   58SAPC   C39 4394   2.473   2.646   9.109  0.9964  0.4978 -0.4170
   58SAPC   H9X 4395   2.560   2.717   9.111  1.4557  0.0744 -2.4874
   58SAPC   H9Y 4396   2.382   2.700   9.140  1.7184  1.0871  0.7365
   58SAPC  C310 4397   2.455   2.596   8.963 -1.1142  0.0521 -0.5786
   58SAPC  H10X 4398   2.374   2.520   8.956 -2.1289  1.1459 -0.9476
   58SAPC  H10Y 4399   2.551   2.542   8.949 -0.4041  0.6013  1.7913
   58SAPC  C311 4400   2.437   2.699   8.851 -0.6903  0.5550 -0.4630
   58SAPC  H11X 4401   2.480   2.656   8.758 -0.0377  2.9941 -1.3785
   58SAPC  H11Y 4402   2.490   2.792   8.882 -0.1135 -0.2533  1.0804
   58SAPC  C312 4403   2.292   2.734   8.806  0.2048 -0.5010  0.8456
   58SAPC  H12X 4404   2.241   2.756   8.902 -1.0095  0.2405  0.0577
   58SAPC  H12Y 4405   2.233   2.654   8.756 -1.2869 -0.3135  2.2408
   58SAPC  C313 4406   2.282   2.865   8.715  0.0508 -0.1766  0.4850
   58SAPC  H13X 4407   2.326   2.951   8.769 -0.5785 -0.2758  1.1806
   58SAPC  H13Y 4408   2.176   2.889   8.694 -0.1561 -0.9409  0.6167
   58SAPC  C314 4409   2.356   2.843   8.579  0.2953 -0.0335  0.3175
   58SAPC  H14X 4410   2.303   2.766   8.519  0.0646 -0.3693  0.9436
   58SAPC  H14Y 4411   2.463   2.815   8.589 -0.1636 -1.3127  2.4137
   58SAPC  C315 4412   2.360   2.977   8.496  0.2740  0.4820 -0.1655
   58SAPC  H15X 4413   2.395   3.066   8.553 -0.3396  0.7512 -0.2018
   58SAPC  H15Y 4414   2.257   2.999   8.462  0.5888  0.9508 -0.8342
   58SAPC  C316 4415   2.448   2.970   8.372  0.1051 -0.2639  1.4345
   58SAPC  H16X 4416   2.416   2.889   8.303 -1.0423  0.7943  0.6956
   58SAPC  H16Y 4417   2.554   2.955   8.401  1.0079 -3.8911 -2.5779
   58SAPC  C317 4418   2.437   3.091   8.277 -0.2048  0.1110 -0.8768
   58SAPC  H17X 4419   2.462   3.185   8.330 -0.4534 -0.8751  1.1189
   58SAPC  H17Y 4420   2.332   3.115   8.249 -0.7709  1.7914  2.1581
   58SAPC  C318 4421   2.524   3.080   8.149 -0.6513 -0.0096  1.0774
   58SAPC  H18X 4422   2.501   2.987   8.093 -1.8510  2.2283 -2.5583
   58SAPC  H18Y 4423   2.632   3.084   8.172 -0.5823  3.2089  0.7226
   58SAPC  H18Z 4424   2.505   3.159   8.073 -0.9110 -0.4517  0.6727
   59SAPC     N 4425   0.819   4.100  10.875 -0.6752 -0.3589 -0.3507
   59SAPC   C12 4426   0.930   3.998  10.911  0.0267  0.8123  0.1778
   59SAPC  H12A 4427   0.999   4.000  10.828 -1.0396  1.5744 -0.7331
   59SAPC  H12B 4428   0.879   3.903  10.919  1.7559 -0.0937  0.9883
   59SAPC   C13 4429   0.874   4.238  10.866 -0.0952  0.1931 -0.0343
   59SAPC  H13A 4430   0.792   4.305  10.847  0.2837  0.5599 -0.3903
   59SAPC  H13B 4431   0.927   4.274  10.953  1.7011 -0.3440 -0.8422
   59SAPC  H13C 4432   0.952   4.245  10.792 -0.0625 -2.0566 -0.2812
   59SAPC   C14 4433   0.753   4.051  10.746 -0.2358 -0.3432  0.4309
   59SAPC  H14A 4434   0.666   4.109  10.721 -0.1216 -0.4566 -0.2438
   59SAPC  H14B 4435   0.818   4.075  10.663 -1.0716 -1.8306 -0.7063
   59SAPC  H14C 4436   0.726   3.947  10.755  0.8737 -0.7015 -0.1271
   59SAPC   C15 4437   0.721   4.103  10.981 -0.4424  0.1855 -0.2821
   59SAPC  H15A 4438   0.641   4.173  10.960  0.1590  0.3489 -2.1424
   59SAPC  H15B 4439   0.669   4.010  10.995  0.4144 -0.0954  1.3935
   59SAPC  H15C 4440   0.772   4.130  11.073  1.9706 -2.3428 -0.7483
   59SAPC   C11 4441   1.016   4.011  11.037  0.0346  0.2227  0.2051
   59SAPC  H11A 4442   1.067   3.915  11.059 -0.7065 -0.2147  0.0123
   59SAPC  H11B 4443   0.944   4.030  11.119  1.8265  1.7435  1.5226
   59SAPC     P 4444   1.256   4.114  11.000  0.3204  0.1070 -0.1214
   59SAPC   O13 4445   1.272   4.162  10.862  0.0590  0.3145 -0.2557
   59SAPC   O14 4446   1.347   4.169  11.106 -0.2911 -0.3681  0.3130
   59SAPC   O12 4447   1.105   4.128  11.045 -0.0390  0.2103 -0.2595
   59SAPC   O11 4448   1.280   3.959  10.999  0.2002 -0.4062 -0.1572
   59SAPC    C1 4449   1.408   3.907  10.958  0.0588  0.4950 -0.0736
   59SAPC    HA 4450   1.497   3.973  10.965 -0.4839  1.1792  0.5139
   59SAPC    HB 4451   1.436   3.823  11.026 -2.0140 -0.5379 -0.4242
   59SAPC    C2 4452   1.406   3.822  10.822 -0.0023 -0.4787 -0.6520
   59SAPC    HS 4453   1.507   3.777  10.809  0.2628  0.2323 -1.1265
   59SAPC   O21 4454   1.387   3.909  10.710 -0.1749  0.4483 -0.1263
   59SAPC   C21 4455   1.481   3.994  10.682  0.8022 -0.1508  0.7288
   59SAPC   O22 4456   1.577   4.029  10.749 -0.0700  0.5122  0.1666
   59SAPC   C22 4457   1.441   4.050  10.542 -0.0554  0.0718  0.2202
   59SAPC   H2R 4458   1.330   4.046  10.540 -0.0559 -2.6875  1.2287
   59SAPC   H2S 4459   1.495   4.144  10.522  0.3940 -0.4585 -1.1592
   59SAPC    C3 4460   1.304   3.708  10.818  0.2862  0.5669 -0.4956
   59SAPC    HX 4461   1.207   3.763  10.814  0.2014  0.5150  0.6244
   59SAPC    HY 4462   1.315   3.636  10.901 -0.0044 -1.0205 -1.7806
   59SAPC   O31 4463   1.302   3.645  10.687 -0.5375  0.6167  0.3294
   59SAPC   C31 4464   1.402   3.558  10.671 -0.6485  0.1397  0.0324
   59SAPC   O32 4465   1.482   3.518  10.758 -0.0719 -0.3120  0.1680
   59SAPC   C32 4466   1.419   3.510  10.521  0.4754  0.4165 -0.1806
   59SAPC   H2X 4467   1.351   3.582  10.470 -1.9235  0.1042  2.3110
   59SAPC   H2Y 4468   1.373   3.410  10.507 -0.4958  0.8200  0.0741
   59SAPC   C23 4469   1.487   3.949  10.433 -0.8691 -0.8471  0.7795
   59SAPC   H3R 4470   1.420   3.964  10.346 -1.8093 -0.8026  1.4930
   59SAPC   H3S 4471   1.460   3.847  10.468 -0.6871 -0.9273  0.6877
   59SAPC   C24 4472   1.632   3.969  10.383 -0.9413  0.6606  0.1080
   59SAPC   H4R 4473   1.707   3.973  10.465  0.6172  3.5450 -1.2920
   59SAPC   H4S 4474   1.644   4.071  10.342  1.6278  0.3651 -0.0611
   59SAPC   C25 4475   1.671   3.868  10.276 -0.6465  0.0989 -0.0553
   59SAPC   H5R 4476   1.720   3.781  10.322  1.8206  2.5736  2.3700
   59SAPC   C26 4477   1.647   3.874  10.142  0.0010  0.0430  0.8174
   59SAPC   H6R 4478   1.660   3.789  10.074 -1.5521 -0.8534  1.5885
   59SAPC   C27 4479   1.573   3.990  10.070 -0.6258 -1.1285 -0.0177
   59SAPC   H7R 4480   1.506   4.039  10.143  0.2322 -0.0578  0.0748
   59SAPC   H7S 4481   1.501   3.960   9.991 -1.0512 -1.5357  0.5156
   59SAPC   C28 4482   1.663   4.095  10.014  0.6965  0.1651 -0.0809
   59SAPC   H8R 4483   1.690   4.172  10.088 -2.3486 -0.0178  1.3939
   59SAPC   C29 4484   1.710   4.092   9.888 -0.2220  0.4527 -0.2767
   59SAPC   H9R 4485   1.783   4.167   9.854  1.2009 -1.7951 -2.5414
   59SAPC  C210 4486   1.681   3.983   9.786  0.4158  0.2676  0.2193
   59SAPC  H10R 4487   1.606   3.913   9.830 -0.8424  1.7117  0.4724
   59SAPC  H10S 4488   1.774   3.925   9.771  0.4568  0.0659  1.2012
   59SAPC  C211 4489   1.631   4.034   9.653  0.3019  0.0258 -0.8445
   59SAPC  H11R 4490   1.522   4.029   9.640  0.3800 -0.3265 -1.3620
   59SAPC  C212 4491   1.709   4.085   9.551 -0.4957  0.0906  0.7090
   59SAPC  H12R 4492   1.660   4.100   9.454 -1.5311  0.2911  1.2386
   59SAPC  C213 4493   1.853   4.115   9.550  0.3218  0.3542 -0.9584
   59SAPC  H13R 4494   1.880   4.149   9.652  0.1917 -0.7827 -0.5304
   59SAPC  H13S 4495   1.869   4.208   9.492 -0.3637  1.2439  0.2491
   59SAPC  C214 4496   1.951   4.003   9.522  0.3435  0.0991  0.4390
   59SAPC  H14R 4497   1.984   3.931   9.598 -0.5071 -1.2689 -0.4445
   59SAPC  C215 4498   1.995   3.975   9.396 -0.5935 -0.0678 -0.4469
   59SAPC  H15R 4499   2.062   3.888   9.399 -1.1306 -0.4568  1.7194
   59SAPC  C216 4500   1.960   4.060   9.273  0.3095  0.3456 -0.4312
   59SAPC  H16R 4501   1.906   4.155   9.292 -0.2218 -0.1064  0.3230
   59SAPC  H16S 4502   1.890   4.002   9.209 -0.6986 -1.0996  1.8396
   59SAPC  C217 4503   2.081   4.087   9.183 -0.0203 -0.1340  0.3531
   59SAPC  H17R 4504   2.149   4.000   9.178  2.5016  1.7905 -1.0284
   59SAPC  H17S 4505   2.135   4.166   9.240  1.9105 -0.8013 -0.4662
   59SAPC  C218 4506   2.037   4.137   9.041 -0.3603  0.2787  0.3864
   59SAPC  H18R 4507   2.105   4.211   8.993  0.0328 -0.6953 -0.6097
   59SAPC  H18S 4508   1.944   4.195   9.055 -1.1415 -1.0372  0.8344
   59SAPC  C219 4509   2.013   4.018   8.944 -0.1399  0.7728  0.0092
   59SAPC  H19R 4510   1.931   4.034   8.870 -0.0080  1.8973  0.0789
   59SAPC  H19S 4511   1.968   3.936   9.004 -4.6796  0.2289 -3.5298
   59SAPC  C220 4512   2.137   3.957   8.869 -0.0500  0.3074 -0.3565
   59SAPC  H20R 4513   2.209   4.036   8.838  0.6078  0.1308  0.6743
   59SAPC  H20S 4514   2.096   3.902   8.781 -1.8513  1.1872 -0.1116
   59SAPC  H20T 4515   2.199   3.894   8.936 -0.1591  0.7043  0.1171
   59SAPC   C33 4516   1.562   3.515  10.472 -0.0330  0.3175  0.1400
   59SAPC   H3X 4517   1.623   3.452  10.540 -0.6961  0.8617  1.2583
   59SAPC   H3Y 4518   1.603   3.618  10.481  1.3152  0.2444 -3.4540
   59SAPC   C34 4519   1.579   3.480  10.322 -0.6804 -0.5270  0.1492
   59SAPC   H4X 4520   1.553   3.562  10.252  0.0305  1.0869  1.6887
   59SAPC   H4Y 4521   1.515   3.393  10.296 -1.6171 -0.2982  1.5609
   59SAPC   C35 4522   1.725   3.445  10.302 -0.0266  0.2245  0.3013
   59SAPC   H5X 4523   1.732   3.358  10.371 -2.8383 -0.2677  0.0896
   59SAPC   H5Y 4524   1.779   3.532  10.344  0.7033 -0.8866  1.7524
   59SAPC   C36 4525   1.770   3.409  10.158 -0.4548  1.0627  0.1067
   59SAPC   H6X 4526   1.707   3.328  10.116 -2.6688  3.2245 -0.9805
   59SAPC   H6Y 4527   1.877   3.380  10.153 -0.5685  0.4193  0.9791
   59SAPC   C37 4528   1.764   3.525  10.055  0.1293 -0.8298  0.5431
   59SAPC   H7X 4529   1.810   3.622  10.085  0.8005 -0.3617 -1.8593
   59SAPC   H7Y 4530   1.656   3.549  10.044  0.0512 -1.3188  0.2009
   59SAPC   C38 4531   1.831   3.496   9.920  0.2290 -0.2896 -0.0956
   59SAPC   H8X 4532   1.779   3.403   9.888 -1.9352  0.3422  1.2888
   59SAPC   H8Y 4533   1.940   3.478   9.923  0.3993  0.8010  0.8264
   59SAPC   C39 4534   1.790   3.596   9.807  0.3627 -0.5432 -0.2432
   59SAPC   H9X 4535   1.850   3.690   9.805  0.0512 -0.2924 -3.2526
   59SAPC   H9Y 4536   1.679   3.600   9.813  0.4035 -0.2793  0.3254
   59SAPC  C310 4537   1.830   3.526   9.674  0.5240 -0.2532 -0.3147
   59SAPC  H10X 4538   1.775   3.431   9.663 -0.1875  0.1306 -0.1172
   59SAPC  H10Y 4539   1.941   3.515   9.666  0.3140 -1.9158 -1.2991
   59SAPC  C311 4540   1.782   3.607   9.549 -0.0881 -0.1591  0.5054
   59SAPC  H11X 4541   1.827   3.709   9.559 -0.0432  0.1511 -2.0608
   59SAPC  H11Y 4542   1.671   3.607   9.550 -0.1255  1.8535  1.6930
   59SAPC  C312 4543   1.822   3.560   9.404 -0.1253 -0.0988  0.4058
   59SAPC  H12X 4544   1.931   3.545   9.391 -0.3797 -1.5357 -0.4304
   59SAPC  H12Y 4545   1.788   3.628   9.323 -0.3399 -0.0612  0.5270
   59SAPC  C313 4546   1.768   3.430   9.376 -0.3299  0.4755  0.2600
   59SAPC  H13X 4547   1.661   3.435   9.348 -0.6768  1.8338  1.6883
   59SAPC  H13Y 4548   1.785   3.360   9.460  0.9316 -2.4088 -2.2184
   59SAPC  C314 4549   1.841   3.362   9.257  0.0964 -0.9158 -0.2161
   59SAPC  H14X 4550   1.949   3.372   9.279 -0.1934 -1.7721  1.8532
   59SAPC  H14Y 4551   1.821   3.422   9.166  0.5106 -0.9008 -0.2959
   59SAPC  C315 4552   1.804   3.218   9.227 -0.0211  0.7671 -0.1779
   59SAPC  H15X 4553   1.697   3.208   9.197 -0.6377  0.8633  1.7861
   59SAPC  H15Y 4554   1.824   3.160   9.320  0.6802  2.0754  0.5176
   59SAPC  C316 4555   1.890   3.172   9.103  0.7661 -0.3926 -0.4554
   59SAPC  H16X 4556   1.973   3.246   9.094  1.0498 -0.8195 -1.5053
   59SAPC  H16Y 4557   1.830   3.192   9.012  0.7033 -0.9088 -0.5277
   59SAPC  C317 4558   1.939   3.031   9.122 -0.3657 -0.0697 -0.0159
   59SAPC  H17X 4559   1.844   2.973   9.133 -0.1342 -0.2933  0.8845
   59SAPC  H17Y 4560   1.998   3.023   9.216  0.8405 -2.3617 -0.8957
   59SAPC  C318 4561   2.028   2.964   9.014 -0.4116 -0.5105 -0.2948
   59SAPC  H18X 4562   2.066   2.864   9.041  0.6210 -0.2008 -0.5754
   59SAPC  H18Y 4563   2.122   3.021   8.997  0.2447 -1.4846  0.0010
   59SAPC  H18Z 4564   1.968   2.959   8.920  0.0648 -1.1927 -0.5644
   60SAPC     N 4565   3.415   1.810  10.425  0.1523  0.0815 -0.5889
   60SAPC   C12 4566   3.546   1.793  10.350 -0.1831  0.9402 -0.2054
   60SAPC  H12A 4567   3.602   1.885  10.342  0.5837  0.7886  2.4318
   60SAPC  H12B 4568   3.528   1.758  10.250 -1.9411 -0.6635  0.6211
   60SAPC   C13 4569   3.307   1.861  10.332 -0.0779 -0.6455  0.2643
   60SAPC  H13A 4570   3.345   1.951  10.287 -2.7007  1.1871  1.4784
   60SAPC  H13B 4571   3.290   1.787  10.255  2.3574  0.7721 -1.7676
   60SAPC  H13C 4572   3.211   1.885  10.374  0.0002 -3.9125  2.7661
   60SAPC   C14 4573   3.361   1.684  10.486  0.1320  0.2515 -0.1445
   60SAPC  H14A 4574   3.343   1.606  10.414  2.3576  0.4641 -1.0201
   60SAPC  H14B 4575   3.434   1.653  10.560 -0.4456  1.0311  0.7713
   60SAPC  H14C 4576   3.273   1.712  10.541  1.3141 -0.7615  2.4521
   60SAPC   C15 4577   3.436   1.914  10.528  0.6040 -0.1884  0.0584
   60SAPC  H15A 4578   3.349   1.958  10.574 -0.1162 -3.1280  1.7248
   60SAPC  H15B 4579   3.497   1.889  10.613  0.2313  2.3643  1.1578
   60SAPC  H15C 4580   3.488   1.994  10.477 -0.5425  0.6438  0.1604
   60SAPC   C11 4581   3.647   1.687  10.404 -0.7440 -1.0720  0.5148
   60SAPC  H11A 4582   3.737   1.710  10.342 -1.7542 -0.5897 -0.8153
   60SAPC  H11B 4583   3.609   1.584  10.386 -0.3121 -1.1559  0.0544
   60SAPC     P 4584   3.782   1.783  10.614 -0.1556 -0.6678  0.2334
   60SAPC   O13 4585   3.722   1.869  10.722 -0.6375  0.2597  0.4015
   60SAPC   O14 4586   3.878   1.683  10.666  0.1218 -0.1446  0.7624
   60SAPC   O12 4587   3.680   1.697  10.540  0.6569 -0.5207 -0.1927
   60SAPC   O11 4588   3.858   1.863  10.505  0.1643  0.2955  0.5449
   60SAPC    C1 4589   3.983   1.801  10.472 -0.8277  1.0876  0.5326
   60SAPC    HA 4590   4.052   1.782  10.557  1.5999  1.0528 -1.3391
   60SAPC    HB 4591   3.974   1.703  10.420 -1.2169  1.7905 -0.7711
   60SAPC    C2 4592   4.066   1.889  10.382  0.2084 -0.2497  0.0978
   60SAPC    HS 4593   4.023   1.992  10.378  0.1813 -0.2879 -0.7314
   60SAPC   O21 4594   4.066   1.827  10.254 -0.3503 -0.4996 -0.0147
   60SAPC   C21 4595   3.960   1.862  10.178 -0.0243  0.1598  0.7107
   60SAPC   O22 4596   3.866   1.929  10.215  0.0865  0.4357 -0.2458
   60SAPC   C22 4597   3.970   1.776  10.050  0.5242  0.6381  0.4661
   60SAPC   H2R 4598   4.079   1.775  10.029  0.9689  3.0003  2.2254
   60SAPC   H2S 4599   3.948   1.669  10.070 -0.3805  0.7111 -0.0783
   60SAPC    C3 4600   4.219   1.903  10.424  0.1746  0.0681 -0.2956
   60SAPC    HX 4601   4.256   1.798  10.428 -1.7791 -0.6408  1.9753
   60SAPC    HY 4602   4.227   1.945  10.527 -1.4462 -0.3497  0.0347
   60SAPC   O31 4603   4.298   1.982  10.328  0.3578 -0.8148  0.1506
   60SAPC   C31 4604   4.308   2.114  10.357 -0.2735  1.0188  0.3612
   60SAPC   O32 4605   4.259   2.157  10.456  0.1332 -1.0103 -0.5373
   60SAPC   C32 4606   4.430   2.167  10.269 -0.0608 -0.3269 -0.9484
   60SAPC   H2X 4607   4.398   2.149  10.164  0.1135  0.7088 -1.1899
   60SAPC   H2Y 4608   4.515   2.099  10.292  0.0677  0.3405  0.6603
   60SAPC   C23 4609   3.896   1.823   9.927 -0.0752  0.3039  0.6198
   60SAPC   H3R 4610   3.788   1.844   9.943  0.3339  2.6440  0.5857
   60SAPC   H3S 4611   3.902   1.742   9.850  2.1441  0.6320  0.3861
   60SAPC   C24 4612   3.956   1.945   9.860  0.1693  0.1664 -0.3914
   60SAPC   H4R 4613   4.058   1.921   9.822 -0.2712 -3.1322  0.2348
   60SAPC   H4S 4614   3.966   2.021   9.941 -0.5678 -1.2915  1.1326
   60SAPC   C25 4615   3.867   2.003   9.749 -0.4694  0.2075 -0.1828
   60SAPC   H5R 4616   3.772   2.045   9.786 -0.0099  1.8333 -0.7396
   60SAPC   C26 4617   3.886   2.012   9.616  0.4317  0.5894 -0.1639
   60SAPC   H6R 4618   3.818   2.072   9.555  1.1541  0.4713 -1.1073
   60SAPC   C27 4619   4.005   1.955   9.544  0.1669 -0.2114  0.7126
   60SAPC   H7R 4620   4.095   1.928   9.603  0.6907  1.2113  0.6040
   60SAPC   H7S 4621   4.040   2.025   9.465 -2.6179  3.8905  2.7732
   60SAPC   C28 4622   3.954   1.825   9.483  0.0163  0.3069  0.2843
   60SAPC   H8R 4623   3.953   1.747   9.561  1.2848  1.7445  1.8351
   60SAPC   C29 4624   3.937   1.784   9.356  0.3774  0.4922  0.0933
   60SAPC   H9R 4625   3.904   1.686   9.319 -1.9400  1.4876 -0.7106
   60SAPC  C210 4626   3.964   1.887   9.251 -0.4381 -0.0706 -0.2289
   60SAPC  H10R 4627   4.070   1.895   9.219 -1.1088 -0.2757 -2.7179
   60SAPC  H10S 4628   3.934   1.990   9.279  0.9024  0.5603 -1.0445
   60SAPC  C211 4629   3.902   1.839   9.119  0.1298 -0.2784  0.7884
   60SAPC  H11R 4630   3.947   1.743   9.088  0.8900  0.0199  0.9455
   60SAPC  C212 4631   3.804   1.901   9.039  0.2605  0.2699 -0.4711
   60SAPC  H12R 4632   3.774   1.852   8.946 -1.6552  0.7927 -0.1727
   60SAPC  C213 4633   3.727   2.025   9.076 -0.2965 -0.7115 -0.6234
   60SAPC  H13R 4634   3.749   2.104   9.001  1.7234 -2.9574 -2.5439
   60SAPC  H13S 4635   3.759   2.067   9.174  2.3428  0.6051 -1.9674
   60SAPC  C214 4636   3.580   2.013   9.060  0.8559  0.2760  0.1912
   60SAPC  H14R 4637   3.521   2.003   9.152  0.1835 -2.1033 -0.4044
   60SAPC  C215 4638   3.506   1.992   8.950  0.1773  0.4237 -0.2071
   60SAPC  H15R 4639   3.397   2.007   8.954  0.0114  0.6531 -3.3084
   60SAPC  C216 4640   3.546   1.985   8.803 -0.3825 -0.2918 -0.1319
   60SAPC  H16R 4641   3.538   1.878   8.773 -0.2597 -0.3510  0.0462
   60SAPC  H16S 4642   3.647   2.026   8.783 -0.7550 -0.0857 -1.7184
   60SAPC  C217 4643   3.459   2.085   8.711 -0.4040  0.3676 -0.2783
   60SAPC  H17R 4644   3.493   2.184   8.747  0.6097  0.3351 -1.1131
   60SAPC  H17S 4645   3.351   2.095   8.736  0.0301  0.0013  1.9764
   60SAPC  C218 4646   3.468   2.058   8.556  0.0688 -0.1372 -0.1410
   60SAPC  H18R 4647   3.421   1.959   8.534 -0.6363  0.1946 -0.1497
   60SAPC  H18S 4648   3.578   2.068   8.544  0.0022  2.1180  0.6017
   60SAPC  C219 4649   3.403   2.162   8.462  0.3665 -0.2056 -0.4907
   60SAPC  H19R 4650   3.418   2.143   8.353 -3.2093  0.0347 -1.1390
   60SAPC  H19S 4651   3.458   2.256   8.486 -0.6109 -0.0765  1.3521
   60SAPC  C220 4652   3.254   2.190   8.480  0.2749  0.3728 -0.7114
   60SAPC  H20R 4653   3.235   2.211   8.587 -0.5401 -0.9578 -0.5630
   60SAPC  H20S 4654   3.209   2.093   8.448 -0.4133  0.6382 -0.5624
   60SAPC  H20T 4655   3.220   2.263   8.403 -0.4450 -1.6923 -2.4767
   60SAPC   C33 4656   4.469   2.316  10.282  0.6303  0.2051 -0.5333
   60SAPC   H3X 4657   4.470   2.362  10.383 -1.3201  0.0969 -0.4362
   60SAPC   H3Y 4658   4.399   2.372  10.216 -1.0455 -0.0821  0.9326
   60SAPC   C34 4659   4.608   2.339  10.223 -0.0276  0.5691  0.1221
   60SAPC   H4X 4660   4.693   2.287  10.274  1.1144  0.4901 -1.7842
   60SAPC   H4Y 4661   4.625   2.448  10.209  0.3112  0.2931 -1.8728
   60SAPC   C35 4662   4.627   2.290  10.071  0.6135 -0.9304 -0.1619
   60SAPC   H5X 4663   4.549   2.340  10.011 -0.4258 -0.9930  1.0808
   60SAPC   H5Y 4664   4.604   2.181  10.065  2.4725 -1.6725  3.4360
   60SAPC   C36 4665   4.761   2.331  10.012  0.4889 -0.1099  0.1944
   60SAPC   H6X 4666   4.822   2.289  10.095  0.5287  0.4872  0.4771
   60SAPC   H6Y 4667   4.774   2.441  10.004 -1.3480  0.2768  1.7997
   60SAPC   C37 4668   4.792   2.261   9.881  0.0922  0.1662 -0.3392
   60SAPC   H7X 4669   4.774   2.152   9.894 -1.3010  0.6358  2.2893
   60SAPC   H7Y 4670   4.901   2.275   9.860  0.6537 -1.2030  1.4443
   60SAPC   C38 4671   4.701   2.308   9.771 -0.3782  0.0360  0.5527
   60SAPC   H8X 4672   4.719   2.413   9.741  1.3949 -0.4387 -0.1688
   60SAPC   H8Y 4673   4.599   2.295   9.813  0.0613  0.3819  1.7573
   60SAPC   C39 4674   4.716   2.212   9.650  0.8686  0.3735 -0.5448
   60SAPC   H9X 4675   4.618   2.199   9.600 -0.2934  1.4989  1.3126
   60SAPC   H9Y 4676   4.743   2.115   9.697  0.7585  0.4016 -0.4229
   60SAPC  C310 4677   4.821   2.252   9.551 -0.2164  0.1794  0.0543
   60SAPC  H10X 4678   4.915   2.268   9.608 -0.8929  2.9017  0.5476
   60SAPC  H10Y 4679   4.793   2.347   9.500  0.7288 -0.2420 -1.3289
   60SAPC  C311 4680   4.839   2.151   9.445  1.0403 -0.0761  0.0883
   60SAPC  H11X 4681   4.738   2.137   9.399  0.4097  0.2473  1.3371
   60SAPC  H11Y 4682   4.863   2.050   9.484 -1.0477 -0.0158  1.6510
   60SAPC  C312 4683   4.929   2.204   9.335  0.0548  0.2308  0.3545
   60SAPC  H12X 4684   5.035   2.201   9.369  0.5545  0.1978 -1.1143
   60SAPC  H12Y 4685   4.913   2.312   9.315 -0.7577  0.1380  0.4816
   60SAPC  C313 4686   4.911   2.134   9.195 -0.2834  0.1246 -0.2680
   60SAPC  H13X 4687   4.804   2.146   9.166 -0.5899 -1.1016  0.2735
   60SAPC  H13Y 4688   4.927   2.028   9.225  0.8604  0.1373 -0.8055
   60SAPC  C314 4689   5.016   2.181   9.095 -0.6928 -0.5714 -0.0314
   60SAPC  H14X 4690   5.113   2.166   9.145 -1.1584 -0.5835  0.8812
   60SAPC  H14Y 4691   4.997   2.289   9.083 -0.8228 -0.4900  0.8995
   60SAPC  C315 4692   5.010   2.105   8.960  0.3637  0.9366  0.3847
   60SAPC  H15X 4693   4.907   2.104   8.918  0.3049  0.4077  0.5330
   60SAPC  H15Y 4694   5.042   2.002   8.985 -0.6749  0.4161 -0.4101
   60SAPC  C316 4695   5.115   2.140   8.856 -0.1696 -0.1360  0.1541
   60SAPC  H16X 4696   5.216   2.109   8.892  0.0552 -1.2353 -1.3309
   60SAPC  H16Y 4697   5.112   2.251   8.848 -0.0511 -0.2424 -1.7633
   60SAPC  C317 4698   5.088   2.075   8.719  0.0397 -0.3698  0.2182
   60SAPC  H17X 4699   4.983   2.095   8.688 -0.5755 -1.0150  1.7439
   60SAPC  H17Y 4700   5.099   1.968   8.747 -0.1557  0.0130  1.9026
   60SAPC  C318 4701   5.190   2.102   8.605  0.6912  0.1558 -0.0593
   60SAPC  H18X 4702   5.189   2.024   8.526  1.8702  1.0545 -1.0031
   60SAPC  H18Y 4703   5.293   2.111   8.646  0.4796 -0.2914  0.5925
   60SAPC  H18Z 4704   5.155   2.193   8.552 -1.5413 -1.3400 -1.3210
   61SAPC     N 4705   5.150   1.429  10.966 -0.7650 -0.7083  0.1785
   61SAPC   C12 4706   5.176   1.536  10.860  0.3327  0.0676  0.2917
   61SAPC  H12A 4707   5.252   1.604  10.893 -1.5455  3.1952 -1.3410
   61SAPC  H12B 4708   5.084   1.592  10.851 -0.6225 -1.2552  1.4686
   61SAPC   C13 4709   5.024   1.358  10.941 -0.2963 -0.4469 -0.7323
   61SAPC  H13A 4710   5.030   1.288  10.859 -0.3178 -0.5066 -0.6841
   61SAPC  H13B 4711   4.990   1.289  11.017 -1.2714 -0.5104 -1.2112
   61SAPC  H13C 4712   4.945   1.429  10.925 -0.3981 -0.0529  1.2983
   61SAPC   C14 4713   5.267   1.339  10.976 -0.2647 -0.1346  0.2448
   61SAPC  H14A 4714   5.252   1.254  11.041 -1.9449 -0.1895 -0.1875
   61SAPC  H14B 4715   5.295   1.303  10.878 -0.8046  0.3892 -0.1072
   61SAPC  H14C 4716   5.356   1.385  11.018  1.9742 -1.5972 -2.5645
   61SAPC   C15 4717   5.137   1.489  11.103 -0.5800 -0.3760 -0.7299
   61SAPC  H15A 4718   5.211   1.563  11.128 -0.2425 -0.9521  0.0256
   61SAPC  H15B 4719   5.044   1.541  11.121 -1.6132 -3.0157  2.7706
   61SAPC  H15C 4720   5.131   1.417  11.183  2.2227  1.8909  1.7420
   61SAPC   C11 4721   5.217   1.487  10.716 -0.3184 -0.4533  0.0381
   61SAPC  H11A 4722   5.191   1.554  10.632  1.3865 -0.9604 -0.9550
   61SAPC  H11B 4723   5.161   1.394  10.694  0.3847 -0.9540  0.2899
   61SAPC     P 4724   5.455   1.572  10.692  0.5285 -0.3751  0.2366
   61SAPC   O13 4725   5.387   1.697  10.715  0.1122  0.0850 -0.0387
   61SAPC   O14 4726   5.589   1.540  10.759  0.4335  0.0587  0.0862
   61SAPC   O12 4727   5.358   1.445  10.718  0.5487 -0.2710 -0.2506
   61SAPC   O11 4728   5.466   1.567  10.537 -0.8282 -0.5410  0.9275
   61SAPC    C1 4729   5.433   1.452  10.462  0.1697 -0.2922 -0.6446
   61SAPC    HA 4730   5.492   1.360  10.482  1.1215  0.3110 -0.6457
   61SAPC    HB 4731   5.326   1.428  10.484  0.2602 -0.7270 -0.6677
   61SAPC    C2 4732   5.436   1.491  10.312 -0.0777  0.3973 -0.6193
   61SAPC    HS 4733   5.346   1.555  10.300  0.4642  1.3334  0.0949
   61SAPC   O21 4734   5.445   1.368  10.239 -0.5130  0.1135 -0.2199
   61SAPC   C21 4735   5.341   1.315  10.200 -0.4266 -0.1133 -0.4213
   61SAPC   O22 4736   5.225   1.362  10.216 -0.2905 -0.6375 -0.5052
   61SAPC   C22 4737   5.372   1.183  10.132  0.1081  1.2037  0.3706
   61SAPC   H2R 4738   5.478   1.194  10.103  0.5508 -0.1106  1.3927
   61SAPC   H2S 4739   5.365   1.092  10.196 -1.1316  0.1653 -1.1647
   61SAPC    C3 4740   5.562   1.572  10.272  0.7271 -0.0531  0.1980
   61SAPC    HX 4741   5.659   1.524  10.300 -0.2028 -1.6149  0.8796
   61SAPC    HY 4742   5.563   1.664  10.334 -1.0419  0.4032 -0.3944
   61SAPC   O31 4743   5.547   1.617  10.138 -0.2947 -0.3641  0.7171
   61SAPC   C31 4744   5.633   1.558  10.051  0.5971  0.3826  0.1698
   61SAPC   O32 4745   5.708   1.472  10.074  0.1211  0.7341  0.3379
   61SAPC   C32 4746   5.627   1.642   9.923 -0.0309  0.5087 -0.2534
   61SAPC   H2X 4747   5.587   1.743   9.949 -0.3104 -0.0920  1.7848
   61SAPC   H2Y 4748   5.545   1.598   9.863  0.5636  0.9712 -1.4364
   61SAPC   C23 4749   5.298   1.159   9.999 -0.0703  0.3512 -0.2820
   61SAPC   H3R 4750   5.188   1.169  10.004 -0.1258 -0.2197 -0.3005
   61SAPC   H3S 4751   5.315   1.055   9.964 -0.7055  0.7256 -1.8108
   61SAPC   C24 4752   5.349   1.260   9.893  0.0179  0.8966 -0.6695
   61SAPC   H4R 4753   5.355   1.358   9.945 -1.6671 -0.4513  2.3725
   61SAPC   H4S 4754   5.265   1.264   9.820  0.2291 -0.5622 -1.0364
   61SAPC   C25 4755   5.474   1.221   9.820 -0.1792 -0.4694 -0.6146
   61SAPC   H5R 4756   5.568   1.253   9.867  0.0540 -0.7588 -0.8827
   61SAPC   C26 4757   5.500   1.146   9.706  0.2300  0.4300 -0.0058
   61SAPC   H6R 4758   5.599   1.145   9.657  0.3562 -0.3628  0.2368
   61SAPC   C27 4759   5.394   1.077   9.626  0.3745  0.2559  0.2394
   61SAPC   H7R 4760   5.289   1.105   9.647 -0.2348 -0.7657 -1.2674
   61SAPC   H7S 4761   5.399   0.971   9.657  0.1369  0.2756  0.3459
   61SAPC   C28 4762   5.420   1.068   9.475  0.2169  0.5615  0.1059
   61SAPC   H8R 4763   5.468   0.976   9.438  0.2786 -0.3995  2.3883
   61SAPC   C29 4764   5.372   1.156   9.382 -0.3493  0.9479  0.5350
   61SAPC   H9R 4765   5.394   1.132   9.277 -2.1591  0.4777  0.2393
   61SAPC  C210 4766   5.296   1.281   9.407 -0.2707  0.1230  0.4542
   61SAPC  H10R 4767   5.358   1.363   9.367  0.3842  0.6289  2.4016
   61SAPC  H10S 4768   5.281   1.305   9.514 -0.6769  1.1036  0.1864
   61SAPC  C211 4769   5.165   1.281   9.340 -0.9905  0.1257 -0.4671
   61SAPC  H11R 4770   5.083   1.249   9.407  1.4614 -0.7651  2.3404
   61SAPC  C212 4771   5.150   1.300   9.209  0.1320  0.2005  1.3016
   61SAPC  H12R 4772   5.054   1.293   9.155  0.4801  3.0577  0.1655
   61SAPC  C213 4773   5.255   1.318   9.103  0.2129 -0.3088 -0.1234
   61SAPC  H13R 4774   5.354   1.344   9.146 -0.0950  2.1263 -0.7551
   61SAPC  H13S 4775   5.231   1.411   9.048 -0.3482  2.9104  4.9421
   61SAPC  C214 4776   5.260   1.198   9.013 -0.2030  0.1810  0.1274
   61SAPC  H14R 4777   5.237   1.101   9.060 -0.4992  0.7712  1.2231
   61SAPC  C215 4778   5.278   1.208   8.882 -0.3256  0.1975  0.3241
   61SAPC  H15R 4779   5.258   1.120   8.818 -0.5520  0.0672  0.5684
   61SAPC  C216 4780   5.311   1.335   8.805 -0.5988 -0.2088 -0.8451
   61SAPC  H16R 4781   5.350   1.416   8.870  1.3468 -0.4684 -1.6298
   61SAPC  H16S 4782   5.227   1.369   8.741 -1.3108  0.5392  0.4439
   61SAPC  C217 4783   5.430   1.309   8.706  0.5623 -0.0481 -0.1916
   61SAPC  H17R 4784   5.414   1.224   8.636 -1.2177 -0.4895  0.7027
   61SAPC  H17S 4785   5.517   1.288   8.772  0.4022 -2.1810 -0.5781
   61SAPC  C218 4786   5.459   1.433   8.618  0.1012  0.3792 -0.6194
   61SAPC  H18R 4787   5.562   1.448   8.577 -0.3486  1.0852 -1.5129
   61SAPC  H18S 4788   5.440   1.525   8.676 -1.4419  0.4985 -1.2710
   61SAPC  C219 4789   5.377   1.448   8.485 -0.5396  0.4825 -0.5963
   61SAPC  H19R 4790   5.272   1.472   8.513 -0.1445  2.2497 -0.4818
   61SAPC  H19S 4791   5.381   1.351   8.431  0.4670  0.0057  0.3158
   61SAPC  C220 4792   5.432   1.552   8.387  0.5372 -0.2653  0.6835
   61SAPC  H20R 4793   5.432   1.659   8.417  0.0447 -0.4739  1.4580
   61SAPC  H20S 4794   5.373   1.554   8.293  3.7454  0.5295 -1.4692
   61SAPC  H20T 4795   5.532   1.520   8.351  0.1382  0.4516 -1.1977
   61SAPC   C33 4796   5.749   1.640   9.836  0.1103 -0.4846 -0.3375
   61SAPC   H3X 4797   5.847   1.645   9.888  0.1465 -2.8731 -0.0610
   61SAPC   H3Y 4798   5.730   1.719   9.760 -0.3379  0.8522  1.1164
   61SAPC   C34 4799   5.755   1.520   9.739 -0.7140 -0.3933  0.4483
   61SAPC   H4X 4800   5.692   1.435   9.773  0.8862 -1.6091  0.4672
   61SAPC   H4Y 4801   5.859   1.483   9.743 -0.1403  1.2391  1.7053
   61SAPC   C35 4802   5.699   1.546   9.598  0.1128  0.7749 -0.0882
   61SAPC   H5X 4803   5.760   1.627   9.551 -0.2735 -0.4704 -2.9756
   61SAPC   H5Y 4804   5.590   1.565   9.605 -0.2540 -0.4942 -1.7255
   61SAPC   C36 4805   5.711   1.417   9.505  0.1472 -0.6865  0.4726
   61SAPC   H6X 4806   5.664   1.331   9.557 -3.1090 -1.1952 -2.8827
   61SAPC   H6Y 4807   5.821   1.417   9.486 -0.2528  1.3583 -2.6575
   61SAPC   C37 4808   5.643   1.424   9.369 -0.3470 -0.0927  0.6982
   61SAPC   H7X 4809   5.549   1.484   9.375 -0.5024  0.1391 -2.3629
   61SAPC   H7Y 4810   5.604   1.328   9.330  1.2110 -0.0032 -1.1967
   61SAPC   C38 4811   5.733   1.488   9.268  0.4148  0.2028  0.0558
   61SAPC   H8X 4812   5.826   1.428   9.255  0.5319 -0.1451  2.1702
   61SAPC   H8Y 4813   5.761   1.590   9.301  3.6019  0.2800 -2.3857
   61SAPC   C39 4814   5.682   1.510   9.123  0.0953  0.1544 -0.2439
   61SAPC   H9X 4815   5.588   1.567   9.118  0.0423  0.0757 -0.1623
   61SAPC   H9Y 4816   5.651   1.416   9.073 -0.1941  1.3633 -2.4549
   61SAPC  C310 4817   5.790   1.559   9.029  0.2830  0.1586 -0.0371
   61SAPC  H10X 4818   5.879   1.493   9.025 -0.0046 -0.2442  0.1510
   61SAPC  H10Y 4819   5.823   1.662   9.056  1.1888 -0.3196  0.7464
   61SAPC  C311 4820   5.754   1.549   8.880 -0.0437 -0.6715  0.3228
   61SAPC  H11X 4821   5.681   1.623   8.841 -0.6582 -0.5730  1.6083
   61SAPC  H11Y 4822   5.696   1.455   8.881  0.0302 -0.7189  0.1135
   61SAPC  C312 4823   5.882   1.549   8.790 -0.2490  0.2579 -0.3757
   61SAPC  H12X 4824   5.952   1.474   8.832 -1.0042  0.0271  0.5018
   61SAPC  H12Y 4825   5.938   1.644   8.808 -1.2198  0.6547  0.6350
   61SAPC  C313 4826   5.848   1.519   8.643 -0.1318  0.5448  0.5962
   61SAPC  H13X 4827   5.793   1.613   8.617  0.4968  0.7724  0.0646
   61SAPC  H13Y 4828   5.793   1.423   8.650  3.2978 -1.6518 -0.4712
   61SAPC  C314 4829   5.970   1.490   8.554  0.1501 -0.7874 -0.1461
   61SAPC  H14X 4830   6.041   1.572   8.579 -0.0475 -0.3605 -0.9355
   61SAPC  H14Y 4831   5.939   1.500   8.448 -0.1247  0.5876  0.0485
   61SAPC  C315 4832   6.023   1.349   8.570  0.2028 -0.4158  0.3316
   61SAPC  H15X 4833   5.941   1.279   8.542 -0.3701  0.6151 -0.6195
   61SAPC  H15Y 4834   6.040   1.333   8.679 -1.0064  0.8692  0.7383
   61SAPC  C316 4835   6.153   1.325   8.491 -0.0051 -0.3444 -1.1256
   61SAPC  H16X 4836   6.134   1.320   8.382 -0.0517  0.4836 -1.1680
   61SAPC  H16Y 4837   6.178   1.219   8.514  1.9568  0.1718 -0.6894
   61SAPC  C317 4838   6.273   1.404   8.539 -0.1014  0.4171  0.0762
   61SAPC  H17X 4839   6.265   1.412   8.650  1.1628 -1.2718  0.3269
   61SAPC  H17Y 4840   6.278   1.505   8.494  2.9851  0.5380  0.4348
   61SAPC  C318 4841   6.402   1.330   8.499  0.2856 -0.1277 -1.3267
   61SAPC  H18X 4842   6.392   1.312   8.390  0.0029  1.1679 -1.5234
   61SAPC  H18Y 4843   6.417   1.237   8.558 -0.2858 -0.3508 -1.5206
   61SAPC  H18Z 4844   6.493   1.391   8.513 -0.4684  0.9640 -1.0184
   62SAPC     N 4845   4.767   6.198  10.563 -0.3317  0.1620 -0.2045
   62SAPC   C12 4846   4.850   6.087  10.507 -0.2555 -0.5109 -0.2768
   62SAPC  H12A 4847   4.800   5.992  10.518 -0.6823 -0.2292  0.3347
   62SAPC  H12B 4848   4.938   6.065  10.566 -0.6440 -2.9018 -0.4929
   62SAPC   C13 4849   4.735   6.166  10.706  0.9516 -0.5376 -0.5042
   62SAPC  H13A 4850   4.657   6.223  10.754  1.6418 -1.4051  1.7570
   62SAPC  H13B 4851   4.724   6.061  10.729 -1.4812  0.2273  2.4571
   62SAPC  H13C 4852   4.824   6.199  10.758 -0.2899  2.2122  0.0399
   62SAPC   C14 4853   4.837   6.329  10.561  0.1347  0.1310  0.3222
   62SAPC  H14A 4854   4.772   6.407  10.599 -0.6487 -0.4900  0.2837
   62SAPC  H14B 4855   4.925   6.337  10.622  1.0471  0.0464 -0.9392
   62SAPC  H14C 4856   4.867   6.350  10.459  0.0483  0.5041  0.3706
   62SAPC   C15 4857   4.641   6.215  10.488 -0.2074 -0.3015  0.0942
   62SAPC  H15A 4858   4.586   6.122  10.493  0.4906 -0.9351 -2.3187
   62SAPC  H15B 4859   4.586   6.301  10.522 -1.1706 -0.6315 -0.5720
   62SAPC  H15C 4860   4.665   6.236  10.384  0.3602 -2.0430 -0.1595
   62SAPC   C11 4861   4.902   6.107  10.365  0.3835 -0.3110  0.3151
   62SAPC  H11A 4862   4.816   6.124  10.296 -1.2434 -2.6934  1.5852
   62SAPC  H11B 4863   4.955   6.015  10.332 -1.5325 -1.1626 -0.5951
   62SAPC     P 4864   5.143   6.215  10.407  0.1115 -0.3297 -0.0633
   62SAPC   O13 4865   5.137   6.244  10.556 -0.6260  0.6560  0.3249
   62SAPC   O14 4866   5.217   6.096  10.366 -0.1934 -0.2249  0.9056
   62SAPC   O12 4867   4.996   6.212  10.359  0.5640  0.1816 -0.1041
   62SAPC   O11 4868   5.211   6.339  10.330 -0.2214  0.1672 -0.4020
   62SAPC    C1 4869   5.160   6.468  10.361 -0.0135  0.7948 -0.0048
   62SAPC    HA 4870   5.049   6.470  10.358 -0.1023  0.8701  2.1209
   62SAPC    HB 4871   5.192   6.499  10.463  3.1185 -0.4463 -0.5008
   62SAPC    C2 4872   5.210   6.573  10.259  0.2791 -0.0463 -1.0561
   62SAPC    HS 4873   5.142   6.661  10.264 -1.7853 -1.5917  0.5703
   62SAPC   O21 4874   5.212   6.505  10.126  0.1999  0.4675 -0.2059
   62SAPC   C21 4875   5.122   6.553  10.044 -0.3147  0.2765 -0.4998
   62SAPC   O22 4876   5.055   6.653  10.070 -0.3961 -0.3103  0.1706
   62SAPC   C22 4877   5.113   6.466   9.917 -0.6453  0.3743 -0.1117
   62SAPC   H2R 4878   5.205   6.402   9.915 -0.6796  0.0822  2.8409
   62SAPC   H2S 4879   5.021   6.407   9.934 -1.4683  1.6944  0.1242
   62SAPC    C3 4880   5.355   6.616  10.291  0.1137  0.3607  0.4272
   62SAPC    HX 4881   5.417   6.525  10.274 -0.5911  0.0565 -0.6399
   62SAPC    HY 4882   5.376   6.642  10.397  2.6717 -0.5667  0.2209
   62SAPC   O31 4883   5.415   6.706  10.199  0.3142  0.3143 -0.0700
   62SAPC   C31 4884   5.378   6.836  10.216  0.3221 -0.0495 -0.3779
   62SAPC   O32 4885   5.294   6.880  10.297  0.1107  0.7887  0.8719
   62SAPC   C32 4886   5.451   6.909  10.110 -0.5145  0.4716 -0.9210
   62SAPC   H2X 4887   5.538   6.847  10.078 -0.9912  0.5436 -2.3860
   62SAPC   H2Y 4888   5.494   6.998  10.162  1.2138 -1.7523  1.7632
   62SAPC   C23 4889   5.124   6.546   9.785  0.2058  0.3069  0.0054
   62SAPC   H3R 4890   5.089   6.651   9.801  0.8737  0.5245  0.0753
   62SAPC   H3S 4891   5.044   6.511   9.717  0.8061 -1.0802 -0.0026
   62SAPC   C24 4892   5.271   6.545   9.721  0.2594 -1.1802 -0.0056
   62SAPC   H4R 4893   5.262   6.455   9.657 -0.5550 -0.5741 -0.7597
   62SAPC   H4S 4894   5.338   6.528   9.808 -0.6866  0.1763  1.0308
   62SAPC   C25 4895   5.295   6.677   9.652 -0.1924  0.1933 -0.8205
   62SAPC   H5R 4896   5.280   6.764   9.718  0.3808  0.3508 -0.8951
   62SAPC   C26 4897   5.295   6.687   9.519 -0.5967 -0.2883 -0.1961
   62SAPC   H6R 4898   5.302   6.787   9.472 -3.7463 -0.2138 -0.7241
   62SAPC   C27 4899   5.294   6.578   9.414  0.0300  0.4956  0.2070
   62SAPC   H7R 4900   5.270   6.480   9.459 -0.2150  0.4129 -0.1006
   62SAPC   H7S 4901   5.389   6.579   9.357 -1.9434 -0.3257 -3.4401
   62SAPC   C28 4902   5.204   6.593   9.294  0.6349  0.0023 -0.8704
   62SAPC   H8R 4903   5.120   6.662   9.308 -0.2911 -1.3645  0.6728
   62SAPC   C29 4904   5.212   6.518   9.178 -0.0605 -0.9324 -0.2307
   62SAPC   H9R 4905   5.136   6.537   9.101 -0.1343  0.3276  0.1198
   62SAPC  C210 4906   5.316   6.416   9.142  0.4125  0.5581 -0.1156
   62SAPC  H10R 4907   5.257   6.331   9.103  2.2640 -0.6427 -0.4126
   62SAPC  H10S 4908   5.388   6.382   9.219 -0.9012 -0.6512  0.6421
   62SAPC  C211 4909   5.403   6.469   9.028 -0.2512 -0.6571 -0.7861
   62SAPC  H11R 4910   5.453   6.563   9.055  1.8775 -1.2888 -2.2410
   62SAPC  C212 4911   5.424   6.423   8.904 -0.0330 -0.2143  0.2361
   62SAPC  H12R 4912   5.493   6.474   8.836 -2.4610 -0.2088 -2.3732
   62SAPC  C213 4913   5.355   6.299   8.845  0.2633  0.2806  0.1789
   62SAPC  H13R 4914   5.331   6.322   8.739  0.6472 -0.3794 -0.0593
   62SAPC  H13S 4915   5.261   6.278   8.899  0.0416 -2.9348 -1.2091
   62SAPC  C214 4916   5.439   6.178   8.874 -0.3781  0.7843  0.0476
   62SAPC  H14R 4917   5.466   6.176   8.981 -0.1669  1.6799  0.0223
   62SAPC  C215 4918   5.479   6.085   8.785 -0.3288 -0.2652 -0.0024
   62SAPC  H15R 4919   5.556   6.023   8.833 -1.3436  0.6117  2.9355
   62SAPC  C216 4920   5.460   6.091   8.634  0.3471  0.2310  0.1116
   62SAPC  H16R 4921   5.556   6.067   8.585  0.3314 -2.3576  1.2242
   62SAPC  H16S 4922   5.429   6.196   8.612 -2.0581  0.0222  2.0395
   62SAPC  C217 4923   5.347   6.005   8.586  0.3760  0.1433 -0.4005
   62SAPC  H17R 4924   5.346   5.909   8.643 -0.0099  0.0317 -0.5839
   62SAPC  H17S 4925   5.383   5.970   8.487 -0.3754  0.0529 -0.6551
   62SAPC  C218 4926   5.205   6.066   8.588 -0.1718  0.2116  0.9509
   62SAPC  H18R 4927   5.202   6.156   8.524  0.7723  1.4664  2.6050
   62SAPC  H18S 4928   5.179   6.100   8.690  1.0135 -1.8870  2.0151
   62SAPC  C219 4929   5.098   5.978   8.520 -0.3974 -0.1689  0.7022
   62SAPC  H19R 4930   5.084   5.881   8.573  2.0213 -1.1028 -0.1909
   62SAPC  H19S 4931   5.131   5.960   8.415 -2.4166  1.6581 -0.3284
   62SAPC  C220 4932   4.962   6.051   8.505  0.2727  0.1135  0.0960
   62SAPC  H20R 4933   4.894   5.986   8.446 -1.2586  2.3868 -0.7798
   62SAPC  H20S 4934   4.983   6.150   8.458 -1.0502  0.0555 -0.6808
   62SAPC  H20T 4935   4.915   6.075   8.603 -0.7745 -1.1849 -0.0555
   62SAPC   C33 4936   5.355   6.956  10.002 -0.6617  0.0468  0.5141
   62SAPC   H3X 4937   5.303   7.052  10.025 -0.8754  0.0835 -0.1233
   62SAPC   H3Y 4938   5.272   6.882  10.003 -0.0207 -0.6816  0.0134
   62SAPC   C34 4939   5.409   6.946   9.855 -0.2145  0.0772  0.2442
   62SAPC   H4X 4940   5.322   6.958   9.787 -0.8223  0.8620  1.1424
   62SAPC   H4Y 4941   5.456   6.846   9.845  0.4388  0.3668  0.4083
   62SAPC   C35 4942   5.505   7.066   9.833 -0.4434 -0.0147  0.0340
   62SAPC   H5X 4943   5.569   7.085   9.922 -2.2183  1.7911  1.0116
   62SAPC   H5Y 4944   5.454   7.163   9.814  0.6895  0.3449 -1.3154
   62SAPC   C36 4945   5.601   7.043   9.724  0.7402 -0.1587  0.1883
   62SAPC   H6X 4946   5.664   6.952   9.733 -2.3555 -2.4880  0.0800
   62SAPC   H6Y 4947   5.665   7.133   9.712  0.3626 -0.0737 -1.4156
   62SAPC   C37 4948   5.525   7.033   9.578 -0.3172 -0.0594 -0.6030
   62SAPC   H7X 4949   5.451   7.116   9.579  1.3480  1.7900  4.3545
   62SAPC   H7Y 4950   5.471   6.936   9.575 -2.5112  0.9890  1.3358
   62SAPC   C38 4951   5.628   7.059   9.466  0.3107  0.0915 -0.6841
   62SAPC   H8X 4952   5.700   6.975   9.452  1.2950  0.2231  2.5685
   62SAPC   H8Y 4953   5.682   7.152   9.496 -0.1862 -0.0546  0.7602
   62SAPC   C39 4954   5.551   7.093   9.340  0.2247 -0.2653 -0.3099
   62SAPC   H9X 4955   5.636   7.129   9.277  1.4177  0.1507  1.4736
   62SAPC   H9Y 4956   5.470   7.168   9.350  0.8154  0.5436 -1.3206
   62SAPC  C310 4957   5.481   6.974   9.263 -0.8087 -0.0659  0.6046
   62SAPC  H10X 4958   5.444   6.897   9.333 -2.1312  0.1098  0.1403
   62SAPC  H10Y 4959   5.561   6.933   9.197 -1.3244  0.7039 -0.5400
   62SAPC  C311 4960   5.368   7.029   9.167 -0.3049 -0.3095  0.1286
   62SAPC  H11X 4961   5.402   7.101   9.090 -0.6112  1.1122  1.2811
   62SAPC  H11Y 4962   5.300   7.092   9.228 -0.2845  1.5790 -1.6967
   62SAPC  C312 4963   5.307   6.905   9.101  0.1122 -0.4815 -0.6553
   62SAPC  H12X 4964   5.248   6.846   9.175  0.5467  3.2770  3.1011
   62SAPC  H12Y 4965   5.384   6.837   9.060  1.5286 -0.6810  2.0996
   62SAPC  C313 4966   5.204   6.951   8.996 -0.4245  0.1920 -0.5279
   62SAPC  H13X 4967   5.253   7.028   8.933  0.7973 -0.7948 -0.8306
   62SAPC  H13Y 4968   5.122   6.996   9.055 -1.1780 -1.4385 -0.2683
   62SAPC  C314 4969   5.148   6.831   8.918 -0.1977 -0.3834  0.1698
   62SAPC  H14X 4970   5.052   6.867   8.875 -0.1393 -1.1200 -0.6086
   62SAPC  H14Y 4971   5.131   6.756   8.998  3.5109  0.3917  1.8991
   62SAPC  C315 4972   5.246   6.774   8.814 -0.1792 -0.1637  0.2843
   62SAPC  H15X 4973   5.350   6.778   8.853  0.3202  2.0831 -1.0924
   62SAPC  H15Y 4974   5.253   6.824   8.715  0.3867 -1.6083 -0.4421
   62SAPC  C316 4975   5.205   6.633   8.764 -0.1118  0.3948 -0.0129
   62SAPC  H16X 4976   5.215   6.566   8.853 -1.6113  1.7041  1.1983
   62SAPC  H16Y 4977   5.276   6.601   8.685  0.4217  0.4380  0.4431
   62SAPC  C317 4978   5.070   6.622   8.699 -0.4699  0.6775 -0.1584
   62SAPC  H17X 4979   5.075   6.694   8.614  0.5421 -0.5458 -1.1736
   62SAPC  H17Y 4980   4.993   6.660   8.769 -3.1282  0.5790 -2.8129
   62SAPC  C318 4981   5.033   6.486   8.647  0.4580 -0.2762  0.2652
   62SAPC  H18X 4982   5.017   6.419   8.735  0.4485  0.9997  1.2694
   62SAPC  H18Y 4983   5.103   6.425   8.586 -2.4655 -1.4771 -2.1629
   62SAPC  H18Z 4984   4.945   6.486   8.580  0.7886 -0.1230 -0.1698
   63SAPC     N 4985   0.062   4.369   6.149 -0.0644  0.1796 -0.9112
   63SAPC   C12 4986   0.112   4.422   6.284 -0.4563 -0.5795 -0.3802
   63SAPC  H12A 4987   0.044   4.498   6.318 -0.0811  0.4045 -1.7398
   63SAPC  H12B 4988   0.205   4.473   6.263  0.9033 -3.3913 -1.8003
   63SAPC   C13 4989   0.167   4.281   6.088  0.3921 -0.2766  0.4267
   63SAPC  H13A 4990   0.128   4.238   5.997 -0.9442 -1.9155  1.7017
   63SAPC  H13B 4991   0.263   4.328   6.077  0.9128 -1.7145 -1.8164
   63SAPC  H13C 4992   0.186   4.193   6.147  2.2163 -0.0796  0.1898
   63SAPC   C14 4993  -0.065   4.289   6.167  0.4074  0.2427  0.1510
   63SAPC  H14A 4994  -0.141   4.346   6.218 -1.1865 -0.1117 -1.6976
   63SAPC  H14B 4995  -0.103   4.266   6.068 -1.0135 -1.3893  1.0349
   63SAPC  H14C 4996  -0.050   4.202   6.228 -0.0992  1.2062  1.7017
   63SAPC   C15 4997   0.038   4.484   6.062 -0.8206  0.8307 -0.5876
   63SAPC  H15A 4998   0.125   4.499   5.999 -1.2014  0.9212 -1.0955
   63SAPC  H15B 4999  -0.047   4.467   5.997 -1.9053 -1.4183  1.2528
   63SAPC  H15C 5000   0.016   4.577   6.111 -1.6341  0.4949 -0.3054
   63SAPC   C11 5001   0.139   4.316   6.400 -0.7477  0.3310  0.8766
   63SAPC  H11A 5002   0.046   4.254   6.396 -3.0723  3.5431 -2.7599
   63SAPC  H11B 5003   0.133   4.368   6.498 -2.6204  0.2271  0.8589
   63SAPC     P 5004   0.406   4.305   6.403  0.6402  0.1109 -0.2096
   63SAPC   O13 5005   0.513   4.219   6.346 -0.4542  0.6685 -0.0048
   63SAPC   O14 5006   0.414   4.448   6.372 -0.1269 -0.1768 -0.8904
   63SAPC   O12 5007   0.263   4.239   6.371 -0.0147  0.3927  0.1165
   63SAPC   O11 5008   0.406   4.284   6.555 -0.3254 -0.2503  0.1850
   63SAPC    C1 5009   0.449   4.179   6.635  0.6086  0.7084 -0.5345
   63SAPC    HA 5010   0.531   4.121   6.588 -0.1395 -1.5864  0.7997
   63SAPC    HB 5011   0.472   4.224   6.734 -1.3353 -2.8697  1.7803
   63SAPC    C2 5012   0.333   4.081   6.663  0.0909  0.7254  0.6623
   63SAPC    HS 5013   0.316   4.033   6.565  0.4473  1.6188  0.1473
   63SAPC   O21 5014   0.217   4.163   6.699  0.8358 -0.2756 -0.2542
   63SAPC   C21 5015   0.102   4.112   6.693 -0.5310  0.7710 -0.2589
   63SAPC   O22 5016   0.081   4.007   6.637  0.0766 -0.2739 -0.1748
   63SAPC   C22 5017  -0.004   4.203   6.766 -0.7428 -0.0389 -0.4310
   63SAPC   H2R 5018   0.054   4.280   6.821 -1.5648  1.1842 -1.2437
   63SAPC   H2S 5019  -0.070   4.254   6.693 -0.3460  0.4933 -0.4220
   63SAPC    C3 5020   0.367   3.970   6.764 -0.0923  0.6930 -0.3838
   63SAPC    HX 5021   0.463   3.925   6.730  0.2904  0.6409  0.7393
   63SAPC    HY 5022   0.286   3.894   6.775 -0.3924  0.6953 -2.1879
   63SAPC   O31 5023   0.405   4.030   6.888 -0.3386  0.5173  0.3857
   63SAPC   C31 5024   0.316   4.042   6.981 -0.0845 -0.2237  0.2843
   63SAPC   O32 5025   0.197   4.014   6.980 -0.5730 -0.0795  0.7010
   63SAPC   C32 5026   0.390   4.104   7.099 -0.1126 -0.1736 -0.0983
   63SAPC   H2X 5027   0.411   4.210   7.072 -0.3119 -0.1178 -0.0356
   63SAPC   H2Y 5028   0.486   4.049   7.112 -0.7517 -1.0201  1.2091
   63SAPC   C23 5029  -0.099   4.120   6.859 -1.0809  0.5547  0.8275
   63SAPC   H3R 5030  -0.042   4.064   6.936 -0.3053  0.5724  0.2808
   63SAPC   H3S 5031  -0.142   4.040   6.794  2.0901  1.3965 -2.6335
   63SAPC   C24 5032  -0.203   4.210   6.924 -0.4808  0.2203 -0.4642
   63SAPC   H4R 5033  -0.261   4.254   6.840 -1.6472 -0.8932 -0.2785
   63SAPC   H4S 5034  -0.155   4.297   6.972 -2.6142  1.1604  0.0997
   63SAPC   C25 5035  -0.302   4.143   7.015 -0.0783 -1.0732  0.2734
   63SAPC   H5R 5036  -0.384   4.086   6.968  0.6026  0.0956 -2.5416
   63SAPC   C26 5037  -0.287   4.158   7.147 -0.5664 -0.6746  0.1953
   63SAPC   H6R 5038  -0.368   4.126   7.215 -0.7657 -0.8858 -0.1419
   63SAPC   C27 5039  -0.174   4.222   7.228  0.7352 -0.2701 -0.3384
   63SAPC   H7R 5040  -0.227   4.303   7.283  2.3383  0.7843 -0.2710
   63SAPC   H7S 5041  -0.093   4.257   7.160  0.8139 -1.0004 -0.6206
   63SAPC   C28 5042  -0.125   4.126   7.327  0.0213  0.7094 -0.1212
   63SAPC   H8R 5043  -0.079   4.034   7.287  1.8145  1.7724 -0.6406
   63SAPC   C29 5044  -0.109   4.137   7.459  0.2174  0.0389 -0.3897
   63SAPC   H9R 5045  -0.084   4.051   7.521 -0.7067  0.6173  0.8284
   63SAPC  C210 5046  -0.165   4.255   7.540 -0.2905 -0.1958  0.2684
   63SAPC  H10R 5047  -0.191   4.348   7.486 -3.6187 -1.2805 -0.2077
   63SAPC  H10S 5048  -0.080   4.276   7.609 -0.1208  2.9839 -0.7524
   63SAPC  C211 5049  -0.288   4.213   7.621 -0.6208 -0.0214 -0.7123
   63SAPC  H11R 5050  -0.352   4.143   7.565  0.6714 -0.4901 -1.6416
   63SAPC  C212 5051  -0.303   4.244   7.750 -0.8740 -0.0310  0.1818
   63SAPC  H12R 5052  -0.392   4.200   7.796  0.9613 -1.7804  2.2764
   63SAPC  C213 5053  -0.207   4.318   7.841 -0.3457 -0.3179 -0.0378
   63SAPC  H13R 5054  -0.243   4.422   7.854  0.4146 -0.1117  0.4609
   63SAPC  H13S 5055  -0.107   4.329   7.793 -0.6295  0.9776 -0.3518
   63SAPC  C214 5056  -0.192   4.251   7.979  0.8328 -1.0564 -0.3417
   63SAPC  H14R 5057  -0.267   4.177   8.012  0.2239 -0.4083 -0.2596
   63SAPC  C215 5058  -0.111   4.300   8.068 -0.6198 -0.2644 -0.6038
   63SAPC  H15R 5059  -0.094   4.252   8.166 -1.2014  0.4064 -0.1681
   63SAPC  C216 5060  -0.017   4.424   8.056  0.5170 -0.8781  0.1212
   63SAPC  H16R 5061  -0.051   4.506   8.122  2.0136  2.9347 -3.4263
   63SAPC  H16S 5062  -0.024   4.467   7.954 -2.5039  0.5856  0.8263
   63SAPC  C217 5063   0.133   4.402   8.083 -0.0631  0.0350 -0.2625
   63SAPC  H17R 5064   0.191   4.487   8.042  0.7441 -0.5434 -0.3474
   63SAPC  H17S 5065   0.164   4.313   8.023 -0.8030  0.5730 -1.4694
   63SAPC  C218 5066   0.170   4.383   8.232 -0.0111  0.0405 -0.4163
   63SAPC  H18R 5067   0.130   4.287   8.270  0.6786 -0.4953 -1.0111
   63SAPC  H18S 5068   0.130   4.468   8.291 -0.3571 -0.0927 -0.4592
   63SAPC  C219 5069   0.318   4.399   8.268  0.2340  0.1605 -0.1067
   63SAPC  H19R 5070   0.356   4.502   8.255 -0.3537  0.6094  1.4612
   63SAPC  H19S 5071   0.383   4.333   8.207 -0.9343 -0.7115 -0.4568
   63SAPC  C220 5072   0.329   4.361   8.412  0.2737 -0.0434  0.2114
   63SAPC  H20R 5073   0.335   4.252   8.432  2.1491 -0.0422 -0.1808
   63SAPC  H20S 5074   0.235   4.386   8.466 -0.9632 -3.4950 -0.0743
   63SAPC  H20T 5075   0.415   4.411   8.461 -0.3742  1.9334 -0.5469
   63SAPC   C33 5076   0.322   4.080   7.237 -0.1397 -0.1162  0.3604
   63SAPC   H3X 5077   0.294   3.976   7.267 -2.3111  0.3883  0.2965
   63SAPC   H3Y 5078   0.227   4.139   7.234  0.6063  1.3012  2.5590
   63SAPC   C34 5079   0.413   4.139   7.348  0.5009 -0.3732  0.0044
   63SAPC   H4X 5080   0.400   4.249   7.351 -0.0086 -0.3217 -2.2327
   63SAPC   H4Y 5081   0.520   4.117   7.328  0.2433 -2.4982  0.7541
   63SAPC   C35 5082   0.387   4.084   7.484  0.3102 -0.2087 -0.3119
   63SAPC   H5X 5083   0.435   4.156   7.554 -0.0987 -1.1559  0.9845
   63SAPC   H5Y 5084   0.443   3.989   7.503  0.1424 -0.3144 -0.3464
   63SAPC   C36 5085   0.238   4.077   7.518 -0.4104 -0.0646 -0.1289
   63SAPC   H6X 5086   0.207   3.973   7.495  2.3667 -0.7934 -0.9640
   63SAPC   H6Y 5087   0.196   4.151   7.447  0.6504  0.9546  0.2676
   63SAPC   C37 5088   0.207   4.089   7.664 -0.1958  0.0768  0.8267
   63SAPC   H7X 5089   0.100   4.067   7.682  0.1809 -0.4014  2.6193
   63SAPC   H7Y 5090   0.249   4.184   7.704  3.7944 -0.6805 -1.0052
   63SAPC   C38 5091   0.263   3.966   7.743 -0.4153 -0.8232  0.6271
   63SAPC   H8X 5092   0.355   3.926   7.696  0.4479  2.3484 -0.6585
   63SAPC   H8Y 5093   0.184   3.888   7.740  1.1816 -2.6356 -4.5604
   63SAPC   C39 5094   0.289   3.995   7.890  0.2766 -0.1666  0.2599
   63SAPC   H9X 5095   0.197   4.047   7.921 -0.4190 -0.5646 -1.0459
   63SAPC   H9Y 5096   0.371   4.066   7.913 -0.1838 -0.4572  3.2000
   63SAPC  C310 5097   0.329   3.873   7.966  1.0235  0.1542 -0.2493
   63SAPC  H10X 5098   0.406   3.811   7.916  0.1224  0.5534 -2.1929
   63SAPC  H10Y 5099   0.248   3.798   7.982  1.1758  0.3712  1.8370
   63SAPC  C311 5100   0.368   3.902   8.108 -0.5577 -0.4065  0.2063
   63SAPC  H11X 5101   0.290   3.962   8.159  1.2557  1.1147  1.3238
   63SAPC  H11Y 5102   0.462   3.960   8.117  0.8086 -2.4791 -0.0316
   63SAPC  C312 5103   0.390   3.774   8.193 -0.0425  0.5846 -0.1286
   63SAPC  H12X 5104   0.473   3.717   8.146 -1.2582 -0.8724 -0.6007
   63SAPC  H12Y 5105   0.303   3.705   8.186  0.3690  0.1956 -2.0084
   63SAPC  C313 5106   0.440   3.803   8.332  0.0954  0.3508 -0.0245
   63SAPC  H13X 5107   0.370   3.767   8.411 -1.0370  2.9796  0.2956
   63SAPC  H13Y 5108   0.431   3.913   8.348 -0.0097  0.0883  2.0869
   63SAPC  C314 5109   0.578   3.752   8.371 -0.0854  0.3631 -0.0467
   63SAPC  H14X 5110   0.568   3.642   8.368 -0.7754  0.3125  2.2903
   63SAPC  H14Y 5111   0.570   3.773   8.480 -1.1660  2.7879 -0.5105
   63SAPC  C315 5112   0.699   3.819   8.308  0.9718 -0.4618 -0.3186
   63SAPC  H15X 5113   0.693   3.930   8.301  0.4935 -0.4221  0.5820
   63SAPC  H15Y 5114   0.709   3.782   8.204  0.7345 -0.7874 -0.2259
   63SAPC  C316 5115   0.836   3.802   8.373  0.4747  0.0874  0.6659
   63SAPC  H16X 5116   0.826   3.698   8.408 -2.5436 -0.2248 -0.7878
   63SAPC  H16Y 5117   0.841   3.876   8.456 -1.1021 -0.2066  1.0568
   63SAPC  C317 5118   0.955   3.810   8.267 -0.4096  0.7800 -0.2990
   63SAPC  H17X 5119   1.046   3.844   8.322  0.6579 -0.5500 -1.1851
   63SAPC  H17Y 5120   0.926   3.888   8.193  3.1710  0.9091 -1.7938
   63SAPC  C318 5121   0.984   3.681   8.191  0.4946  0.1146 -0.6479
   63SAPC  H18X 5122   1.020   3.599   8.257  0.6497  0.7895  0.1097
   63SAPC  H18Y 5123   1.055   3.685   8.106 -0.9690  0.3757 -1.9139
   63SAPC  H18Z 5124   0.896   3.634   8.141  0.0446 -0.5722  0.7384
   64SAPC     N 5125   2.458   4.863   5.681  0.1671  0.8077  0.5693
   64SAPC   C12 5126   2.496   5.011   5.647  0.6916  0.3417 -0.4595
   64SAPC  H12A 5127   2.409   5.073   5.664 -1.6904 -2.6803 -0.6589
   64SAPC  H12B 5128   2.523   5.024   5.543  2.5256  1.1373  0.0790
   64SAPC   C13 5129   2.378   4.873   5.812 -0.1526 -0.3711  0.8640
   64SAPC  H13A 5130   2.444   4.923   5.882  0.3815 -0.0428  0.1344
   64SAPC  H13B 5131   2.286   4.929   5.816 -0.3106 -0.6785  1.6804
   64SAPC  H13C 5132   2.362   4.773   5.851  1.3255 -0.6432  0.8186
   64SAPC   C14 5133   2.375   4.808   5.571  0.6075 -0.2967  0.5284
   64SAPC  H14A 5134   2.427   4.802   5.477 -0.1017  0.0094  0.1070
   64SAPC  H14B 5135   2.342   4.708   5.594  1.5672 -1.0879 -1.3337
   64SAPC  H14C 5136   2.290   4.873   5.556 -0.3413 -1.0009  2.4830
   64SAPC   C15 5137   2.570   4.764   5.701  0.1441  0.5428  0.1664
   64SAPC  H15A 5138   2.641   4.803   5.773 -0.1316  0.1092  0.6861
   64SAPC  H15B 5139   2.531   4.673   5.744  1.2000 -0.0308 -0.0639
   64SAPC  H15C 5140   2.619   4.741   5.607 -0.4956  1.7320 -0.4793
   64SAPC   C11 5141   2.616   5.072   5.726  0.5115  0.3073 -0.3615
   64SAPC  H11A 5142   2.637   5.175   5.688 -1.7197  0.7917 -0.4387
   64SAPC  H11B 5143   2.700   5.008   5.690  1.4594 -0.0110  2.2411
   64SAPC     P 5144   2.527   5.177   5.950  0.1239  0.2056 -0.0105
   64SAPC   O13 5145   2.618   5.276   5.999 -0.0418 -0.4481  0.3447
   64SAPC   O14 5146   2.414   5.221   5.865  0.3777  0.3003  0.4639
   64SAPC   O12 5147   2.612   5.064   5.872 -0.0041  0.3889 -0.0570
   64SAPC   O11 5148   2.467   5.090   6.067 -0.3144 -0.3460 -0.1180
   64SAPC    C1 5149   2.541   5.025   6.166 -0.1076  0.4110 -0.7624
   64SAPC    HA 5150   2.639   4.984   6.133  0.2298 -1.8479  2.5339
   64SAPC    HB 5151   2.566   5.100   6.244 -3.1787  0.1074  0.6352
   64SAPC    C2 5152   2.471   4.899   6.221  0.1192 -0.0787  0.1549
   64SAPC    HS 5153   2.468   4.837   6.129  4.1775 -2.0558  1.0996
   64SAPC   O21 5154   2.348   4.925   6.290 -0.0191 -0.5679  0.1129
   64SAPC   C21 5155   2.241   4.873   6.236  0.2995  0.1656 -0.0155
   64SAPC   O22 5156   2.233   4.808   6.137  0.2429  0.0335  0.0378
   64SAPC   C22 5157   2.119   4.898   6.323  0.1680  0.1144 -0.0933
   64SAPC   H2R 5158   2.123   4.955   6.418 -0.5991 -2.4084  1.5510
   64SAPC   H2S 5159   2.038   4.929   6.254 -0.6268  0.3156  0.9029
   64SAPC    C3 5160   2.569   4.825   6.316  0.1295 -0.1162  0.4495
   64SAPC    HX 5161   2.603   4.888   6.401  3.8443 -2.5643  1.0378
   64SAPC    HY 5162   2.667   4.795   6.272 -1.4802 -3.9473 -0.8975
   64SAPC   O31 5163   2.500   4.712   6.376 -0.1798  0.1714  0.4239
   64SAPC   C31 5164   2.583   4.627   6.428  0.1472  0.5121 -0.4903
   64SAPC   O32 5165   2.707   4.636   6.427 -0.8608  0.9153  0.5414
   64SAPC   C32 5166   2.506   4.496   6.469 -0.7247 -0.6288  0.0468
   64SAPC   H2X 5167   2.482   4.440   6.376  0.4543 -0.5362 -0.3304
   64SAPC   H2Y 5168   2.413   4.524   6.523 -1.1455  1.3044 -1.5219
   64SAPC   C23 5169   2.069   4.761   6.383  0.6497 -0.2003  0.1092
   64SAPC   H3R 5170   2.069   4.690   6.298 -0.3410  0.2809 -0.3165
   64SAPC   H3S 5171   1.965   4.763   6.424  0.8290  1.4398  0.5655
   64SAPC   C24 5172   2.162   4.703   6.488  0.3399  0.3511 -0.7720
   64SAPC   H4R 5173   2.265   4.726   6.452  0.3142  2.4978  0.3763
   64SAPC   H4S 5174   2.163   4.592   6.495  0.1320  0.3128 -1.2631
   64SAPC   C25 5175   2.140   4.745   6.636 -0.5486  0.1649  0.9362
   64SAPC   H5R 5176   2.040   4.730   6.680 -0.9543  2.9654  1.1186
   64SAPC   C26 5177   2.230   4.814   6.704 -0.6921 -0.1296  0.2653
   64SAPC   H6R 5178   2.207   4.856   6.803  0.9716  1.8139 -0.0996
   64SAPC   C27 5179   2.358   4.862   6.649 -0.2162 -0.0445 -0.4279
   64SAPC   H7R 5180   2.352   4.876   6.539 -0.1711  1.1615 -0.2891
   64SAPC   H7S 5181   2.433   4.781   6.665  1.7494  1.9478  0.9445
   64SAPC   C28 5182   2.400   4.988   6.723  0.2163 -0.2074  0.7092
   64SAPC   H8R 5183   2.348   5.081   6.696  0.1068 -0.5753 -0.3785
   64SAPC   C29 5184   2.489   4.982   6.829 -0.0431 -0.0107  0.0271
   64SAPC   H9R 5185   2.515   5.078   6.875 -2.0099  1.1950 -1.2260
   64SAPC  C210 5186   2.558   4.856   6.884 -0.1390 -0.0768  0.1507
   64SAPC  H10R 5187   2.639   4.819   6.818 -1.8200 -1.4768 -1.2018
   64SAPC  H10S 5188   2.486   4.773   6.897  0.9576 -0.8871  1.3393
   64SAPC  C211 5189   2.618   4.873   7.026  0.3374  0.7948  0.1584
   64SAPC  H11R 5190   2.724   4.901   7.015  0.0731  1.4860 -0.7570
   64SAPC  C212 5191   2.562   4.852   7.147  0.1954  0.3039 -0.4873
   64SAPC  H12R 5192   2.611   4.885   7.240 -0.6886 -0.6390  0.3414
   64SAPC  C213 5193   2.420   4.808   7.177  0.1183  0.2675  0.2161
   64SAPC  H13R 5194   2.418   4.727   7.253 -1.0186  1.3409  1.4043
   64SAPC  H13S 5195   2.380   4.756   7.087 -0.4713 -0.0593  0.6574
   64SAPC  C214 5196   2.328   4.914   7.218 -0.2221 -0.2107 -0.0028
   64SAPC  H14R 5197   2.309   4.992   7.143  0.7153  0.4678  0.4244
   64SAPC  C215 5198   2.270   4.929   7.338  0.6504 -0.2068  0.5608
   64SAPC  H15R 5199   2.206   5.016   7.356  0.6160  0.2621 -1.6143
   64SAPC  C216 5200   2.289   4.841   7.459 -0.2200 -0.4314  0.0291
   64SAPC  H16R 5201   2.395   4.849   7.490 -1.0770  2.4140  2.8013
   64SAPC  H16S 5202   2.277   4.734   7.431  2.5759 -0.5465 -1.0424
   64SAPC  C217 5203   2.193   4.876   7.574  0.0292 -0.0809  0.1385
   64SAPC  H17R 5204   2.091   4.846   7.541  0.0258 -1.7631  1.5064
   64SAPC  H17S 5205   2.207   4.984   7.594 -0.0616  0.2766 -1.5968
   64SAPC  C218 5206   2.210   4.806   7.708  0.3095  0.0197  0.2046
   64SAPC  H18R 5207   2.307   4.818   7.760  0.6746 -0.4294 -0.3601
   64SAPC  H18S 5208   2.191   4.698   7.691  1.4159 -0.3484  1.1609
   64SAPC  C219 5209   2.105   4.859   7.802  0.7908 -0.6121 -0.1833
   64SAPC  H19R 5210   2.004   4.856   7.755  1.2511  2.6964 -1.6368
   64SAPC  H19S 5211   2.116   4.969   7.813  1.5647 -0.8674  2.1038
   64SAPC  C220 5212   2.111   4.805   7.940 -0.1149  0.1450 -0.1854
   64SAPC  H20R 5213   2.211   4.805   7.988 -0.7618 -0.8841  1.2413
   64SAPC  H20S 5214   2.075   4.700   7.948 -0.3584  0.1423 -1.2088
   64SAPC  H20T 5215   2.043   4.857   8.011 -1.2721 -0.7405 -0.6216
   64SAPC   C33 5216   2.581   4.395   6.564 -0.7115  0.3130 -0.2525
   64SAPC   H3X 5217   2.673   4.359   6.513  0.2495  4.4103 -1.8166
   64SAPC   H3Y 5218   2.519   4.303   6.566 -1.9577  1.1001 -1.4281
   64SAPC   C34 5219   2.605   4.450   6.706  0.2575  0.2817 -0.3917
   64SAPC   H4X 5220   2.513   4.503   6.738  0.6332  0.3539  0.5987
   64SAPC   H4Y 5221   2.687   4.525   6.698 -0.0950  0.5160 -2.1746
   64SAPC   C35 5222   2.636   4.340   6.810  0.3623 -0.1830  0.4882
   64SAPC   H5X 5223   2.694   4.256   6.765  2.7537  1.8441 -0.5019
   64SAPC   H5Y 5224   2.533   4.317   6.844 -0.7545  1.0708 -1.8264
   64SAPC   C36 5225   2.723   4.392   6.925  0.1003 -0.3312 -0.0949
   64SAPC   H6X 5226   2.770   4.490   6.901  0.8205 -0.6603 -0.0404
   64SAPC   H6Y 5227   2.810   4.323   6.929 -0.5283 -1.0971  0.5194
   64SAPC   C37 5228   2.656   4.408   7.061  0.2529  0.0818  0.8100
   64SAPC   H7X 5229   2.600   4.314   7.081  3.2930 -1.9042  0.6876
   64SAPC   H7Y 5230   2.581   4.490   7.057  0.9517  0.7174  0.6353
   64SAPC   C38 5231   2.751   4.419   7.180 -0.0965  0.2186  0.2955
   64SAPC   H8X 5232   2.811   4.512   7.179 -1.4344  1.1293  1.4698
   64SAPC   H8Y 5233   2.825   4.338   7.165 -1.8978 -1.2788 -0.9620
   64SAPC   C39 5234   2.678   4.393   7.314 -0.3800  0.3722  0.4264
   64SAPC   H9X 5235   2.760   4.386   7.389 -1.1099  0.1651  1.2217
   64SAPC   H9Y 5236   2.629   4.293   7.308  1.2783 -0.5097  0.9684
   64SAPC  C310 5237   2.584   4.499   7.369 -0.0960 -0.4249  0.4090
   64SAPC  H10X 5238   2.500   4.517   7.298  1.5328  1.9785 -1.0768
   64SAPC  H10Y 5239   2.642   4.592   7.390  0.5527 -0.6858 -0.2030
   64SAPC  C311 5240   2.526   4.450   7.500 -0.2625 -0.5881  0.3211
   64SAPC  H11X 5241   2.476   4.352   7.483  1.1209 -0.8072 -3.4477
   64SAPC  H11Y 5242   2.446   4.523   7.521 -0.5835  0.4920 -3.8165
   64SAPC  C312 5243   2.626   4.463   7.619  0.3740 -0.2152 -0.1240
   64SAPC  H12X 5244   2.656   4.569   7.634  1.8881 -0.4493 -1.2628
   64SAPC  H12Y 5245   2.725   4.416   7.599  0.8675  0.2464  1.1454
   64SAPC  C313 5246   2.556   4.409   7.746  0.5423 -0.1961  0.6306
   64SAPC  H13X 5247   2.642   4.397   7.814  0.8542  1.9210  0.6874
   64SAPC  H13Y 5248   2.504   4.313   7.727 -0.5995  0.5195 -0.0072
   64SAPC  C314 5249   2.443   4.498   7.802  0.2625 -0.1740 -0.2210
   64SAPC  H14X 5250   2.371   4.495   7.717  0.8597 -0.8525 -0.7219
   64SAPC  H14Y 5251   2.482   4.600   7.819  0.9154 -0.3740 -0.4978
   64SAPC  C315 5252   2.400   4.442   7.935 -0.4709  1.1696 -0.2279
   64SAPC  H15X 5253   2.374   4.335   7.918  0.7050  0.5626  1.4625
   64SAPC  H15Y 5254   2.309   4.494   7.970 -1.3746 -0.7344  0.4028
   64SAPC  C316 5255   2.504   4.448   8.050  0.0290  0.1159 -0.3536
   64SAPC  H16X 5256   2.553   4.548   8.038 -0.8099  0.4960 -0.7129
   64SAPC  H16Y 5257   2.581   4.369   8.047  0.8094  0.8593 -0.3210
   64SAPC  C317 5258   2.430   4.432   8.189 -0.0558 -0.0129  0.0127
   64SAPC  H17X 5259   2.366   4.342   8.199 -0.8054  0.4762 -0.3241
   64SAPC  H17Y 5260   2.352   4.511   8.196 -0.8497 -0.6605 -1.0654
   64SAPC  C318 5261   2.519   4.453   8.309 -0.0433  0.0139  0.1364
   64SAPC  H18X 5262   2.463   4.477   8.402  0.2953  1.3272  0.0201
   64SAPC  H18Y 5263   2.594   4.531   8.284  1.4272 -0.5426  2.5258
   64SAPC  H18Z 5264   2.588   4.370   8.334 -2.3881 -2.0442  0.1132
   65SAPC     N 5265   2.153   6.322   5.806  0.0781 -0.2412  0.1188
   65SAPC   C12 5266   2.237   6.323   5.934 -0.0708 -0.0707 -0.1546
   65SAPC  H12A 5267   2.247   6.217   5.950  1.4660 -0.3017 -2.2798
   65SAPC  H12B 5268   2.187   6.350   6.026 -2.8728 -3.8566 -0.3418
   65SAPC   C13 5269   2.134   6.462   5.753  0.0123 -0.1187  0.4307
   65SAPC  H13A 5270   2.031   6.480   5.728  0.1967 -0.6767 -0.8068
   65SAPC  H13B 5271   2.180   6.532   5.821  1.4387 -0.0483 -0.5668
   65SAPC  H13C 5272   2.194   6.482   5.665  0.4400 -3.1633 -0.0911
   65SAPC   C14 5273   2.222   6.248   5.695 -0.7834 -0.0030 -0.2175
   65SAPC  H14A 5274   2.154   6.234   5.612 -1.0162  0.0277 -0.0328
   65SAPC  H14B 5275   2.309   6.305   5.666 -0.4826 -1.7313 -3.1534
   65SAPC  H14C 5276   2.258   6.150   5.724 -0.0762  0.1634 -0.5304
   65SAPC   C15 5277   2.015   6.270   5.832  0.1537 -0.2870 -0.2313
   65SAPC  H15A 5278   1.966   6.330   5.907 -1.3869  0.5432 -1.8316
   65SAPC  H15B 5279   1.952   6.284   5.745  1.0863 -1.1235 -1.0622
   65SAPC  H15C 5280   2.003   6.167   5.863 -1.4808 -0.0729 -0.0698
   65SAPC   C11 5281   2.377   6.384   5.931  0.3430  0.7070 -0.0362
   65SAPC  H11A 5282   2.418   6.397   6.034  2.9922 -1.3050 -0.7077
   65SAPC  H11B 5283   2.365   6.492   5.909 -0.4469  1.6067  3.9693
   65SAPC     P 5284   2.535   6.190   5.861  0.2585  0.2276  0.0829
   65SAPC   O13 5285   2.473   6.090   5.774  0.1598 -0.3596  0.9311
   65SAPC   O14 5286   2.684   6.202   5.858  0.3056 -0.5612  0.2364
   65SAPC   O12 5287   2.473   6.329   5.843  0.3160 -0.1594 -0.2734
   65SAPC   O11 5288   2.485   6.158   6.011 -0.0529  0.2723  0.1537
   65SAPC    C1 5289   2.542   6.048   6.079  0.0140  0.5682 -0.4248
   65SAPC    HA 5290   2.589   5.971   6.014  1.2512 -1.3873  2.5182
   65SAPC    HB 5291   2.623   6.079   6.148 -1.0204  1.4143  0.4564
   65SAPC    C2 5292   2.433   5.981   6.174 -0.6584 -1.1767  0.1661
   65SAPC    HS 5293   2.341   5.960   6.116 -0.7495 -0.6124  0.0974
   65SAPC   O21 5294   2.420   6.063   6.288  0.0166  0.2274 -0.1381
   65SAPC   C21 5295   2.300   6.092   6.324  0.4428 -1.2688 -0.3973
   65SAPC   O22 5296   2.200   6.049   6.276  0.2383 -0.0720  0.2186
   65SAPC   C22 5297   2.308   6.172   6.460  0.2827  0.7919 -0.1908
   65SAPC   H2R 5298   2.336   6.096   6.535 -0.3086  0.4119 -0.3416
   65SAPC   H2S 5299   2.393   6.242   6.453  0.8205  0.1308 -0.3150
   65SAPC    C3 5300   2.494   5.842   6.223 -0.1107  0.0608 -0.5294
   65SAPC    HX 5301   2.592   5.868   6.268 -0.7036  3.6370 -1.0731
   65SAPC    HY 5302   2.522   5.792   6.128 -0.1906  0.8000 -0.9446
   65SAPC   O31 5303   2.414   5.755   6.306 -0.3625 -0.0524  0.2995
   65SAPC   C31 5304   2.329   5.674   6.242 -0.2645  0.0505 -0.4337
   65SAPC   O32 5305   2.317   5.664   6.124 -0.4659 -0.5519 -0.2933
   65SAPC   C32 5306   2.250   5.600   6.349  0.4033 -0.5594 -0.0027
   65SAPC   H2X 5307   2.284   5.494   6.345 -1.2605 -1.2144  1.5555
   65SAPC   H2Y 5308   2.147   5.603   6.310  1.4060 -1.2379 -2.9351
   65SAPC   C23 5309   2.181   6.244   6.513 -0.0470  0.1862  0.1454
   65SAPC   H3R 5310   2.130   6.165   6.573  0.9652  1.0426  2.2295
   65SAPC   H3S 5311   2.111   6.276   6.432 -2.0711 -1.1348  1.2736
   65SAPC   C24 5312   2.206   6.351   6.614 -0.0088 -0.1816  0.1403
   65SAPC   H4R 5313   2.109   6.365   6.666  0.2797 -2.0815  1.2469
   65SAPC   H4S 5314   2.229   6.443   6.555 -0.2197  0.0131  0.3572
   65SAPC   C25 5315   2.320   6.331   6.708 -0.6214 -0.5149  0.1846
   65SAPC   H5R 5316   2.420   6.344   6.663 -0.2721 -2.6564  0.2244
   65SAPC   C26 5317   2.315   6.322   6.846 -0.7159  1.1317  0.3669
   65SAPC   H6R 5318   2.411   6.324   6.899  0.2560 -1.5690 -1.0900
   65SAPC   C27 5319   2.185   6.318   6.932 -1.0401 -0.5882  0.3140
   65SAPC   H7R 5320   2.091   6.344   6.879 -0.9800  1.1998  1.0207
   65SAPC   H7S 5321   2.202   6.398   7.007 -1.4778 -0.7087  0.5482
   65SAPC   C28 5322   2.170   6.183   7.000  0.7804 -0.2763 -0.1966
   65SAPC   H8R 5323   2.190   6.101   6.929  0.9216 -1.1984  0.8750
   65SAPC   C29 5324   2.133   6.151   7.129  0.1264  0.0257  0.5248
   65SAPC   H9R 5325   2.130   6.049   7.171 -1.3439  0.1391  0.7780
   65SAPC  C210 5326   2.098   6.256   7.224  0.2453  0.3461 -0.1529
   65SAPC  H10R 5327   2.085   6.354   7.172 -0.1304 -0.8293 -2.3840
   65SAPC  H10S 5328   2.179   6.259   7.300 -1.8573 -0.8044  2.2756
   65SAPC  C211 5329   1.977   6.211   7.296  0.3721 -0.0855 -0.0161
   65SAPC  H11R 5330   1.907   6.145   7.243  0.0523 -1.6881  2.2586
   65SAPC  C212 5331   1.942   6.255   7.417 -0.2730 -0.0741  0.2695
   65SAPC  H12R 5332   1.848   6.214   7.458 -0.1057  2.1798  3.2628
   65SAPC  C213 5333   2.012   6.368   7.487 -0.1613  0.2315 -0.4576
   65SAPC  H13R 5334   1.960   6.463   7.463  1.8350  1.2217 -1.0560
   65SAPC  H13S 5335   2.116   6.381   7.450 -0.6989  0.0741 -2.1003
   65SAPC  C214 5336   2.033   6.344   7.636 -0.2147 -0.2082  0.0568
   65SAPC  H14R 5337   2.093   6.256   7.663  2.6939  2.2789  2.5915
   65SAPC  C215 5338   1.991   6.414   7.741  0.1730 -0.6706 -0.6598
   65SAPC  H15R 5339   2.006   6.375   7.842  0.1981 -0.6964 -0.6733
   65SAPC  C216 5340   1.897   6.541   7.734 -0.1870  0.1813  0.5206
   65SAPC  H16R 5341   1.792   6.510   7.714  0.0169  0.7081 -1.6824
   65SAPC  H16S 5342   1.927   6.611   7.653 -0.9955  0.8610  0.7967
   65SAPC  C217 5343   1.896   6.624   7.868 -0.2154  0.3436  0.5877
   65SAPC  H17R 5344   2.002   6.656   7.882  0.3263 -0.2844 -1.6182
   65SAPC  H17S 5345   1.869   6.569   7.961 -1.0494  2.6053  1.7551
   65SAPC  C218 5346   1.792   6.738   7.856  0.2758 -0.0634  0.4791
   65SAPC  H18R 5347   1.694   6.692   7.832  1.1910 -2.3122  0.7693
   65SAPC  H18S 5348   1.833   6.807   7.779  2.9605 -1.9547  0.0655
   65SAPC  C219 5349   1.785   6.821   7.981 -0.2846 -0.3502  0.7526
   65SAPC  H19R 5350   1.874   6.886   7.994 -0.4453 -0.3175  1.7647
   65SAPC  H19S 5351   1.791   6.763   8.075 -0.0430  0.4873  1.2608
   65SAPC  C220 5352   1.667   6.923   7.970  0.1193  0.4843 -0.4361
   65SAPC  H20R 5353   1.680   7.009   7.901 -3.0770  0.6300 -0.9911
   65SAPC  H20S 5354   1.647   6.974   8.067  0.4722  0.0187 -0.1116
   65SAPC  H20T 5355   1.578   6.862   7.944  0.8439 -0.6784 -0.2666
   65SAPC   C33 5356   2.257   5.666   6.489 -0.4247  1.0563 -0.0882
   65SAPC   H3X 5357   2.218   5.770   6.495 -2.2061  0.3972  0.4403
   65SAPC   H3Y 5358   2.362   5.669   6.527 -0.7963  3.5082  0.9463
   65SAPC   C34 5359   2.170   5.583   6.593 -0.6035 -0.2837  0.3013
   65SAPC   H4X 5360   2.238   5.523   6.657 -0.0472  0.3398  0.3107
   65SAPC   H4Y 5361   2.118   5.507   6.531 -2.0086  1.4152 -0.7195
   65SAPC   C35 5362   2.061   5.658   6.665 -0.4365  0.6579 -0.0769
   65SAPC   H5X 5363   1.980   5.586   6.688 -0.9392  2.1734  3.3366
   65SAPC   H5Y 5364   2.021   5.731   6.591 -1.6330  0.8265  0.7147
   65SAPC   C36 5365   2.107   5.739   6.786  0.6088 -0.7044 -0.8838
   65SAPC   H6X 5366   2.016   5.788   6.828  1.6495  0.4439  0.1059
   65SAPC   H6Y 5367   2.166   5.832   6.769 -0.5666  0.6544  1.7842
   65SAPC   C37 5368   2.158   5.655   6.909  0.6745 -0.3571  0.1227
   65SAPC   H7X 5369   2.267   5.647   6.888  0.2722 -2.7526 -1.4607
   65SAPC   H7Y 5370   2.115   5.553   6.907  3.2448 -1.7150  3.4795
   65SAPC   C38 5371   2.126   5.732   7.037  0.5061  0.1459  0.4335
   65SAPC   H8X 5372   2.016   5.746   7.046  0.2159 -0.6812 -1.3744
   65SAPC   H8Y 5373   2.171   5.832   7.016 -0.5929  0.4322 -0.6590
   65SAPC   C39 5374   2.180   5.675   7.169 -0.8062 -0.5261 -0.2005
   65SAPC   H9X 5375   2.291   5.675   7.175 -0.8363  0.8265  1.0127
   65SAPC   H9Y 5376   2.137   5.572   7.165 -0.9775 -0.4978  0.6848
   65SAPC  C310 5377   2.131   5.750   7.293 -0.8227  0.5619  0.5528
   65SAPC  H10X 5378   2.025   5.723   7.308 -0.8557 -1.2534 -2.3202
   65SAPC  H10Y 5379   2.147   5.858   7.269 -0.2893  0.1328 -1.1207
   65SAPC  C311 5380   2.196   5.715   7.424  0.0798  0.7880  0.1515
   65SAPC  H11X 5381   2.304   5.718   7.400  0.1966  0.6878  0.6460
   65SAPC  H11Y 5382   2.164   5.612   7.453  0.0545  1.2237  1.7674
   65SAPC  C312 5383   2.163   5.812   7.534 -0.0768  0.8021  0.6395
   65SAPC  H12X 5384   2.172   5.911   7.485 -0.9512  1.0949  1.0543
   65SAPC  H12Y 5385   2.237   5.819   7.617 -0.1352  1.9231  0.6030
   65SAPC  C313 5386   2.025   5.794   7.593  0.8002 -0.3370  0.8623
   65SAPC  H13X 5387   2.009   5.702   7.653 -0.4504 -1.0880 -0.5471
   65SAPC  H13Y 5388   1.951   5.781   7.511  0.9896 -0.8575  0.7714
   65SAPC  C314 5389   1.992   5.910   7.683 -0.2291  0.3337 -0.3316
   65SAPC  H14X 5390   2.016   6.009   7.640 -0.0907 -0.4968 -2.3037
   65SAPC  H14Y 5391   2.058   5.898   7.771 -0.7067  0.1830  0.0115
   65SAPC  C315 5392   1.852   5.912   7.712  1.9553 -0.5720  0.3412
   65SAPC  H15X 5393   1.816   5.808   7.728  2.3610 -0.7117  0.3589
   65SAPC  H15Y 5394   1.803   5.951   7.620  0.7911  0.9035  1.5180
   65SAPC  C316 5395   1.824   6.011   7.828 -0.0217 -0.5019  0.1460
   65SAPC  H16X 5396   1.904   6.088   7.828 -0.4587  0.1183 -3.1286
   65SAPC  H16Y 5397   1.836   5.954   7.923  0.5227 -0.1849  0.2700
   65SAPC  C317 5398   1.683   6.072   7.826  0.2194 -0.6268  0.2279
   65SAPC  H17X 5399   1.642   6.074   7.929 -2.7783  1.3744 -0.8565
   65SAPC  H17Y 5400   1.624   5.988   7.784  0.3802 -0.5527 -0.1534
   65SAPC  C318 5401   1.666   6.205   7.749 -0.3031  0.1167 -0.3990
   65SAPC  H18X 5402   1.735   6.276   7.800 -1.0813 -0.4118  1.4724
   65SAPC  H18Y 5403   1.564   6.240   7.772 -0.8862 -1.8088  0.1524
   65SAPC  H18Z 5404   1.693   6.202   7.642  3.2117 -1.7708  0.3762
   66SAPC     N 5405   0.777   0.312   5.794 -0.1791 -0.3619 -0.2538
   66SAPC   C12 5406   0.876   0.196   5.811 -0.0829  0.2054  0.2820
   66SAPC  H12A 5407   0.979   0.227   5.804 -0.1755  0.2683 -1.1452
   66SAPC  H12B 5408   0.864   0.134   5.724 -0.0372  1.3567 -0.5733
   66SAPC   C13 5409   0.632   0.264   5.800  0.4266 -0.2336  0.4246
   66SAPC  H13A 5410   0.571   0.354   5.804  0.0331 -0.3984 -1.2823
   66SAPC  H13B 5411   0.610   0.214   5.707  0.3048 -3.3149  1.9686
   66SAPC  H13C 5412   0.622   0.192   5.879  1.3397 -1.0046 -0.1410
   66SAPC   C14 5413   0.785   0.414   5.909 -0.0287 -0.0863 -0.8471
   66SAPC  H14A 5414   0.884   0.457   5.908  0.0744 -0.3216 -0.5517
   66SAPC  H14B 5415   0.717   0.495   5.885 -1.4960 -2.0254 -3.8703
   66SAPC  H14C 5416   0.765   0.370   6.005 -1.7310  1.7434 -0.2973
   66SAPC   C15 5417   0.801   0.394   5.665 -0.2868  0.5018 -0.8828
   66SAPC  H15A 5418   0.814   0.328   5.581 -1.0618 -0.9268  0.0752
   66SAPC  H15B 5419   0.712   0.454   5.651 -1.0446 -0.3316  0.1465
   66SAPC  H15C 5420   0.885   0.461   5.678 -0.5259  0.6344  0.0536
   66SAPC   C11 5421   0.856   0.102   5.936 -0.0684 -0.6198 -0.6693
   66SAPC  H11A 5422   0.862   0.172   6.022  0.1167  0.0125 -1.1866
   66SAPC  H11B 5423   0.945   0.040   5.962  1.1151  0.8484 -1.0512
   66SAPC     P 5424   0.704  -0.119   5.956 -0.4347 -0.0602  0.2700
   66SAPC   O13 5425   0.567  -0.129   6.012 -0.2646 -0.6609  0.2935
   66SAPC   O14 5426   0.727  -0.184   5.822 -0.1535 -0.1611 -0.2744
   66SAPC   O12 5427   0.730   0.035   5.938  0.5331 -0.7975 -0.0644
   66SAPC   O11 5428   0.820  -0.160   6.059  0.1443  0.2393 -0.0235
   66SAPC    C1 5429   0.795  -0.271   6.147 -0.2002  0.5616 -0.2989
   66SAPC    HA 5430   0.707  -0.334   6.122 -0.5935  0.2156  1.7622
   66SAPC    HB 5431   0.883  -0.336   6.162 -1.8690 -2.2508 -1.7167
   66SAPC    C2 5432   0.755  -0.225   6.293 -0.2206 -0.1625 -0.0785
   66SAPC    HS 5433   0.652  -0.185   6.279  0.2394  0.2767 -2.7688
   66SAPC   O21 5434   0.850  -0.130   6.348  0.3430  0.2295 -0.2481
   66SAPC   C21 5435   0.803  -0.004   6.349  0.0354  0.1136  0.2050
   66SAPC   O22 5436   0.690   0.028   6.316 -0.2568  0.1458 -0.1032
   66SAPC   C22 5437   0.919   0.094   6.392  0.9686  0.6414  0.4365
   66SAPC   H2R 5438   1.015   0.044   6.369  0.3025 -1.0693  1.2155
   66SAPC   H2S 5439   0.906   0.185   6.330 -0.9838  2.3892  3.1455
   66SAPC    C3 5440   0.744  -0.340   6.389  0.4144  0.6653 -0.0350
   66SAPC    HX 5441   0.844  -0.379   6.419  0.4908  1.4748  0.8118
   66SAPC    HY 5442   0.698  -0.418   6.324 -0.9922 -1.5508  3.3396
   66SAPC   O31 5443   0.667  -0.313   6.508 -0.0067  0.1401 -0.2315
   66SAPC   C31 5444   0.534  -0.313   6.488  0.1795  0.4707  0.7022
   66SAPC   O32 5445   0.483  -0.317   6.376 -0.1059  0.2776  0.0232
   66SAPC   C32 5446   0.457  -0.285   6.620  1.1078 -0.3948 -0.3155
   66SAPC   H2X 5447   0.350  -0.291   6.590  1.1885 -0.5743 -0.5700
   66SAPC   H2Y 5448   0.466  -0.176   6.640 -1.0222 -0.1110 -0.6552
   66SAPC   C23 5449   0.917   0.131   6.544  0.3721 -0.2887  0.3028
   66SAPC   H3R 5450   0.812   0.145   6.576  0.1752 -2.1000  0.5758
   66SAPC   H3S 5451   0.982   0.220   6.560  3.4975 -2.2954 -0.3017
   66SAPC   C24 5452   0.987   0.033   6.637 -0.1076  0.0718 -0.6718
   66SAPC   H4R 5453   1.024   0.079   6.731  2.1870 -3.1291  0.1280
   66SAPC   H4S 5454   1.072  -0.006   6.577  1.3630  0.5890  1.0139
   66SAPC   C25 5455   0.888  -0.078   6.654 -0.4875  0.3683  0.0903
   66SAPC   H5R 5456   0.900  -0.161   6.584 -0.7318  0.7736 -0.4398
   66SAPC   C26 5457   0.799  -0.090   6.758  0.1950 -0.0482  0.3204
   66SAPC   H6R 5458   0.727  -0.172   6.743  0.9293 -0.5885 -0.2966
   66SAPC   C27 5459   0.771   0.009   6.862  0.3868  0.3336 -0.3128
   66SAPC   H7R 5460   0.684   0.070   6.828  1.8470  1.5617 -2.0351
   66SAPC   H7S 5461   0.852   0.085   6.868 -1.7694  2.7361  0.3600
   66SAPC   C28 5462   0.738  -0.048   7.000 -0.7912 -0.2739  0.3698
   66SAPC   H8R 5463   0.633  -0.079   7.000 -1.1312  0.7901  1.7877
   66SAPC   C29 5464   0.822  -0.040   7.108 -1.4104 -0.9453 -0.7166
   66SAPC   H9R 5465   0.808  -0.089   7.206  0.2943  0.1210  0.0897
   66SAPC  C210 5466   0.959   0.017   7.097 -0.4748 -0.5202  0.6792
   66SAPC  H10R 5467   0.946   0.127   7.096 -0.6728 -0.4437 -3.0458
   66SAPC  H10S 5468   1.002  -0.005   6.997 -0.8766  3.8233 -0.6401
   66SAPC  C211 5469   1.060  -0.016   7.206 -0.2925 -0.1476  0.4114
   66SAPC  H11R 5470   1.036   0.022   7.306  0.1298  1.8187 -0.1886
   66SAPC  C212 5471   1.179  -0.082   7.188 -0.2156 -0.4715  0.0419
   66SAPC  H12R 5472   1.233  -0.115   7.278  2.7797  0.9994 -1.0848
   66SAPC  C213 5473   1.230  -0.140   7.056  0.6548 -0.4651  0.3509
   66SAPC  H13R 5474   1.151  -0.152   6.978 -1.7953 -0.8982  2.7545
   66SAPC  H13S 5475   1.260  -0.246   7.072  0.4639 -0.8135 -1.3203
   66SAPC  C214 5476   1.341  -0.066   7.001 -0.0518  0.1202  0.2573
   66SAPC  H14R 5477   1.409  -0.020   7.075 -1.9657  1.2848  1.3930
   66SAPC  C215 5478   1.362  -0.048   6.873  0.0727  0.1163  0.0396
   66SAPC  H15R 5479   1.461  -0.011   6.844  0.2888  0.4579  1.1556
   66SAPC  C216 5480   1.286  -0.107   6.750 -0.6430  0.2098 -0.0958
   66SAPC  H16R 5481   1.254  -0.026   6.681 -3.1085 -0.6575 -0.0743
   66SAPC  H16S 5482   1.188  -0.142   6.791  0.3782 -0.0589  2.3002
   66SAPC  C217 5483   1.350  -0.221   6.675 -0.3492 -0.0459  0.3598
   66SAPC  H17R 5484   1.458  -0.207   6.656  0.1147 -2.7985  0.4949
   66SAPC  H17S 5485   1.302  -0.242   6.577 -0.9528  1.3547  0.3260
   66SAPC  C218 5486   1.353  -0.346   6.761  0.0078 -0.6483  0.8799
   66SAPC  H18R 5487   1.249  -0.374   6.786 -0.1763 -0.0766  0.7717
   66SAPC  H18S 5488   1.404  -0.317   6.855 -0.7952  0.3462  1.0214
   66SAPC  C219 5489   1.437  -0.448   6.688 -0.5744  0.3537  0.1155
   66SAPC  H19R 5490   1.538  -0.405   6.669 -0.7626  1.7172  1.9222
   66SAPC  H19S 5491   1.382  -0.461   6.592  0.6590 -0.8579 -0.4627
   66SAPC  C220 5492   1.445  -0.585   6.758 -0.1541  0.7885  0.0350
   66SAPC  H20R 5493   1.511  -0.655   6.701 -0.6780 -1.5633  2.1171
   66SAPC  H20S 5494   1.349  -0.640   6.748  1.1139 -1.4185 -0.7602
   66SAPC  H20T 5495   1.468  -0.574   6.866 -0.8165 -0.9872  0.3954
   66SAPC   C33 5496   0.493  -0.374   6.750  0.0360  0.2205  0.1736
   66SAPC   H3X 5497   0.596  -0.345   6.780 -0.1734  0.2033  0.9319
   66SAPC   H3Y 5498   0.499  -0.483   6.730 -0.3942 -0.0425  1.3669
   66SAPC   C34 5499   0.396  -0.352   6.868 -0.8131 -0.4058 -0.0078
   66SAPC   H4X 5500   0.312  -0.423   6.852 -1.7988  0.2822  1.8521
   66SAPC   H4Y 5501   0.347  -0.253   6.864 -1.7923 -0.7769  1.8052
   66SAPC   C35 5502   0.451  -0.379   7.003  0.0249  0.0334 -0.1997
   66SAPC   H5X 5503   0.521  -0.300   7.038 -2.4904  1.5837  1.6824
   66SAPC   H5Y 5504   0.508  -0.474   6.997  1.4120  0.9098 -1.6145
   66SAPC   C36 5505   0.338  -0.387   7.108 -0.0175 -0.3928 -0.1081
   66SAPC   H6X 5506   0.258  -0.452   7.067 -0.6553 -0.5805  1.3466
   66SAPC   H6Y 5507   0.294  -0.285   7.119  1.8833  0.2524  2.6312
   66SAPC   C37 5508   0.381  -0.438   7.244  0.2550 -0.4168  0.1181
   66SAPC   H7X 5509   0.463  -0.371   7.279  1.0739 -0.8222 -0.9502
   66SAPC   H7Y 5510   0.434  -0.535   7.234 -0.1407 -0.5764 -0.5361
   66SAPC   C38 5511   0.266  -0.435   7.346 -0.5030 -0.5256  0.0458
   66SAPC   H8X 5512   0.184  -0.495   7.301 -0.0242  0.4854 -2.2737
   66SAPC   H8Y 5513   0.217  -0.336   7.345 -1.4235 -0.9313  1.3035
   66SAPC   C39 5514   0.317  -0.463   7.487 -0.4747  0.4569  0.3296
   66SAPC   H9X 5515   0.401  -0.399   7.523  0.3503 -0.5188  0.1982
   66SAPC   H9Y 5516   0.366  -0.563   7.489  0.9785  1.1295  0.0512
   66SAPC  C310 5517   0.207  -0.460   7.598  0.8784  0.7761  0.6287
   66SAPC  H10X 5518   0.114  -0.509   7.562  2.1796 -1.2472 -0.0828
   66SAPC  H10Y 5519   0.187  -0.352   7.615  0.9905  0.9434 -0.2717
   66SAPC  C311 5520   0.247  -0.526   7.734  0.0300  0.7485  0.0172
   66SAPC  H11X 5521   0.250  -0.634   7.710 -0.0702  0.7271  0.0967
   66SAPC  H11Y 5522   0.175  -0.502   7.815  2.6528  1.6342  2.2279
   66SAPC  C312 5523   0.389  -0.495   7.795  0.0238 -0.1933  0.7378
   66SAPC  H12X 5524   0.451  -0.498   7.704  0.1205 -1.6365  0.8307
   66SAPC  H12Y 5525   0.436  -0.571   7.861  0.8681  0.6383  1.1156
   66SAPC  C313 5526   0.406  -0.352   7.851 -0.0217  0.3872  0.9352
   66SAPC  H13X 5527   0.359  -0.272   7.791 -1.0933 -0.0702  1.1429
   66SAPC  H13Y 5528   0.514  -0.328   7.849  0.1763  0.1412  4.0685
   66SAPC  C314 5529   0.367  -0.351   7.998 -0.3899 -0.2438 -0.0971
   66SAPC  H14X 5530   0.411  -0.441   8.046  3.0022  0.8320 -0.8788
   66SAPC  H14Y 5531   0.258  -0.364   8.011 -0.6722  0.6891 -1.4160
   66SAPC  C315 5532   0.413  -0.226   8.075  0.2221  0.1626 -0.1225
   66SAPC  H15X 5533   0.346  -0.140   8.052  0.1863  0.4936  1.1697
   66SAPC  H15Y 5534   0.513  -0.185   8.046  0.3576  0.2767  0.4948
   66SAPC  C316 5535   0.420  -0.234   8.233 -0.2283  0.3077 -0.7395
   66SAPC  H16X 5536   0.507  -0.297   8.260 -1.2663 -1.9304 -2.2532
   66SAPC  H16Y 5537   0.331  -0.291   8.269  1.9121 -2.1772  1.0729
   66SAPC  C317 5538   0.431  -0.098   8.312  0.1958  0.2812 -0.0038
   66SAPC  H17X 5539   0.335  -0.042   8.302  1.3258  2.3185  0.0256
   66SAPC  H17Y 5540   0.525  -0.045   8.285  0.2521 -0.0862 -0.5391
   66SAPC  C318 5541   0.430  -0.128   8.464  0.1058  0.3489  0.3392
   66SAPC  H18X 5542   0.386  -0.225   8.493  1.3513 -1.6066 -3.6290
   66SAPC  H18Y 5543   0.388  -0.042   8.520 -2.7907  0.7718 -2.2220
   66SAPC  H18Z 5544   0.537  -0.135   8.493  0.0732  0.3120  0.4517
   67SAPC     N 5545   0.989   1.469   6.070  0.3585  0.3119  0.8692
   67SAPC   C12 5546   0.847   1.442   6.108 -0.2815  0.5292 -0.0622
   67SAPC  H12A 5547   0.831   1.336   6.124 -2.2409  0.7881 -0.0788
   67SAPC  H12B 5548   0.795   1.477   6.020 -0.6746  0.6205  0.2056
   67SAPC   C13 5549   1.036   1.388   5.947  0.2427 -0.5569 -0.0942
   67SAPC  H13A 5550   1.058   1.283   5.961  1.2026 -0.2584  0.7228
   67SAPC  H13B 5551   0.950   1.397   5.881  0.4871  0.6641 -0.2622
   67SAPC  H13C 5552   1.128   1.424   5.903  0.8485 -2.9249 -0.8994
   67SAPC   C14 5553   1.010   1.614   6.045 -0.4297 -0.7770 -0.0623
   67SAPC  H14A 5554   0.980   1.653   5.949  0.4630  1.1804  0.3898
   67SAPC  H14B 5555   0.952   1.673   6.115  0.0262 -1.7440  1.1523
   67SAPC  H14C 5556   1.112   1.646   6.062 -1.1195  0.2449  2.5920
   67SAPC   C15 5557   1.092   1.429   6.172  0.8608  0.3566  0.1031
   67SAPC  H15A 5558   1.120   1.326   6.152 -1.4659  0.0983 -2.3399
   67SAPC  H15B 5559   1.181   1.484   6.146  1.5804 -0.9215 -0.2095
   67SAPC  H15C 5560   1.060   1.449   6.274 -1.1320  2.4369 -0.8473
   67SAPC   C11 5561   0.801   1.508   6.234  0.1152  0.2614 -0.0089
   67SAPC  H11A 5562   0.690   1.520   6.234  0.0630 -0.1332 -0.9707
   67SAPC  H11B 5563   0.831   1.615   6.227  0.2645  0.2291  0.1443
   67SAPC     P 5564   0.805   1.328   6.430  0.3883  0.1757  0.4763
   67SAPC   O13 5565   0.664   1.342   6.480  0.3685  0.8603  0.0251
   67SAPC   O14 5566   0.824   1.212   6.336 -0.6376  0.1226  0.3859
   67SAPC   O12 5567   0.848   1.452   6.351 -0.1303  0.3106 -1.1291
   67SAPC   O11 5568   0.901   1.321   6.563  0.1248  0.0865  0.1547
   67SAPC    C1 5569   1.035   1.298   6.527 -0.3718  0.4991  0.6526
   67SAPC    HA 5570   1.069   1.339   6.429 -0.4368  0.3185  0.5529
   67SAPC    HB 5571   1.097   1.354   6.599  0.7430  1.4272 -0.9682
   67SAPC    C2 5572   1.061   1.147   6.535  0.7164  1.0271 -0.4632
   67SAPC    HS 5573   1.019   1.098   6.445  0.2430 -1.5380  1.0610
   67SAPC   O21 5574   0.995   1.084   6.650  0.0580  0.1459 -0.5140
   67SAPC   C21 5575   0.941   0.955   6.627  0.2831 -0.4831 -0.4122
   67SAPC   O22 5576   0.945   0.896   6.517 -0.0104  0.1508  0.1536
   67SAPC   C22 5577   0.867   0.909   6.757  0.4782  0.0186  0.5335
   67SAPC   H2R 5578   0.913   0.960   6.844  1.6587 -1.5525  0.8674
   67SAPC   H2S 5579   0.766   0.956   6.746  0.5965 -0.1673 -1.8523
   67SAPC    C3 5580   1.214   1.115   6.535 -0.3025 -0.1503  0.0480
   67SAPC    HX 5581   1.251   1.173   6.448 -2.7757  2.2718  0.4660
   67SAPC    HY 5582   1.226   1.007   6.513  0.1234 -0.4675  1.7115
   67SAPC   O31 5583   1.273   1.154   6.663 -0.2257  0.1209  0.5956
   67SAPC   C31 5584   1.400   1.140   6.662 -1.0675  0.4698 -0.3142
   67SAPC   O32 5585   1.466   1.093   6.569 -0.2282 -0.0614 -0.3021
   67SAPC   C32 5586   1.456   1.205   6.793 -1.0243 -0.9034  0.6801
   67SAPC   H2X 5587   1.447   1.131   6.875 -0.5669 -0.9005  0.7342
   67SAPC   H2Y 5588   1.390   1.289   6.825  2.3075  1.7939  1.0052
   67SAPC   C23 5589   0.867   0.758   6.780  0.9615 -0.0197  0.2317
   67SAPC   H3R 5590   0.840   0.707   6.685 -1.8792 -0.3663  1.1273
   67SAPC   H3S 5591   0.785   0.728   6.848  1.1199 -1.8486 -0.3347
   67SAPC   C24 5592   0.996   0.730   6.857 -0.4488  0.0144  0.2166
   67SAPC   H4R 5593   0.976   0.640   6.919  2.0067 -0.8136 -0.1098
   67SAPC   H4S 5594   1.012   0.809   6.933 -0.6760  1.0916 -0.8301
   67SAPC   C25 5595   1.118   0.731   6.763 -0.0422  0.3366 -0.0833
   67SAPC   H5R 5596   1.102   0.671   6.672  1.4505 -2.5918  1.4409
   67SAPC   C26 5597   1.236   0.789   6.774  0.9666 -0.0637  0.3117
   67SAPC   H6R 5598   1.310   0.774   6.694 -1.7700 -2.1075 -2.0267
   67SAPC   C27 5599   1.288   0.854   6.896  0.0030  0.4281  0.3929
   67SAPC   H7R 5600   1.398   0.863   6.882  0.1604  0.2439  1.3800
   67SAPC   H7S 5601   1.273   0.777   6.974 -0.4018  1.3053  1.2069
   67SAPC   C28 5602   1.230   0.985   6.936  0.3265 -0.3671  0.6981
   67SAPC   H8R 5603   1.166   1.045   6.870 -0.1251 -0.2959  1.1929
   67SAPC   C29 5604   1.233   1.030   7.060 -0.1203  0.9134 -0.2600
   67SAPC   H9R 5605   1.197   1.128   7.098 -0.4033  1.2532 -1.3701
   67SAPC  C210 5606   1.315   0.960   7.169  0.4445 -0.8484  0.5993
   67SAPC  H10R 5607   1.376   1.026   7.234 -1.2099 -0.3395  1.6668
   67SAPC  H10S 5608   1.398   0.898   7.127  0.4609 -1.8827  2.0857
   67SAPC  C211 5609   1.233   0.867   7.253  0.3050  0.2546  0.1018
   67SAPC  H11R 5610   1.196   0.776   7.203  2.4088  0.2674 -1.6447
   67SAPC  C212 5611   1.208   0.871   7.382 -0.4856 -0.0809  0.4584
   67SAPC  H12R 5612   1.139   0.800   7.430 -0.6090 -0.2915 -0.0257
   67SAPC  C213 5613   1.271   0.971   7.472  0.0437  0.1789 -0.1805
   67SAPC  H13R 5614   1.249   1.076   7.444  2.5589  0.5939 -0.9307
   67SAPC  H13S 5615   1.381   0.966   7.456  0.3057 -0.6394  1.6048
   67SAPC  C214 5616   1.267   0.954   7.618  0.2684 -0.0433  0.2708
   67SAPC  H14R 5617   1.228   0.862   7.664  0.5448  0.8910  2.5174
   67SAPC  C215 5618   1.303   1.050   7.709  0.0585  0.1366  0.4093
   67SAPC  H15R 5619   1.298   1.042   7.819 -2.5991  1.7438  0.4905
   67SAPC  C216 5620   1.366   1.183   7.674 -0.4624 -0.3705 -0.0439
   67SAPC  H16R 5621   1.300   1.266   7.706 -1.5093 -1.4651  0.6910
   67SAPC  H16S 5622   1.386   1.196   7.565  1.5248 -3.6555 -0.2062
   67SAPC  C217 5623   1.490   1.211   7.755 -1.0336 -0.1379  0.4811
   67SAPC  H17R 5624   1.545   1.303   7.728 -1.5948  0.1208  0.2006
   67SAPC  H17S 5625   1.571   1.138   7.737  0.2242  1.3599 -0.0527
   67SAPC  C218 5626   1.478   1.208   7.911  0.1411  0.4382 -0.0988
   67SAPC  H18R 5627   1.484   1.101   7.939  0.5592 -0.1067 -2.1268
   67SAPC  H18S 5628   1.377   1.241   7.944  0.4796 -0.3891  1.9054
   67SAPC  C219 5629   1.582   1.280   7.987 -0.9776 -0.1715 -0.4653
   67SAPC  H19R 5630   1.563   1.267   8.095  0.0857  0.6845 -0.1565
   67SAPC  H19S 5631   1.577   1.387   7.959 -0.2743  0.0609  0.2703
   67SAPC  C220 5632   1.731   1.242   7.956  0.0517  0.4900  0.6152
   67SAPC  H20R 5633   1.740   1.133   7.942  1.3170  0.5446  0.9064
   67SAPC  H20S 5634   1.805   1.273   8.034  0.0682 -0.9354  1.1891
   67SAPC  H20T 5635   1.766   1.296   7.866 -0.1657 -0.2513  0.0810
   67SAPC   C33 5636   1.609   1.247   6.781  0.0574 -0.4651 -0.1391
   67SAPC   H3X 5637   1.627   1.329   6.708  0.2104 -0.0249  0.3918
   67SAPC   H3Y 5638   1.668   1.162   6.740 -0.3405 -0.2825 -1.1163
   67SAPC   C34 5639   1.678   1.287   6.914 -0.9262 -0.2149  0.3296
   67SAPC   H4X 5640   1.703   1.192   6.966  0.7286 -0.5584 -0.9925
   67SAPC   H4Y 5641   1.610   1.350   6.975 -0.7839  0.1063  0.1604
   67SAPC   C35 5642   1.804   1.365   6.884  0.1648 -0.1862 -0.7376
   67SAPC   H5X 5643   1.778   1.469   6.852 -0.3260  0.4339  1.5367
   67SAPC   H5Y 5644   1.858   1.302   6.811 -1.5636 -2.4497 -0.1604
   67SAPC   C36 5645   1.907   1.367   6.998 -0.5401 -0.1552 -0.1677
   67SAPC   H6X 5646   1.932   1.266   7.037  0.9409 -0.2807 -1.3629
   67SAPC   H6Y 5647   1.869   1.430   7.081  1.7014  0.6128  0.3494
   67SAPC   C37 5648   2.031   1.445   6.955 -0.0171  0.5671  0.6018
   67SAPC   H7X 5649   1.999   1.545   6.920 -0.2733 -0.6721 -3.1786
   67SAPC   H7Y 5650   2.079   1.397   6.867 -1.1097  0.3804  0.0932
   67SAPC   C38 5651   2.139   1.451   7.067 -0.1517 -0.5624 -0.1616
   67SAPC   H8X 5652   2.168   1.354   7.112  0.2794 -0.6911 -0.6918
   67SAPC   H8Y 5653   2.106   1.522   7.145  0.5540  0.0621 -0.4134
   67SAPC   C39 5654   2.279   1.501   7.016 -0.2535  0.2116 -0.7241
   67SAPC   H9X 5655   2.261   1.583   6.944  0.9920  1.0033 -0.1619
   67SAPC   H9Y 5656   2.341   1.418   6.975 -1.0437  0.5392 -2.6493
   67SAPC  C310 5657   2.359   1.571   7.132  0.0312  0.2233  0.3244
   67SAPC  H10X 5658   2.316   1.657   7.187  2.6078  2.0566 -0.3505
   67SAPC  H10Y 5659   2.449   1.615   7.084 -2.2931  1.7753 -2.9741
   67SAPC  C311 5660   2.398   1.471   7.239 -1.0251 -0.4742 -0.3404
   67SAPC  H11X 5661   2.435   1.372   7.206 -3.7401 -1.6474 -0.1312
   67SAPC  H11Y 5662   2.316   1.443   7.308 -1.2768  0.3088 -0.3158
   67SAPC  C312 5663   2.506   1.529   7.341 -0.0671 -0.2294  0.1879
   67SAPC  H12X 5664   2.472   1.632   7.365 -2.6565 -1.3332  1.7100
   67SAPC  H12Y 5665   2.596   1.536   7.276  0.1134 -0.5251  0.4019
   67SAPC  C313 5666   2.531   1.436   7.459 -0.2718  0.4437  0.2833
   67SAPC  H13X 5667   2.534   1.331   7.422 -0.8037  0.1245  1.1025
   67SAPC  H13Y 5668   2.443   1.430   7.527  0.6395 -0.2018  1.4590
   67SAPC  C314 5669   2.653   1.466   7.546 -0.2422  0.1549  0.9243
   67SAPC  H14X 5670   2.678   1.574   7.553  2.2993 -0.3834  1.0799
   67SAPC  H14Y 5671   2.748   1.431   7.499  0.7185  2.1663  1.2756
   67SAPC  C315 5672   2.641   1.406   7.684 -0.2407 -0.2608  0.6539
   67SAPC  H15X 5673   2.623   1.298   7.669  1.0693 -0.2024 -1.6738
   67SAPC  H15Y 5674   2.561   1.453   7.746  0.9498 -0.6973  2.6217
   67SAPC  C316 5675   2.784   1.404   7.758 -0.1738 -0.4607  0.1322
   67SAPC  H16X 5676   2.817   1.510   7.766 -0.7427 -0.1172 -1.6437
   67SAPC  H16Y 5677   2.859   1.356   7.692  0.3256 -1.3638  1.3078
   67SAPC  C317 5678   2.776   1.341   7.898 -0.1806  0.2853 -0.1104
   67SAPC  H17X 5679   2.764   1.231   7.888  2.5136  0.1257 -3.0802
   67SAPC  H17Y 5680   2.685   1.383   7.945  0.0841 -0.1124  0.7824
   67SAPC  C318 5681   2.885   1.391   7.998  0.7395 -0.0845 -0.3790
   67SAPC  H18X 5682   2.892   1.502   8.000  2.6250 -0.0744 -3.0057
   67SAPC  H18Y 5683   2.985   1.366   7.957  1.3158  0.0378  0.8994
   67SAPC  H18Z 5684   2.855   1.353   8.099 -3.7608  1.2746 -0.9734
   68SAPC     N 5685   6.439   1.747   5.994 -0.2959 -0.5422  0.5296
   68SAPC   C12 5686   6.507   1.707   6.121  0.0506  0.3459  0.0956
   68SAPC  H12A 5687   6.602   1.667   6.089  0.7614  1.3378  0.9180
   68SAPC  H12B 5688   6.452   1.626   6.168  0.4416  0.4058  0.6669
   68SAPC   C13 5689   6.544   1.814   5.915  0.2463  0.4420  0.3021
   68SAPC  H13A 5690   6.640   1.764   5.919 -0.1517 -0.7990 -2.5769
   68SAPC  H13B 5691   6.524   1.804   5.809  1.3446  0.3753  0.0810
   68SAPC  H13C 5692   6.557   1.914   5.953 -3.0681  0.5043  1.5435
   68SAPC   C14 5693   6.422   1.622   5.916  0.3707  0.2847 -0.5221
   68SAPC  H14A 5694   6.358   1.550   5.966 -0.7712  1.2041 -0.6117
   68SAPC  H14B 5695   6.376   1.634   5.819 -3.1311  0.9703  1.0780
   68SAPC  H14C 5696   6.519   1.580   5.896 -0.6802 -1.3133 -2.7227
   68SAPC   C15 5697   6.314   1.823   6.013 -0.1906  0.3807 -0.8236
   68SAPC  H15A 5698   6.338   1.910   6.072  3.3124 -0.8513 -0.1718
   68SAPC  H15B 5699   6.264   1.842   5.919  0.8707 -0.2562 -1.5450
   68SAPC  H15C 5700   6.251   1.760   6.074  1.0030 -0.6866 -0.6497
   68SAPC   C11 5701   6.511   1.820   6.223  0.2832 -0.1250 -0.1216
   68SAPC  H11A 5702   6.553   1.915   6.182  0.1017 -0.0331 -0.0991
   68SAPC  H11B 5703   6.582   1.789   6.302  1.0577 -0.5718 -0.9750
   68SAPC     P 5704   6.292   1.745   6.349  0.3304 -0.0084  0.0475
   68SAPC   O13 5705   6.177   1.805   6.418 -0.0576 -0.0735 -0.0273
   68SAPC   O14 5706   6.257   1.636   6.252 -0.9636 -0.8239 -1.3342
   68SAPC   O12 5707   6.381   1.855   6.277 -0.0858  0.8410 -0.9791
   68SAPC   O11 5708   6.394   1.689   6.460  0.1377  0.1166 -0.3528
   68SAPC    C1 5709   6.443   1.775   6.564 -0.5318 -0.2955  0.1949
   68SAPC    HA 5710   6.497   1.863   6.524  0.3098 -0.8603  0.0670
   68SAPC    HB 5711   6.350   1.806   6.616 -0.6620 -1.3092  0.5783
   68SAPC    C2 5712   6.538   1.709   6.666 -0.3093 -0.3307 -0.3854
   68SAPC    HS 5713   6.493   1.614   6.702  0.3433 -0.9012 -1.0611
   68SAPC   O21 5714   6.551   1.803   6.774  0.8312 -0.2138  0.1668
   68SAPC   C21 5715   6.563   1.754   6.892 -0.1535  0.0591 -0.4689
   68SAPC   O22 5716   6.539   1.640   6.920  0.1559  0.1731  0.0709
   68SAPC   C22 5717   6.616   1.861   6.986  0.1523  0.3037  0.5809
   68SAPC   H2R 5718   6.670   1.936   6.924  1.3081 -0.1892  0.9587
   68SAPC   H2S 5719   6.520   1.898   7.027 -2.4817 -2.8570 -2.1372
   68SAPC    C3 5720   6.684   1.673   6.615 -0.8171  0.4371 -0.1120
   68SAPC    HX 5721   6.745   1.758   6.576  0.3886  0.3834  1.5543
   68SAPC    HY 5722   6.680   1.613   6.521  0.2330 -1.7545  1.1563
   68SAPC   O31 5723   6.760   1.613   6.719  0.1268  0.8041  0.4045
   68SAPC   C31 5724   6.745   1.481   6.730 -0.2632  0.8263  0.1218
   68SAPC   O32 5725   6.667   1.414   6.664 -0.4416 -0.1805  0.0097
   68SAPC   C32 5726   6.841   1.424   6.839 -0.0868  0.0583  0.3925
   68SAPC   H2X 5727   6.894   1.509   6.887 -1.6502  1.1208  0.3287
   68SAPC   H2Y 5728   6.911   1.370   6.772 -0.3181  0.7310 -0.4140
   68SAPC   C23 5729   6.704   1.799   7.091  1.1192  0.6040  0.3900
   68SAPC   H3R 5730   6.801   1.765   7.049 -0.4717  0.5252 -3.6800
   68SAPC   H3S 5731   6.664   1.706   7.136 -0.1586  0.9201 -0.0581
   68SAPC   C24 5732   6.723   1.900   7.203 -0.1573  0.3919  0.0830
   68SAPC   H4R 5733   6.632   1.906   7.267  2.1044 -1.2073  3.7801
   68SAPC   H4S 5734   6.734   1.992   7.142 -0.0585 -1.6078 -3.1270
   68SAPC   C25 5735   6.843   1.877   7.291 -0.1345 -0.1436  0.2866
   68SAPC   H5R 5736   6.933   1.852   7.234  2.3501  2.0532  2.8866
   68SAPC   C26 5737   6.856   1.890   7.418  0.7257  0.3046  0.0444
   68SAPC   H6R 5738   6.947   1.858   7.471  0.3907 -0.4887  0.1472
   68SAPC   C27 5739   6.754   1.936   7.525 -0.4122 -0.4767 -0.0775
   68SAPC   H7R 5740   6.680   2.007   7.482 -0.4441  0.7297  1.8722
   68SAPC   H7S 5741   6.808   1.981   7.610 -0.1170 -1.4745  0.2788
   68SAPC   C28 5742   6.680   1.817   7.574 -0.4003  0.1861  0.5629
   68SAPC   H8R 5743   6.650   1.751   7.491 -0.0831  0.0815  0.5328
   68SAPC   C29 5744   6.663   1.783   7.699 -1.0509  0.6034  0.1315
   68SAPC   H9R 5745   6.595   1.698   7.707 -0.6870  0.1331 -1.4164
   68SAPC  C210 5746   6.707   1.841   7.833  0.7917  0.7371 -0.1787
   68SAPC  H10R 5747   6.613   1.859   7.889  1.8056  0.4541  1.6889
   68SAPC  H10S 5748   6.757   1.940   7.822  1.6696  0.4091  0.7108
   68SAPC  C211 5749   6.809   1.751   7.908 -0.6632 -0.1766  0.4154
   68SAPC  H11R 5750   6.908   1.741   7.860 -0.1433  1.7511  0.9793
   68SAPC  C212 5751   6.778   1.684   8.020 -0.0788 -0.6018 -0.4213
   68SAPC  H12R 5752   6.856   1.615   8.055 -0.2719 -2.4112 -3.2394
   68SAPC  C213 5753   6.647   1.695   8.086 -0.5115  0.0721  0.3071
   68SAPC  H13R 5754   6.565   1.682   8.013  0.5607 -0.8703 -0.7738
   68SAPC  H13S 5755   6.638   1.800   8.122 -3.3363 -0.1877  0.6153
   68SAPC  C214 5756   6.616   1.613   8.199 -0.3920 -0.4663  0.7606
   68SAPC  H14R 5757   6.555   1.526   8.170  0.2535 -0.6271 -0.1818
   68SAPC  C215 5758   6.684   1.618   8.316  0.2796  0.3256 -0.5957
   68SAPC  H15R 5759   6.651   1.554   8.399 -0.7226  1.5991  0.0309
   68SAPC  C216 5760   6.797   1.709   8.354  0.2407 -0.2392 -0.2003
   68SAPC  H16R 5761   6.779   1.755   8.453 -1.2966 -0.2031 -0.4750
   68SAPC  H16S 5762   6.810   1.800   8.292 -0.1386  0.1352  0.2582
   68SAPC  C217 5763   6.937   1.638   8.359 -0.0369 -0.7953 -0.3480
   68SAPC  H17R 5764   6.953   1.563   8.278 -0.7440 -2.3978  0.9282
   68SAPC  H17S 5765   6.946   1.581   8.454  1.1597  2.2976  1.5526
   68SAPC  C218 5766   7.050   1.740   8.350 -0.0046 -0.0410  0.3618
   68SAPC  H18R 5767   7.053   1.801   8.442  1.1893 -1.6128  1.4293
   68SAPC  H18S 5768   7.012   1.800   8.264 -1.4823 -0.5591  0.6173
   68SAPC  C219 5769   7.186   1.674   8.334  0.5424 -0.4446 -0.0179
   68SAPC  H19R 5770   7.190   1.593   8.258  1.4822 -0.7909  0.3816
   68SAPC  H19S 5771   7.222   1.624   8.427  0.6868 -2.6750 -1.2090
   68SAPC  C220 5772   7.304   1.774   8.296  0.8468 -0.2540  0.2281
   68SAPC  H20R 5773   7.400   1.720   8.284  1.2708  0.7346 -1.0777
   68SAPC  H20S 5774   7.302   1.861   8.365  0.4457  0.7556 -1.0060
   68SAPC  H20T 5775   7.292   1.806   8.190  2.9532 -1.5238 -0.4666
   68SAPC   C33 5776   6.771   1.315   6.923  0.4498 -0.4092 -0.1069
   68SAPC   H3X 5777   6.729   1.233   6.860 -1.9055  1.5994 -1.3097
   68SAPC   H3Y 5778   6.678   1.355   6.968 -0.6389 -2.9116  0.0668
   68SAPC   C34 5779   6.857   1.241   7.024 -0.0820 -0.1159  0.3116
   68SAPC   H4X 5780   6.905   1.314   7.093  0.8933 -0.3552 -0.0976
   68SAPC   H4Y 5781   6.946   1.188   6.985  0.4105  0.1401  1.0693
   68SAPC   C35 5782   6.776   1.156   7.121  0.4652  0.4956 -0.4028
   68SAPC   H5X 5783   6.728   1.082   7.053  1.3086  0.1979 -0.6877
   68SAPC   H5Y 5784   6.695   1.220   7.163  1.9887  0.8872  2.1703
   68SAPC   C36 5785   6.868   1.097   7.230 -0.0041  0.1987 -0.4297
   68SAPC   H6X 5786   6.920   1.185   7.274 -2.3119  1.0933  0.6608
   68SAPC   H6Y 5787   6.947   1.031   7.188  0.8638  1.3005 -0.5763
   68SAPC   C37 5788   6.799   1.029   7.353  0.0827 -0.0280  0.2970
   68SAPC   H7X 5789   6.772   0.930   7.311 -1.8764  0.1841  0.9710
   68SAPC   H7Y 5790   6.712   1.091   7.386  1.0273  1.8256 -0.5569
   68SAPC   C38 5791   6.895   1.002   7.457 -0.5623  0.4952  0.3727
   68SAPC   H8X 5792   6.935   1.098   7.498  1.8141 -1.1425  2.1947
   68SAPC   H8Y 5793   6.979   0.942   7.416 -0.1365  0.6439  1.0037
   68SAPC   C39 5794   6.825   0.929   7.574 -0.4924 -0.7956 -1.0487
   68SAPC   H9X 5795   6.795   0.832   7.530 -0.9514  0.1962 -3.0613
   68SAPC   H9Y 5796   6.737   0.993   7.598 -0.4035 -1.4416  1.2336
   68SAPC  C310 5797   6.915   0.917   7.695  0.2212  0.3387 -0.4079
   68SAPC  H10X 5798   6.947   1.020   7.723  0.6906  0.0769  0.0225
   68SAPC  H10Y 5799   7.006   0.870   7.654  1.4749  2.5567 -0.3403
   68SAPC  C311 5800   6.848   0.845   7.807 -0.3061  1.1906  0.0864
   68SAPC  H11X 5801   6.833   0.739   7.778 -0.1322  0.7486  1.4921
   68SAPC  H11Y 5802   6.752   0.888   7.843 -0.6799  0.0376  0.5161
   68SAPC  C312 5803   6.929   0.857   7.941  0.7427 -0.2763  0.3318
   68SAPC  H12X 5804   6.883   0.811   8.030 -0.9964  0.0765 -0.3470
   68SAPC  H12Y 5805   6.921   0.963   7.973  3.1843 -0.2566  1.1532
   68SAPC  C313 5806   7.084   0.843   7.924  0.0214  0.3906 -0.7067
   68SAPC  H13X 5807   7.120   0.936   7.874 -0.9471  3.3166  3.4467
   68SAPC  H13Y 5808   7.098   0.750   7.865 -1.7506 -2.6526  3.1985
   68SAPC  C314 5809   7.163   0.836   8.055  0.8093  0.6900  0.3931
   68SAPC  H14X 5810   7.118   0.746   8.101 -0.8881 -0.3212 -2.9002
   68SAPC  H14Y 5811   7.141   0.927   8.114  2.0525  1.9987 -1.0643
   68SAPC  C315 5812   7.315   0.819   8.037 -0.4910  0.6975 -0.5198
   68SAPC  H15X 5813   7.359   0.903   7.979  0.3281 -0.1768 -1.2119
   68SAPC  H15Y 5814   7.318   0.722   7.983 -0.4593 -0.0358  0.7509
   68SAPC  C316 5815   7.397   0.801   8.167  0.9113  0.0832  0.4765
   68SAPC  H16X 5816   7.491   0.748   8.141  1.1940 -0.1268  1.8343
   68SAPC  H16Y 5817   7.328   0.737   8.227  0.5907  0.1697  0.2018
   68SAPC  C317 5818   7.441   0.931   8.236  0.3009 -0.0363  0.2129
   68SAPC  H17X 5819   7.361   0.973   8.300 -2.7813 -2.7505 -1.5537
   68SAPC  H17Y 5820   7.451   1.010   8.159  0.0393 -0.0361  0.1778
   68SAPC  C318 5821   7.563   0.928   8.325 -0.3131 -1.1517 -0.1770
   68SAPC  H18X 5822   7.581   1.032   8.362 -1.5189 -1.0379  0.1460
   68SAPC  H18Y 5823   7.654   0.889   8.276  1.1544  2.1713 -0.3711
   68SAPC  H18Z 5824   7.542   0.859   8.409  0.6583 -0.5650  0.5730
   69SLPC     N 5825   0.037   6.401  10.884  0.7160  0.4483 -0.3796
   69SLPC   C13 5826   0.088   6.275  10.937  0.2863 -0.5896 -0.1976
   69SLPC  H13A 5827   0.109   6.210  10.853  0.4249 -1.3213  0.3904
   69SLPC  H13B 5828   0.177   6.287  10.997  0.7055 -1.2065 -0.6747
   69SLPC  H13C 5829   0.018   6.225  11.003  0.4719  0.3441  0.7256
   69SLPC   C14 5830   0.133   6.481  10.804  0.0961 -0.3885 -0.0539
   69SLPC  H14A 5831   0.079   6.563  10.759 -0.8251 -0.7195  0.4136
   69SLPC  H14B 5832   0.215   6.523  10.861 -0.7502  1.3468 -0.0523
   69SLPC  H14C 5833   0.174   6.422  10.724  0.2151  0.1073 -0.3573
   69SLPC   C15 5834   0.007   6.491  11.003  0.0706 -0.0816 -0.7752
   69SLPC  H15A 5835  -0.077   6.451  11.057 -0.0621  0.9047 -0.2299
   69SLPC  H15B 5836   0.090   6.490  11.072 -0.0536 -2.2396 -0.5965
   69SLPC  H15C 5837  -0.016   6.590  10.967  0.1745 -0.3161 -1.5095
   69SLPC   C12 5838  -0.093   6.381  10.802  0.0807  0.5541  0.0395
   69SLPC  H12A 5839  -0.122   6.479  10.767  1.8070  1.0544 -0.0903
   69SLPC  H12B 5840  -0.175   6.330  10.851 -0.1790 -0.7943 -1.7004
   69SLPC   C11 5841  -0.074   6.289  10.676 -0.1556  0.3115 -0.2549
   69SLPC  H11A 5842   0.019   6.322  10.625  0.7688 -0.2700  0.9929
   69SLPC  H11B 5843  -0.158   6.298  10.603  0.4004 -0.7264 -1.0423
   69SLPC     P 5844  -0.139   6.049  10.783 -0.0637  0.4329 -0.3759
   69SLPC   O13 5845  -0.052   5.972  10.873 -0.1163 -0.2904  0.4712
   69SLPC   O14 5846  -0.250   6.127  10.848 -0.5377 -0.0953  0.4936
   69SLPC   O12 5847  -0.038   6.153  10.702 -0.5904  0.3176 -0.1146
   69SLPC   O11 5848  -0.208   5.954  10.690  0.1804  0.3144  0.7344
   69SLPC    C1 5849  -0.137   5.908  10.573 -0.3529  0.7124  0.7541
   69SLPC    HA 5850  -0.105   5.986  10.501 -0.1321 -2.6919 -3.2550
   69SLPC    HB 5851  -0.044   5.858  10.606 -0.3659  1.1103  1.4011
   69SLPC    C2 5852  -0.222   5.810  10.490  0.1584  0.2857 -0.7396
   69SLPC    HS 5853  -0.266   5.729  10.552  2.3193 -2.1444 -2.1318
   69SLPC   O21 5854  -0.149   5.744  10.382  0.4367  0.0532  0.3642
   69SLPC   C21 5855  -0.213   5.642  10.326  0.1882 -0.4251  0.1755
   69SLPC   O22 5856  -0.313   5.594  10.374  0.2512  0.7829  0.1272
   69SLPC   C22 5857  -0.155   5.601  10.194 -0.7810 -0.1008  0.3034
   69SLPC   H2R 5858  -0.044   5.598  10.197 -0.7587  0.6263  2.8983
   69SLPC   H2S 5859  -0.184   5.495  10.179  1.8369 -0.4880 -3.8663
   69SLPC    C3 5860  -0.343   5.881  10.416  0.0085 -0.8364 -0.3664
   69SLPC    HX 5861  -0.404   5.896  10.507  0.6774  0.7673 -0.1486
   69SLPC    HY 5862  -0.403   5.814  10.351  1.2289 -4.6291  2.1330
   69SLPC   O31 5863  -0.310   6.008  10.350 -0.1534  0.0622  0.2601
   69SLPC   C31 5864  -0.350   6.122  10.402  0.8109  0.4808 -0.4931
   69SLPC   O32 5865  -0.443   6.129  10.485  0.4146 -0.9026 -0.7289
   69SLPC   C32 5866  -0.262   6.240  10.355 -0.4632 -0.2461  1.0635
   69SLPC   H2X 5867  -0.158   6.205  10.372 -1.2112 -2.9723  0.4565
   69SLPC   H2Y 5868  -0.285   6.326  10.421  2.7709  1.7259 -0.1346
   69SLPC   C23 5869  -0.218   5.667  10.073  0.3821  0.3158 -0.0757
   69SLPC   H3R 5870  -0.204   5.777  10.085 -0.9575  0.3444  1.6276
   69SLPC   H3S 5871  -0.328   5.663  10.063  0.4441 -0.1504 -0.6268
   69SLPC   C24 5872  -0.146   5.639   9.935 -0.0199 -0.0480  0.1058
   69SLPC   H4R 5873  -0.036   5.654   9.944  0.0858  2.1237 -3.0550
   69SLPC   H4S 5874  -0.186   5.717   9.867 -0.0445 -0.2836 -0.1561
   69SLPC   C25 5875  -0.183   5.510   9.866 -0.8500 -0.4504 -0.0043
   69SLPC   H5R 5876  -0.283   5.514   9.818 -0.1354  1.9819 -1.4307
   69SLPC   H5S 5877  -0.187   5.434   9.947 -0.5753  2.6851  3.1993
   69SLPC   C26 5878  -0.082   5.471   9.752 -0.0548 -0.4262  0.3181
   69SLPC   H6R 5879  -0.048   5.563   9.701  0.0120 -0.3814  0.4427
   69SLPC   H6S 5880  -0.130   5.409   9.673  1.6870 -1.4115 -0.0188
   69SLPC   C27 5881   0.042   5.393   9.812  0.1644  0.1797  0.9187
   69SLPC   H7R 5882   0.017   5.303   9.872 -0.9784  0.7948  1.4042
   69SLPC   H7S 5883   0.083   5.463   9.888  1.2666  1.4373 -0.7631
   69SLPC   C28 5884   0.159   5.368   9.717  0.0212 -0.0534  0.1781
   69SLPC   H8R 5885   0.242   5.324   9.778 -0.3904 -0.8464  0.1758
   69SLPC   H8S 5886   0.212   5.460   9.682  1.0298 -0.4558  0.5907
   69SLPC   C29 5887   0.125   5.287   9.597 -0.4871  0.1682 -0.1050
   69SLPC   H9R 5888   0.058   5.201   9.609  0.5628 -0.5251  0.9961
   69SLPC  C210 5889   0.169   5.307   9.474 -0.3072 -0.4725 -0.6103
   69SLPC  H10R 5890   0.126   5.241   9.397 -0.8610  0.3430 -1.0225
   69SLPC  C211 5891   0.261   5.412   9.411  0.0488 -0.4812  0.5925
   69SLPC  H11R 5892   0.319   5.361   9.331  0.6745  2.4218 -0.9657
   69SLPC  H11S 5893   0.331   5.443   9.492  1.1027  0.3736 -0.6163
   69SLPC  C212 5894   0.189   5.531   9.353  0.0258  0.8297  0.2747
   69SLPC  H12R 5895   0.080   5.537   9.368 -0.2808 -1.6579 -0.4591
   69SLPC  C213 5896   0.240   5.636   9.290  0.3356 -0.4870  0.3464
   69SLPC  H13R 5897   0.179   5.719   9.253 -0.8316 -1.7881 -0.7630
   69SLPC  C214 5898   0.387   5.665   9.270 -0.0902 -0.2070 -0.0685
   69SLPC  H14R 5899   0.446   5.572   9.280  0.8365  0.3921  0.1372
   69SLPC  H14S 5900   0.423   5.740   9.344  0.0112 -1.7726  1.5363
   69SLPC  C215 5901   0.411   5.729   9.137  0.2933 -0.7178  0.2533
   69SLPC  H15R 5902   0.521   5.740   9.127  0.1043  1.2665  0.0010
   69SLPC  H15S 5903   0.370   5.831   9.124  1.8192  0.4263  3.4933
   69SLPC  C216 5904   0.365   5.642   9.016 -0.5778  0.3713 -0.4118
   69SLPC  H16R 5905   0.255   5.633   9.005 -0.8551  0.3139  1.9686
   69SLPC  H16S 5906   0.390   5.536   9.040 -1.1311  0.4108  0.3709
   69SLPC  C217 5907   0.422   5.685   8.878  0.0420 -0.4554  0.0825
   69SLPC  H17R 5908   0.532   5.690   8.887 -0.0606  2.1467  0.6627
   69SLPC  H17S 5909   0.387   5.787   8.849  1.6159 -0.5857 -2.6287
   69SLPC  C218 5910   0.393   5.592   8.757  0.0907 -0.6980  0.0827
   69SLPC  H18R 5911   0.430   5.491   8.784  0.6379 -0.0929  1.7022
   69SLPC  H18S 5912   0.444   5.644   8.673 -0.1781  0.6076  0.6855
   69SLPC  H18T 5913   0.289   5.565   8.726  0.2957  0.5035 -1.8160
   69SLPC   C33 5914  -0.287   6.302  10.217 -0.1617 -0.3653  0.2950
   69SLPC   H3X 5915  -0.391   6.339  10.205 -1.2760 -3.1852  0.4924
   69SLPC   H3Y 5916  -0.291   6.206  10.161 -0.9034 -0.3843  0.3668
   69SLPC   C34 5917  -0.182   6.393  10.165 -0.1852 -0.5260 -0.6796
   69SLPC   H4X 5918  -0.084   6.343  10.173  0.6035  1.1947  1.1901
   69SLPC   H4Y 5919  -0.180   6.490  10.219  1.3363 -1.4723  1.0338
   69SLPC   C35 5920  -0.204   6.432  10.015 -0.5123  0.0325  0.7643
   69SLPC   H5X 5921  -0.135   6.513   9.981 -2.0854  0.9686 -0.3261
   69SLPC   H5Y 5922  -0.300   6.487  10.005 -1.3766 -1.6936 -1.0525
   69SLPC   C36 5923  -0.202   6.311   9.919 -0.1180 -0.1243  0.0266
   69SLPC   H6X 5924  -0.285   6.238   9.927  0.5779 -0.7733  1.8317
   69SLPC   H6Y 5925  -0.107   6.262   9.951 -0.7606 -0.0912  2.1485
   69SLPC   C37 5926  -0.195   6.357   9.777 -0.0941  0.5812  0.3336
   69SLPC   H7X 5927  -0.112   6.431   9.772  0.0805  0.3200 -1.6668
   69SLPC   H7Y 5928  -0.279   6.427   9.757  1.4830  2.0605 -1.6015
   69SLPC   C38 5929  -0.177   6.253   9.670  0.2899 -0.1153  0.1763
   69SLPC   H8X 5930  -0.265   6.185   9.677  0.4639 -0.3489  0.0976
   69SLPC   H8Y 5931  -0.081   6.199   9.680  1.0081  1.0505 -0.2558
   69SLPC   C39 5932  -0.162   6.318   9.537 -0.7541  0.0260  0.2469
   69SLPC   H9X 5933  -0.062   6.357   9.509 -0.1563 -2.3053 -1.1744
   69SLPC   H9Y 5934  -0.241   6.393   9.515  0.5028  0.5631 -3.1023
   69SLPC  C310 5935  -0.172   6.204   9.428  0.3344  0.3786  0.4427
   69SLPC  H10X 5936  -0.279   6.176   9.422  0.7506 -1.0376 -1.1857
   69SLPC  H10Y 5937  -0.115   6.112   9.451  1.0381  0.5527 -0.5223
   69SLPC  C311 5938  -0.131   6.243   9.292 -0.3598 -0.4503  0.6150
   69SLPC  H11X 5939  -0.167   6.168   9.218 -2.5256  0.7758  0.3467
   69SLPC  H11Y 5940  -0.023   6.246   9.266 -0.2878  1.6051  0.9438
   69SLPC  C312 5941  -0.197   6.379   9.246  0.0420  0.8572  0.2683
   69SLPC  H12X 5942  -0.173   6.465   9.312  4.3425  1.2297 -1.4900
   69SLPC  H12Y 5943  -0.304   6.352   9.262 -0.1797  0.8507 -1.0569
   69SLPC  C313 5944  -0.184   6.413   9.099 -0.0627 -0.1409  0.7128
   69SLPC  H13X 5945  -0.259   6.494   9.083 -0.5115 -0.8720 -1.0735
   69SLPC  H13Y 5946  -0.215   6.328   9.035 -2.2556  1.3382 -0.3125
   69SLPC  C314 5947  -0.048   6.464   9.065 -0.1098 -0.2575 -1.0386
   69SLPC  H14X 5948   0.026   6.382   9.074  0.7601  0.4533 -1.5468
   69SLPC  H14Y 5949  -0.007   6.536   9.139 -2.2637 -0.7433  0.7213
   69SLPC  C315 5950  -0.042   6.524   8.926 -0.5126  0.5278  0.1868
   69SLPC  H15X 5951   0.061   6.565   8.919 -0.4310  0.4619  0.9885
   69SLPC  H15Y 5952  -0.117   6.606   8.922  0.9592  1.8783 -0.7562
   69SLPC  C316 5953  -0.062   6.424   8.808  0.8284 -0.6486  0.1473
   69SLPC  H16X 5954  -0.165   6.383   8.800  0.3158  0.7597 -0.8331
   69SLPC  H16Y 5955   0.002   6.333   8.815  2.3662  0.3579 -0.2403
   69SLPC  C317 5956  -0.033   6.495   8.677  0.3939  0.2476 -0.3283
   69SLPC  H17X 5957   0.077   6.499   8.663  0.3249 -0.7532 -1.2810
   69SLPC  H17Y 5958  -0.079   6.596   8.675  1.6235  0.8262 -1.4506
   69SLPC  C318 5959  -0.097   6.417   8.564  0.3259 -0.4176 -0.2287
   69SLPC  H18X 5960  -0.194   6.377   8.600  0.5924  0.2199  1.2681
   69SLPC  H18Y 5961  -0.034   6.330   8.534  0.3756  0.0064 -1.4039
   69SLPC  H18Z 5962  -0.124   6.480   8.477 -2.3960 -0.2584  0.6521
   70SLPC     N 5963   5.224   3.629  10.784 -0.3683 -0.6166  0.3673
   70SLPC   C13 5964   5.155   3.609  10.920 -0.3004  0.9497 -0.3907
   70SLPC  H13A 5965   5.047   3.612  10.915 -0.3645 -1.1569 -1.4481
   70SLPC  H13B 5966   5.192   3.514  10.956 -1.9096  0.7159  0.7256
   70SLPC  H13C 5967   5.189   3.684  10.989 -1.3977 -1.0066  2.4300
   70SLPC   C14 5968   5.154   3.540  10.682  0.0841 -0.4868 -0.3710
   70SLPC  H14A 5969   5.215   3.536  10.593  0.1628 -1.3309 -0.2929
   70SLPC  H14B 5970   5.140   3.439  10.718 -0.1829 -1.1373 -2.2150
   70SLPC  H14C 5971   5.061   3.592  10.666 -0.1188 -0.2733  1.2758
   70SLPC   C15 5972   5.362   3.578  10.794  0.3791 -0.2777  0.0373
   70SLPC  H15A 5973   5.420   3.633  10.867 -1.0163  0.8371  0.3524
   70SLPC  H15B 5974   5.357   3.473  10.817  1.0425 -0.0818  1.1302
   70SLPC  H15C 5975   5.416   3.606  10.705 -0.4637  2.6968  0.3504
   70SLPC   C12 5976   5.224   3.775  10.736  0.4887 -0.8588 -0.9091
   70SLPC  H12A 5977   5.280   3.832  10.809 -0.9288  0.5189 -0.8655
   70SLPC  H12B 5978   5.121   3.804  10.747  0.2679 -1.9264 -0.0395
   70SLPC   C11 5979   5.283   3.817  10.597 -0.1579  0.2894  0.1239
   70SLPC  H11A 5980   5.252   3.919  10.568 -0.5828  0.2752  0.5105
   70SLPC  H11B 5981   5.241   3.753  10.517 -1.5067 -1.0223  1.7858
   70SLPC     P 5982   5.524   3.879  10.674 -0.2067  0.0964 -0.2199
   70SLPC   O13 5983   5.477   3.901  10.814 -0.0452  0.1926  0.5749
   70SLPC   O14 5984   5.662   3.830  10.664  0.4860 -0.3733  0.0592
   70SLPC   O12 5985   5.427   3.790  10.592  0.1825 -0.3509 -0.0481
   70SLPC   O11 5986   5.515   4.017  10.605  0.0887  0.3606 -0.4080
   70SLPC    C1 5987   5.520   4.032  10.460  0.4272 -0.2529 -0.4871
   70SLPC    HA 5988   5.606   3.971  10.424  0.9646 -1.9979  3.2125
   70SLPC    HB 5989   5.426   3.998  10.414 -0.4538  1.3043  0.0674
   70SLPC    C2 5990   5.532   4.173  10.411 -1.1444  0.1028  0.1040
   70SLPC    HS 5991   5.441   4.236  10.425 -0.7130  1.4406 -2.4600
   70SLPC   O21 5992   5.571   4.164  10.277 -0.2832 -0.5060  0.3444
   70SLPC   C21 5993   5.487   4.202  10.184 -0.0127  0.4793  0.6004
   70SLPC   O22 5994   5.383   4.262  10.199  0.4291 -0.2227 -0.0909
   70SLPC   C22 5995   5.552   4.177  10.049 -0.6605 -0.1931  0.5062
   70SLPC   H2R 5996   5.641   4.242  10.037 -2.2925  1.7568 -2.4807
   70SLPC   H2S 5997   5.572   4.067  10.051  2.0414  0.2213  0.0029
   70SLPC    C3 5998   5.645   4.246  10.498  0.1837 -0.8974 -0.0100
   70SLPC    HX 5999   5.737   4.196  10.462  1.2460  1.1303 -0.2420
   70SLPC    HY 6000   5.641   4.226  10.607  0.6553  2.0637  0.6268
   70SLPC   O31 6001   5.665   4.387  10.477  0.0574 -0.2064  0.0856
   70SLPC   C31 6002   5.593   4.463  10.557 -0.5744  0.1179 -0.5673
   70SLPC   O32 6003   5.518   4.421  10.642  0.3400 -0.3431 -0.3239
   70SLPC   C32 6004   5.613   4.606  10.509  0.2747  0.1350 -0.6278
   70SLPC   H2X 6005   5.575   4.600  10.404 -0.1705  3.0827 -0.7224
   70SLPC   H2Y 6006   5.719   4.637  10.514  0.3914 -0.4031  0.4675
   70SLPC   C23 6007   5.440   4.221   9.939  0.4672  0.8559  0.3436
   70SLPC   H3R 6008   5.390   4.312   9.977  0.7771 -0.4446  4.2459
   70SLPC   H3S 6009   5.372   4.134   9.922  1.8431 -0.0241 -0.9208
   70SLPC   C24 6010   5.497   4.229   9.793 -0.1825  0.2667 -0.2921
   70SLPC   H4R 6011   5.532   4.130   9.758 -2.1903 -1.4079  2.0546
   70SLPC   H4S 6012   5.591   4.287   9.792  0.5066 -0.5760  2.9959
   70SLPC   C25 6013   5.384   4.275   9.702  0.6445 -0.0165  0.0653
   70SLPC   H5R 6014   5.366   4.384   9.708 -0.9779 -0.2007 -0.7989
   70SLPC   H5S 6015   5.290   4.220   9.725  0.3071  0.3378 -0.4465
   70SLPC   C26 6016   5.417   4.252   9.551  0.4435  0.6528  0.4335
   70SLPC   H6R 6017   5.420   4.141   9.548  3.5705  0.5953  2.2327
   70SLPC   H6S 6018   5.517   4.289   9.521  0.9335 -1.4998 -0.7914
   70SLPC   C27 6019   5.307   4.327   9.464 -0.4751 -0.2448  0.5028
   70SLPC   H7R 6020   5.292   4.431   9.500 -0.0119  0.1190 -0.3136
   70SLPC   H7S 6021   5.207   4.283   9.482 -0.7556  0.4239  0.5884
   70SLPC   C28 6022   5.340   4.317   9.309 -0.0779 -0.2421  1.0055
   70SLPC   H8R 6023   5.419   4.386   9.273  0.4407 -1.1863  0.2747
   70SLPC   H8S 6024   5.258   4.368   9.255  1.8645  0.1455 -1.7778
   70SLPC   C29 6025   5.378   4.177   9.252 -0.1942 -0.1551 -0.2807
   70SLPC   H9R 6026   5.290   4.119   9.222  0.6777 -1.6352 -0.0862
   70SLPC  C210 6027   5.496   4.138   9.215  0.2608  0.3256  0.3219
   70SLPC  H10R 6028   5.501   4.029   9.196 -2.3945  0.4588 -1.6790
   70SLPC  C211 6029   5.623   4.207   9.211  0.8148 -0.3165  0.1326
   70SLPC  H11R 6030   5.662   4.204   9.314  3.3908 -0.7882 -0.7782
   70SLPC  H11S 6031   5.618   4.314   9.181 -1.3831 -0.4858 -0.3319
   70SLPC  C212 6032   5.723   4.138   9.125  0.6047 -0.1189 -0.6945
   70SLPC  H12R 6033   5.776   4.050   9.165  0.9221  1.2622  2.2356
   70SLPC  C213 6034   5.749   4.173   8.994  0.4821 -0.8759  0.6037
   70SLPC  H13R 6035   5.830   4.126   8.936 -1.1406 -1.4261 -1.2917
   70SLPC  C214 6036   5.683   4.286   8.918  0.6946 -0.4531 -0.5083
   70SLPC  H14R 6037   5.724   4.320   8.821 -3.1402  1.8970 -1.5150
   70SLPC  H14S 6038   5.701   4.382   8.971  1.1617 -0.0753 -1.3432
   70SLPC  C215 6039   5.534   4.242   8.891 -0.4391  0.4865 -0.1038
   70SLPC  H15R 6040   5.474   4.259   8.983 -0.6744  3.1858 -0.6725
   70SLPC  H15S 6041   5.531   4.133   8.871 -0.5058 -0.1876  3.0404
   70SLPC  C216 6042   5.474   4.333   8.781  0.0546 -0.2922  0.1109
   70SLPC  H16R 6043   5.402   4.273   8.721  0.0845 -1.3747  1.1154
   70SLPC  H16S 6044   5.544   4.367   8.702 -0.1786  0.5475  0.2644
   70SLPC  C217 6045   5.409   4.463   8.834 -0.1616 -0.1672  0.3135
   70SLPC  H17R 6046   5.489   4.528   8.873  0.5535 -0.2010 -1.0484
   70SLPC  H17S 6047   5.336   4.433   8.912  0.0181 -1.4320  0.0235
   70SLPC  C218 6048   5.347   4.532   8.720  0.2783  0.1372 -0.2728
   70SLPC  H18R 6049   5.281   4.614   8.753 -0.9839 -1.0847  0.3443
   70SLPC  H18S 6050   5.288   4.448   8.675  1.3650 -0.6778 -0.2152
   70SLPC  H18T 6051   5.416   4.562   8.638  0.8302 -0.7669 -0.1550
   70SLPC   C33 6052   5.507   4.702  10.584  0.1399  0.0001  0.1028
   70SLPC   H3X 6053   5.527   4.715  10.693 -1.2630 -3.6610  0.9715
   70SLPC   H3Y 6054   5.414   4.642  10.574  0.7686 -1.4453  2.2095
   70SLPC   C34 6055   5.502   4.839  10.508 -0.5460  0.0606  0.6301
   70SLPC   H4X 6056   5.400   4.881  10.522 -0.6543  0.1246 -0.3329
   70SLPC   H4Y 6057   5.502   4.804  10.403  1.8427  1.4858  0.1029
   70SLPC   C35 6058   5.619   4.931  10.527  0.7858 -0.1455  0.4814
   70SLPC   H5X 6059   5.712   4.871  10.534  0.5153 -0.6908 -0.4199
   70SLPC   H5Y 6060   5.604   4.984  10.624  1.0228  2.0400 -0.6130
   70SLPC   C36 6061   5.658   5.031  10.413  0.3361 -0.3016 -0.4555
   70SLPC   H6X 6062   5.759   5.073  10.433  0.1910 -0.5513  0.8394
   70SLPC   H6Y 6063   5.592   5.121  10.413  0.2416 -0.2720  2.8498
   70SLPC   C37 6064   5.657   4.964  10.277  0.0087  0.2880  0.1653
   70SLPC   H7X 6065   5.555   4.946  10.238  0.7446 -1.4686 -1.1183
   70SLPC   H7Y 6066   5.700   4.862  10.290 -1.8064 -0.4787  0.3947
   70SLPC   C38 6067   5.737   5.050  10.176 -0.3295 -0.6792  0.6428
   70SLPC   H8X 6068   5.843   5.045  10.208 -0.3980 -4.8998  0.7410
   70SLPC   H8Y 6069   5.689   5.151  10.176 -0.1332 -0.5802 -0.3118
   70SLPC   C39 6070   5.740   4.989  10.033  0.2217  0.1219 -0.2081
   70SLPC   H9X 6071   5.633   4.974  10.008  0.4466 -1.0847 -0.5390
   70SLPC   H9Y 6072   5.799   4.896  10.050  1.2198  0.7327 -0.2750
   70SLPC  C310 6073   5.813   5.060   9.928  0.6517  0.1814 -0.2077
   70SLPC  H10X 6074   5.909   5.095   9.972  0.7947 -1.0967  0.5424
   70SLPC  H10Y 6075   5.752   5.150   9.906 -0.3378 -0.3563  0.3035
   70SLPC  C311 6076   5.836   4.983   9.801  0.4122 -0.9806  0.6381
   70SLPC  H11X 6077   5.741   4.954   9.750  1.8140 -2.8343 -1.0931
   70SLPC  H11Y 6078   5.880   4.884   9.824  2.0153 -0.1030  1.5544
   70SLPC  C312 6079   5.908   5.067   9.695 -0.1280 -0.2688 -0.3530
   70SLPC  H12X 6080   5.994   5.115   9.748  0.2595 -1.6352  0.2990
   70SLPC  H12Y 6081   5.841   5.147   9.658  0.7388 -0.5395 -2.6848
   70SLPC  C313 6082   5.945   4.995   9.562 -1.2913  0.3938 -0.3279
   70SLPC  H13X 6083   5.852   4.947   9.526 -0.4996 -0.9781 -0.6534
   70SLPC  H13Y 6084   6.026   4.921   9.581 -0.6329  1.0523 -0.5300
   70SLPC  C314 6085   6.001   5.093   9.466  0.1729 -0.0239  0.2623
   70SLPC  H14X 6086   6.084   5.149   9.514  1.1698 -1.7945  0.7338
   70SLPC  H14Y 6087   5.917   5.164   9.458  0.3285  0.2097  0.6779
   70SLPC  C315 6088   6.046   5.037   9.332 -0.5614  0.5439  0.4326
   70SLPC  H15X 6089   5.980   4.953   9.305 -0.8993 -0.3597  3.7226
   70SLPC  H15Y 6090   6.150   4.999   9.339 -0.1183  1.6660  0.2531
   70SLPC  C316 6091   6.031   5.140   9.220 -0.3454 -0.2927 -0.6194
   70SLPC  H16X 6092   6.093   5.232   9.232  0.1010 -0.1757 -3.0897
   70SLPC  H16Y 6093   5.925   5.173   9.220 -1.2357 -2.8899 -1.5218
   70SLPC  C317 6094   6.084   5.095   9.087  0.1380 -0.4911 -0.5151
   70SLPC  H17X 6095   6.023   5.009   9.051 -1.3772  0.3858 -0.0956
   70SLPC  H17Y 6096   6.189   5.058   9.097  0.0298 -0.4813  0.8108
   70SLPC  C318 6097   6.069   5.201   8.972 -0.2432 -0.2591 -0.0957
   70SLPC  H18X 6098   6.084   5.154   8.872  3.9368  1.4890 -0.4999
   70SLPC  H18Y 6099   6.145   5.281   8.987  0.5878 -1.2945  1.4774
   70SLPC  H18Z 6100   5.971   5.252   8.981 -0.8033 -1.1488 -0.9669
   71SLPC     N 6101   0.057   0.790  10.642  0.0553 -0.0315  0.4006
   71SLPC   C13 6102   0.110   0.732  10.765 -0.3849 -0.0564 -0.7070
   71SLPC  H13A 6103   0.194   0.790  10.799 -0.7850  0.5360 -0.7272
   71SLPC  H13B 6104   0.035   0.722  10.842  0.5041  0.7850  0.2977
   71SLPC  H13C 6105   0.145   0.631  10.749  0.2559  0.1324 -0.5341
   71SLPC   C14 6106  -0.037   0.682  10.589  0.5691  0.3050 -0.5069
   71SLPC  H14A 6107   0.014   0.594  10.553  2.1642  1.6965 -1.8048
   71SLPC  H14B 6108  -0.110   0.662  10.666  0.3723  0.5311 -0.6354
   71SLPC  H14C 6109  -0.086   0.727  10.503 -1.2609 -0.2171  0.2132
   71SLPC   C15 6110   0.170   0.806  10.542  0.3354 -0.0013  0.1364
   71SLPC  H15A 6111   0.248   0.875  10.570  3.1544 -2.3219 -1.4305
   71SLPC  H15B 6112   0.216   0.709  10.537 -0.4624 -0.5158  1.9324
   71SLPC  H15C 6113   0.140   0.841  10.444  2.5226  0.8867 -0.2811
   71SLPC   C12 6114  -0.011   0.921  10.680 -0.3309  1.1927  0.3432
   71SLPC  H12A 6115   0.055   0.974  10.747 -0.9352  0.2476  1.7348
   71SLPC  H12B 6116  -0.107   0.905  10.727 -1.0926 -3.3435 -2.1554
   71SLPC   C11 6117  -0.058   1.012  10.557  0.2846  0.0608 -0.2862
   71SLPC  H11A 6118   0.033   1.038  10.498  1.4457 -0.0741  1.3684
   71SLPC  H11B 6119  -0.095   1.110  10.594  0.7232  0.7464 -1.6003
   71SLPC     P 6120  -0.295   0.934  10.492 -0.1358 -0.1737  0.1619
   71SLPC   O13 6121  -0.361   0.822  10.421  0.1806  0.4761  0.0630
   71SLPC   O14 6122  -0.305   0.933  10.642 -0.7191 -0.2357 -0.4951
   71SLPC   O12 6123  -0.145   0.939  10.462 -0.1153 -0.0716 -0.0752
   71SLPC   O11 6124  -0.346   1.077  10.434  0.5367  0.1977  0.1763
   71SLPC    C1 6125  -0.331   1.100  10.292 -0.0482 -0.4846 -0.0229
   71SLPC    HA 6126  -0.356   1.207  10.273 -3.4931 -0.4251  3.4400
   71SLPC    HB 6127  -0.227   1.085  10.257  0.2060 -0.9588  0.9011
   71SLPC    C2 6128  -0.446   1.031  10.206 -0.2453  0.1248  0.0508
   71SLPC    HS 6129  -0.425   0.922  10.199  0.1381  0.0830  1.5222
   71SLPC   O21 6130  -0.470   1.090  10.078  0.0108 -0.1906 -0.1227
   71SLPC   C21 6131  -0.377   1.087   9.995 -1.3815 -0.4709  0.2833
   71SLPC   O22 6132  -0.265   1.037  10.010  0.1002  0.2275 -0.3503
   71SLPC   C22 6133  -0.417   1.139   9.859 -0.5087  0.3413  0.2781
   71SLPC   H2R 6134  -0.506   1.084   9.822  1.8599 -2.4933 -1.5738
   71SLPC   H2S 6135  -0.452   1.244   9.871 -1.1903  0.0696  0.7435
   71SLPC    C3 6136  -0.578   1.049  10.283 -0.1743 -0.2390  0.0434
   71SLPC    HX 6137  -0.597   1.158  10.293 -1.3863 -0.5664  1.7826
   71SLPC    HY 6138  -0.569   1.020  10.390 -2.5234  0.9313  0.6126
   71SLPC   O31 6139  -0.686   0.975  10.213  0.1888 -0.0386 -1.1196
   71SLPC   C31 6140  -0.695   0.861  10.264  0.0277  0.9896 -0.0779
   71SLPC   O32 6141  -0.633   0.809  10.351 -0.6925 -0.3965 -0.4451
   71SLPC   C32 6142  -0.792   0.775  10.179 -0.4790  0.2223  0.8129
   71SLPC   H2X 6143  -0.826   0.847  10.102 -0.8852 -2.0901 -1.2891
   71SLPC   H2Y 6144  -0.875   0.739  10.243 -0.3405 -0.1007  0.8126
   71SLPC   C23 6145  -0.323   1.143   9.735  0.2997  0.6916  0.3909
   71SLPC   H3R 6146  -0.296   1.044   9.693 -4.0291 -0.2599 -0.6488
   71SLPC   H3S 6147  -0.227   1.196   9.755  0.0848  1.5323 -0.7024
   71SLPC   C24 6148  -0.384   1.230   9.626 -0.0751  0.0298 -0.0272
   71SLPC   H4R 6149  -0.389   1.336   9.658 -0.5360 -0.4566  1.6171
   71SLPC   H4S 6150  -0.485   1.184   9.620  0.4936 -1.3139  0.3351
   71SLPC   C25 6151  -0.321   1.202   9.490 -0.4837  0.3705 -0.0419
   71SLPC   H5R 6152  -0.341   1.096   9.463 -0.0213 -0.1082  1.4319
   71SLPC   H5S 6153  -0.214   1.221   9.513 -0.3785 -1.7923  1.5577
   71SLPC   C26 6154  -0.367   1.290   9.371 -0.4525 -0.3342  0.4014
   71SLPC   H6R 6155  -0.370   1.398   9.398 -1.5841 -0.6240  1.5317
   71SLPC   H6S 6156  -0.466   1.252   9.339  0.2744 -0.3557 -2.0173
   71SLPC   C27 6157  -0.274   1.276   9.247 -0.2762  0.1876  0.1766
   71SLPC   H7R 6158  -0.171   1.284   9.287 -0.3127  2.3861 -0.0508
   71SLPC   H7S 6159  -0.294   1.366   9.184  0.3451  0.8734  0.9399
   71SLPC   C28 6160  -0.289   1.159   9.157  0.0582 -0.5965  0.4381
   71SLPC   H8R 6161  -0.372   1.184   9.087 -0.7488 -2.3724  0.6871
   71SLPC   H8S 6162  -0.328   1.065   9.201 -3.0879 -0.4645 -1.7198
   71SLPC   C29 6163  -0.155   1.132   9.086  0.5000 -0.6110 -0.1869
   71SLPC   H9R 6164  -0.062   1.141   9.144  1.2624 -0.4222 -1.3987
   71SLPC  C210 6165  -0.139   1.111   8.958 -0.2837 -0.0149  0.1818
   71SLPC  H10R 6166  -0.035   1.104   8.922  0.0235 -0.8050  1.1555
   71SLPC  C211 6167  -0.244   1.087   8.854 -0.1447  0.6923 -0.1480
   71SLPC  H11R 6168  -0.265   1.183   8.801 -1.1731 -0.1865 -1.4106
   71SLPC  H11S 6169  -0.334   1.063   8.915 -0.8416 -1.6353 -1.9405
   71SLPC  C212 6170  -0.233   0.983   8.743 -0.4928  0.2825  0.7280
   71SLPC  H12R 6171  -0.313   0.908   8.749 -1.3968  1.1459 -0.1849
   71SLPC  C213 6172  -0.150   0.992   8.641 -0.0009 -0.8169 -0.4367
   71SLPC  H13R 6173  -0.154   0.915   8.562 -2.6665  1.9630 -3.2562
   71SLPC  C214 6174  -0.051   1.110   8.619  0.5054 -0.4788  0.3741
   71SLPC  H14R 6175  -0.056   1.184   8.702 -2.5043 -1.4740  1.1879
   71SLPC  H14S 6176  -0.101   1.158   8.532  0.6281 -1.2158 -0.1085
   71SLPC  C215 6177   0.100   1.073   8.591  0.6566 -0.0098  0.7012
   71SLPC  H15R 6178   0.100   1.024   8.492 -2.6164  0.2622  0.4708
   71SLPC  H15S 6179   0.147   0.993   8.651 -1.3850 -1.0477  1.0065
   71SLPC  C216 6180   0.187   1.202   8.591 -0.4376 -0.2157  0.2930
   71SLPC  H16R 6181   0.178   1.247   8.692 -0.5680 -3.0382  1.6378
   71SLPC  H16S 6182   0.167   1.280   8.514 -1.5428 -1.3498 -0.6124
   71SLPC  C217 6183   0.334   1.173   8.567  0.0248 -0.3781 -0.2886
   71SLPC  H17R 6184   0.336   1.132   8.464 -2.6418  0.3990 -0.7310
   71SLPC  H17S 6185   0.372   1.096   8.638 -0.2022  1.1342  1.5663
   71SLPC  C218 6186   0.425   1.293   8.562  0.3757 -0.2651  0.7696
   71SLPC  H18R 6187   0.395   1.379   8.499  1.1242 -1.0565 -0.7077
   71SLPC  H18S 6188   0.530   1.272   8.532 -0.1764 -0.0849 -1.3918
   71SLPC  H18T 6189   0.424   1.329   8.668  1.2188  0.9272  0.3981
   71SLPC   C33 6190  -0.726   0.651  10.106 -0.2459  0.4148  0.1349
   71SLPC   H3X 6191  -0.807   0.603  10.047 -1.8286  0.7813  1.9034
   71SLPC   H3Y 6192  -0.699   0.585  10.191 -0.0999  1.3104  0.8010
   71SLPC   C34 6193  -0.597   0.686  10.021 -0.2751  0.5632 -0.3821
   71SLPC   H4X 6194  -0.548   0.593   9.986  0.4961  0.7480  0.1952
   71SLPC   H4Y 6195  -0.526   0.735  10.091 -2.4041  0.5940  1.9177
   71SLPC   C35 6196  -0.628   0.765   9.897 -0.2124 -0.0060 -0.2222
   71SLPC   H5X 6197  -0.658   0.865   9.937 -1.5504 -0.0242 -1.1235
   71SLPC   H5Y 6198  -0.717   0.730   9.841 -1.1676  0.9527  0.6253
   71SLPC   C36 6199  -0.511   0.786   9.803  0.3349  0.0152  0.3692
   71SLPC   H6X 6200  -0.441   0.702   9.826 -0.5680 -1.3206 -1.4796
   71SLPC   H6Y 6201  -0.456   0.880   9.826  0.1207  0.5669 -1.2942
   71SLPC   C37 6202  -0.564   0.783   9.661  0.4443 -0.3785  0.0289
   71SLPC   H7X 6203  -0.631   0.870   9.646 -0.6152 -0.9736  1.1390
   71SLPC   H7Y 6204  -0.622   0.690   9.639  0.0338 -0.6416  2.0365
   71SLPC   C38 6205  -0.461   0.792   9.549 -0.0726 -0.6244  0.4072
   71SLPC   H8X 6206  -0.395   0.702   9.548 -0.3067 -0.8923  2.9165
   71SLPC   H8Y 6207  -0.398   0.882   9.566  1.0044 -1.1484 -0.6353
   71SLPC   C39 6208  -0.534   0.804   9.415 -0.1433 -0.0613 -0.5280
   71SLPC   H9X 6209  -0.570   0.908   9.397 -0.8161  0.7438  4.2205
   71SLPC   H9Y 6210  -0.622   0.736   9.404  0.0125 -0.3471 -0.0586
   71SLPC  C310 6211  -0.444   0.786   9.296 -0.1960  0.1647  0.2762
   71SLPC  H10X 6212  -0.419   0.678   9.299 -0.8612 -0.0857 -1.7851
   71SLPC  H10Y 6213  -0.349   0.840   9.314  1.1099 -1.5333 -1.1980
   71SLPC  C311 6214  -0.509   0.820   9.166  1.4316 -0.6461  0.0831
   71SLPC  H11X 6215  -0.547   0.923   9.183  0.5108 -0.6319 -1.8054
   71SLPC  H11Y 6216  -0.604   0.763   9.152 -0.7374  2.4912  1.0857
   71SLPC  C312 6217  -0.429   0.798   9.037  0.2172 -0.2990  0.1837
   71SLPC  H12X 6218  -0.326   0.836   9.051 -0.0981  1.5251 -1.8344
   71SLPC  H12Y 6219  -0.473   0.859   8.955 -0.5310 -0.1061  0.7090
   71SLPC  C313 6220  -0.415   0.657   8.995 -0.4942  0.5296 -0.3817
   71SLPC  H13X 6221  -0.511   0.600   9.006 -0.3767 -0.0072 -1.9318
   71SLPC  H13Y 6222  -0.342   0.596   9.053 -0.3907  1.3061  0.3251
   71SLPC  C314 6223  -0.376   0.645   8.844  0.3331 -0.0791 -0.0059
   71SLPC  H14X 6224  -0.288   0.710   8.825 -0.0198  0.2468 -0.5412
   71SLPC  H14Y 6225  -0.458   0.668   8.772 -1.1486 -2.7339  0.7119
   71SLPC  C315 6226  -0.323   0.499   8.812 -0.9911  0.4999  0.6812
   71SLPC  H15X 6227  -0.375   0.412   8.858 -0.8276  0.4687  0.8114
   71SLPC  H15Y 6228  -0.220   0.487   8.852 -0.8531  0.1789  0.2390
   71SLPC  C316 6229  -0.311   0.473   8.661 -0.0541 -0.0016 -0.3902
   71SLPC  H16X 6230  -0.410   0.496   8.615  0.3862  2.7130 -0.1181
   71SLPC  H16Y 6231  -0.291   0.364   8.647 -0.6990  0.1696 -3.6038
   71SLPC  C317 6232  -0.200   0.567   8.605 -1.1538 -0.0780 -0.2444
   71SLPC  H17X 6233  -0.107   0.514   8.635 -1.2114  0.2125  0.4740
   71SLPC  H17Y 6234  -0.200   0.662   8.663 -0.6885  0.3228 -0.8911
   71SLPC  C318 6235  -0.214   0.597   8.456 -0.3902  0.2607  0.1166
   71SLPC  H18X 6236  -0.245   0.511   8.394 -0.9996  0.4470  0.1615
   71SLPC  H18Y 6237  -0.118   0.629   8.410  1.7742 -3.0947  1.8543
   71SLPC  H18Z 6238  -0.293   0.673   8.447 -0.5308  0.4175  2.0739
   72SLPC     N 6239   2.089   0.622  10.815  0.1705 -0.3826 -0.4366
   72SLPC   C13 6240   2.014   0.497  10.841  0.4556  1.5221  0.1101
   72SLPC  H13A 6241   1.931   0.494  10.773  2.4828  0.0634 -2.4872
   72SLPC  H13B 6242   2.067   0.406  10.818 -3.0326 -0.4732 -0.7824
   72SLPC  H13C 6243   1.970   0.496  10.940  0.2985  0.2872  0.0421
   72SLPC   C14 6244   2.219   0.607  10.889 -0.3126 -0.1650  0.7884
   72SLPC  H14A 6245   2.277   0.695  10.863  1.6747 -1.7802 -0.6120
   72SLPC  H14B 6246   2.189   0.600  10.993  0.7485  0.8452  1.1828
   72SLPC  H14C 6247   2.279   0.528  10.846  0.6754  1.3679 -0.7989
   72SLPC   C15 6248   2.020   0.741  10.875 -0.1639 -1.6424 -0.1631
   72SLPC  H15A 6249   2.074   0.832  10.853 -2.0397 -0.2047  0.9363
   72SLPC  H15B 6250   1.914   0.744  10.854 -0.7083 -1.3549  2.3303
   72SLPC  H15C 6251   2.022   0.731  10.982 -0.0754 -0.4429 -0.0391
   72SLPC   C12 6252   2.107   0.645  10.666  0.1051 -0.1103 -0.2541
   72SLPC  H12A 6253   2.008   0.654  10.623  1.0135  2.3396 -2.0384
   72SLPC  H12B 6254   2.162   0.562  10.626  1.1857 -0.5705  2.0122
   72SLPC   C11 6255   2.173   0.772  10.616  0.1838  0.3036  0.1421
   72SLPC  H11A 6256   2.118   0.865  10.643  0.9312  0.9114 -0.3786
   72SLPC  H11B 6257   2.177   0.773  10.505 -0.8037  0.4973  0.0992
   72SLPC     P 6258   2.427   0.693  10.617 -0.5645 -0.6051 -0.2259
   72SLPC   O13 6259   2.527   0.692  10.727  0.0346 -0.3308 -0.2492
   72SLPC   O14 6260   2.385   0.559  10.584 -0.1459 -0.2060 -0.2106
   72SLPC   O12 6261   2.306   0.780  10.658 -0.0930  0.0861 -0.0267
   72SLPC   O11 6262   2.496   0.761  10.488  0.2160  0.2141  0.2046
   72SLPC    C1 6263   2.459   0.896  10.467  0.2123 -0.0824 -0.2991
   72SLPC    HA 6264   2.349   0.905  10.459  0.1803 -0.0272  0.1478
   72SLPC    HB 6265   2.488   0.963  10.551 -0.7094  0.4195 -0.3594
   72SLPC    C2 6266   2.526   0.954  10.340  0.4624  0.2655  0.0754
   72SLPC    HS 6267   2.482   1.056  10.340 -0.7841 -0.2466 -0.1266
   72SLPC   O21 6268   2.487   0.879  10.228  0.1563  0.0991  0.2479
   72SLPC   C21 6269   2.394   0.925  10.152  0.0652  0.1534 -0.5877
   72SLPC   O22 6270   2.345   1.035  10.161  0.5820 -0.7440  0.1653
   72SLPC   C22 6271   2.366   0.817  10.043  0.6383 -0.0664  0.5208
   72SLPC   H2R 6272   2.256   0.822  10.028  0.8697 -0.8351 -1.9486
   72SLPC   H2S 6273   2.400   0.874   9.953 -0.6328  0.6602  0.4685
   72SLPC    C3 6274   2.679   0.946  10.360  0.2877 -0.4943 -0.3350
   72SLPC    HX 6275   2.699   0.840  10.389 -0.3168 -1.4520 -3.1099
   72SLPC    HY 6276   2.711   1.003  10.450  1.2933 -1.7773  0.1530
   72SLPC   O31 6277   2.756   1.002  10.253 -0.4762 -0.3795 -0.0313
   72SLPC   C31 6278   2.805   0.917  10.164  0.6855  0.6072 -0.8582
   72SLPC   O32 6279   2.778   0.799  10.153 -0.0899 -0.0412 -0.1664
   72SLPC   C32 6280   2.881   1.000  10.068  0.3799 -0.6393  0.7077
   72SLPC   H2X 6281   2.972   0.944  10.038  2.1280  2.6067 -0.5379
   72SLPC   H2Y 6282   2.924   1.088  10.120  0.0623 -0.3713  0.5103
   72SLPC   C23 6283   2.432   0.678  10.041  0.0583 -0.4858  0.1135
   72SLPC   H3R 6284   2.397   0.607  10.119 -0.5594 -2.2919 -1.7349
   72SLPC   H3S 6285   2.541   0.686  10.058  0.3403  0.2166 -1.8561
   72SLPC   C24 6286   2.421   0.611   9.902 -0.2123  0.3799 -0.4762
   72SLPC   H4R 6287   2.479   0.517   9.913 -0.1302  0.4273 -0.5031
   72SLPC   H4S 6288   2.464   0.675   9.822  1.1652  1.6221  1.1946
   72SLPC   C25 6289   2.272   0.587   9.864 -0.1319 -0.0338 -0.1837
   72SLPC   H5R 6290   2.212   0.676   9.892 -0.7553 -0.7645  0.8769
   72SLPC   H5S 6291   2.226   0.518   9.938 -3.2017  0.6996 -1.2321
   72SLPC   C26 6292   2.240   0.525   9.734 -0.3679  0.7335  1.2470
   72SLPC   H6R 6293   2.303   0.434   9.723 -2.2798 -0.6765  1.5407
   72SLPC   H6S 6294   2.277   0.600   9.660 -2.1010 -0.0917 -0.5528
   72SLPC   C27 6295   2.091   0.501   9.707  0.1836  0.6370 -0.1809
   72SLPC   H7R 6296   2.049   0.602   9.726  0.8836  0.7520  0.8530
   72SLPC   H7S 6297   2.052   0.433   9.785 -0.8926  1.5971  0.1453
   72SLPC   C28 6298   2.050   0.446   9.572 -0.1832  0.0933 -0.8273
   72SLPC   H8R 6299   2.089   0.521   9.501 -0.7243  2.0012  0.8077
   72SLPC   H8S 6300   1.940   0.460   9.572 -0.2322 -0.2682 -0.5478
   72SLPC   C29 6301   2.083   0.301   9.531  0.2248  0.1801  0.3121
   72SLPC   H9R 6302   2.002   0.236   9.568  0.7419 -1.6443 -1.5802
   72SLPC  C210 6303   2.185   0.243   9.460 -0.1746 -0.3276 -0.0700
   72SLPC  H10R 6304   2.183   0.133   9.459  0.6040 -0.3478 -0.0208
   72SLPC  C211 6305   2.306   0.321   9.424  0.4571  0.0868 -0.3799
   72SLPC  H11R 6306   2.381   0.267   9.486  1.4765  1.6964 -0.1687
   72SLPC  H11S 6307   2.308   0.420   9.474  0.8860  0.1864 -0.5973
   72SLPC  C212 6308   2.352   0.312   9.281  0.0308 -0.3661  0.3181
   72SLPC  H12R 6309   2.448   0.263   9.261  1.8428  3.0935 -0.3152
   72SLPC  C213 6310   2.285   0.364   9.174  0.0916 -0.6928 -0.1131
   72SLPC  H13R 6311   2.333   0.352   9.076  0.7217 -0.9313  0.2227
   72SLPC  C214 6312   2.163   0.447   9.178  0.0056 -0.7650 -0.5722
   72SLPC  H14R 6313   2.182   0.537   9.116  3.0384 -1.2098 -0.4192
   72SLPC  H14S 6314   2.145   0.481   9.282  2.6082  1.2134 -0.6832
   72SLPC  C215 6315   2.031   0.383   9.122 -0.0655  0.1996 -0.0028
   72SLPC  H15R 6316   1.953   0.462   9.116  0.0875  0.6798  3.0590
   72SLPC  H15S 6317   1.994   0.318   9.205  2.0677 -2.7138 -1.1542
   72SLPC  C216 6318   2.050   0.293   8.997  0.2614 -0.4959  0.3154
   72SLPC  H16R 6319   2.148   0.243   8.980  0.7689  0.7579 -0.6484
   72SLPC  H16S 6320   2.051   0.362   8.910 -0.8634 -1.8645 -0.8341
   72SLPC  C217 6321   1.924   0.211   8.993 -0.7845  0.2715  0.2479
   72SLPC  H17R 6322   1.839   0.280   9.008  0.7047  1.8428  1.8694
   72SLPC  H17S 6323   1.934   0.146   9.082 -0.7252 -0.1185 -0.0382
   72SLPC  C218 6324   1.904   0.127   8.865  0.0873 -0.0109 -0.0159
   72SLPC  H18R 6325   1.971   0.039   8.859 -0.1411 -0.2235  0.4432
   72SLPC  H18S 6326   1.893   0.195   8.778 -4.6363 -1.2781 -0.7252
   72SLPC  H18T 6327   1.800   0.087   8.859  0.7603 -1.9010  0.2169
   72SLPC   C33 6328   2.783   1.055   9.956  0.1310 -0.1777 -0.1303
   72SLPC   H3X 6329   2.828   1.148   9.914 -0.1364 -0.2371 -0.5568
   72SLPC   H3Y 6330   2.678   1.082   9.979  0.1242  0.2926 -0.6702
   72SLPC   C34 6331   2.767   0.958   9.852  0.1986 -0.7443  0.5699
   72SLPC   H4X 6332   2.737   0.863   9.902  0.0426 -1.8459 -1.4816
   72SLPC   H4Y 6333   2.860   0.933   9.796  1.6581  0.9175  2.1193
   72SLPC   C35 6334   2.658   0.988   9.746  0.3308 -0.1921  0.1117
   72SLPC   H5X 6335   2.691   1.076   9.687 -2.7668  1.3894  0.5779
   72SLPC   H5Y 6336   2.576   1.028   9.809  0.8675  0.8378  0.1813
   72SLPC   C36 6337   2.605   0.867   9.663  0.4950  0.1677  0.1192
   72SLPC   H6X 6338   2.500   0.895   9.641  0.3316 -0.4121  0.1506
   72SLPC   H6Y 6339   2.607   0.766   9.708  2.7282  0.8063  1.6476
   72SLPC   C37 6340   2.684   0.860   9.530 -0.5367  0.3754  0.6312
   72SLPC   H7X 6341   2.788   0.822   9.545  0.3004  1.9708 -0.7968
   72SLPC   H7Y 6342   2.696   0.966   9.497  0.2828 -0.4143 -1.8451
   72SLPC   C38 6343   2.601   0.803   9.418 -0.0666  0.0561  0.2691
   72SLPC   H8X 6344   2.515   0.869   9.390  2.3934  3.4824  0.1987
   72SLPC   H8Y 6345   2.562   0.704   9.451 -1.0410  0.4207  0.2490
   72SLPC   C39 6346   2.684   0.781   9.293  0.6933  0.7622 -0.7810
   72SLPC   H9X 6347   2.769   0.710   9.303 -0.4750 -0.5431  0.2388
   72SLPC   H9Y 6348   2.719   0.876   9.247  0.5205  1.7607  1.0580
   72SLPC  C310 6349   2.599   0.702   9.189 -0.6730 -0.4661 -0.1944
   72SLPC  H10X 6350   2.521   0.775   9.160  0.4368  1.9052  2.2785
   72SLPC  H10Y 6351   2.540   0.622   9.239 -1.1965  0.8334  1.3407
   72SLPC  C311 6352   2.672   0.649   9.065 -0.0491  0.0209 -0.1296
   72SLPC  H11X 6353   2.746   0.572   9.094 -1.0256 -0.3889  1.3556
   72SLPC  H11Y 6354   2.724   0.735   9.016 -0.3412  0.5378  0.4578
   72SLPC  C312 6355   2.589   0.568   8.968 -0.6453  0.2255  0.0392
   72SLPC  H12X 6356   2.539   0.476   9.006  1.1577 -1.0232 -0.5057
   72SLPC  H12Y 6357   2.654   0.523   8.891 -1.5868  0.7069 -1.0682
   72SLPC  C313 6358   2.495   0.658   8.883 -0.1593  0.4120  0.3492
   72SLPC  H13X 6359   2.547   0.718   8.805 -2.5179 -0.1481 -1.7906
   72SLPC  H13Y 6360   2.447   0.742   8.939 -1.0440 -1.1446  2.0073
   72SLPC  C314 6361   2.390   0.570   8.805  0.0227 -0.4022  0.2810
   72SLPC  H14X 6362   2.340   0.636   8.731  0.2055 -0.7776 -0.1782
   72SLPC  H14Y 6363   2.314   0.539   8.879  0.9926 -1.0251  1.0445
   72SLPC  C315 6364   2.451   0.454   8.735  0.6116  0.0395  0.2775
   72SLPC  H15X 6365   2.497   0.376   8.800  0.7647 -0.4479 -0.4099
   72SLPC  H15Y 6366   2.542   0.496   8.688  2.3175 -1.3312  2.1488
   72SLPC  C316 6367   2.345   0.376   8.656  0.0664 -0.3280 -0.1626
   72SLPC  H16X 6368   2.269   0.346   8.731 -0.3905 -0.9661 -0.8637
   72SLPC  H16Y 6369   2.390   0.283   8.617  0.4818 -0.9112  1.6250
   72SLPC  C317 6370   2.277   0.459   8.544  0.5533 -0.3235  0.1879
   72SLPC  H17X 6371   2.211   0.542   8.576  2.3432  1.5303 -0.6804
   72SLPC  H17Y 6372   2.214   0.389   8.485 -0.4899  0.5988  0.1775
   72SLPC  C318 6373   2.368   0.521   8.446  0.3940  0.2505 -0.7399
   72SLPC  H18X 6374   2.313   0.560   8.358 -0.1903 -2.6429 -1.7498
   72SLPC  H18Y 6375   2.429   0.442   8.397 -1.8978 -0.3661 -2.7975
   72SLPC  H18Z 6376   2.426   0.603   8.494 -0.4304  0.4796 -0.1268
   73SLPC     N 6377   1.268   0.252  10.967  0.1335 -0.0030 -0.6214
   73SLPC   C13 6378   1.309   0.147  11.067  0.2140 -0.0726 -0.3236
   73SLPC  H13A 6379   1.238   0.066  11.058 -2.1957  1.8939 -0.1727
   73SLPC  H13B 6380   1.412   0.120  11.053  0.0828  0.2246 -1.9791
   73SLPC  H13C 6381   1.295   0.175  11.171  0.9114 -0.7663 -0.0367
   73SLPC   C14 6382   1.365   0.365  10.970 -0.4026  0.2369  0.2402
   73SLPC  H14A 6383   1.466   0.341  10.942  0.0006  1.1082  0.9070
   73SLPC  H14B 6384   1.334   0.430  10.889 -0.5216 -2.1672 -1.7815
   73SLPC  H14C 6385   1.352   0.417  11.064 -1.0718  0.1399  0.2055
   73SLPC   C15 6386   1.122   0.303  11.003 -0.0480  0.3384 -0.0049
   73SLPC  H15A 6387   1.116   0.366  11.091  0.2668  1.8265 -0.9966
   73SLPC  H15B 6388   1.088   0.362  10.918 -2.1140  1.1811  1.3180
   73SLPC  H15C 6389   1.054   0.221  11.015  0.4402  0.1280  1.4085
   73SLPC   C12 6390   1.257   0.194  10.829  0.0683  0.1437  0.1783
   73SLPC  H12A 6391   1.200   0.102  10.832  1.3974 -0.7361 -0.6522
   73SLPC  H12B 6392   1.357   0.157  10.811 -0.2960 -1.8263  1.8316
   73SLPC   C11 6393   1.207   0.281  10.709 -0.5956 -0.5353  0.0219
   73SLPC  H11A 6394   1.101   0.312  10.725 -0.7280 -1.0911  0.2433
   73SLPC  H11B 6395   1.210   0.216  10.619  1.2643 -2.2810  1.2605
   73SLPC     P 6396   1.417   0.417  10.609  0.5233 -0.2345  0.0924
   73SLPC   O13 6397   1.510   0.492  10.691  0.0259 -0.2013  0.1408
   73SLPC   O14 6398   1.459   0.284  10.557 -0.1532 -0.1325 -0.0536
   73SLPC   O12 6399   1.287   0.402  10.689  0.4662  0.2274  0.0069
   73SLPC   O11 6400   1.381   0.524  10.498  0.2552 -0.2674  0.2908
   73SLPC    C1 6401   1.241   0.559  10.468 -0.0903 -0.2573 -0.7459
   73SLPC    HA 6402   1.188   0.580  10.562  1.6891 -2.7137  0.9371
   73SLPC    HB 6403   1.254   0.655  10.414 -0.2967 -0.7735 -1.7418
   73SLPC    C2 6404   1.161   0.453  10.382 -0.1274 -0.0199  0.1574
   73SLPC    HS 6405   1.141   0.370  10.454 -0.6531  0.3381  0.4248
   73SLPC   O21 6406   1.237   0.421  10.260 -0.4631  0.0724 -0.2600
   73SLPC   C21 6407   1.248   0.292  10.233 -0.5536  0.7004 -0.1306
   73SLPC   O22 6408   1.199   0.200  10.300 -0.8383  0.2720 -0.1515
   73SLPC   C22 6409   1.314   0.269  10.100 -0.4068 -0.2795  0.4954
   73SLPC   H2R 6410   1.265   0.328  10.020 -1.5901 -0.6418  0.9349
   73SLPC   H2S 6411   1.417   0.310  10.106 -0.8695  0.9322  0.4723
   73SLPC    C3 6412   1.016   0.490  10.350  0.7372  0.0568 -0.3996
   73SLPC    HX 6413   1.018   0.568  10.271 -1.9924  1.1565  0.5081
   73SLPC    HY 6414   0.976   0.550  10.434  0.6993  1.1435 -1.1767
   73SLPC   O31 6415   0.926   0.380  10.315 -0.4531  0.1265  0.1512
   73SLPC   C31 6416   0.921   0.352  10.175 -0.3686 -0.3069  0.0393
   73SLPC   O32 6417   0.988   0.410  10.090  0.4190 -0.0005 -0.2419
   73SLPC   C32 6418   0.825   0.239  10.149 -0.0621  0.5235  0.1862
   73SLPC   H2X 6419   0.768   0.205  10.238  1.6213 -1.0556  0.7187
   73SLPC   H2Y 6420   0.881   0.146  10.127  1.0929  1.3833 -0.6017
   73SLPC   C23 6421   1.311   0.116  10.052 -0.2880  0.8029 -0.1092
   73SLPC   H3R 6422   1.213   0.063  10.058  0.3735 -0.5673 -0.8441
   73SLPC   H3S 6423   1.378   0.060  10.120  1.1260  0.4475 -1.7250
   73SLPC   C24 6424   1.349   0.105   9.901  0.3061 -0.6743 -0.5712
   73SLPC   H4R 6425   1.377  -0.001   9.883  0.6198 -0.7695  0.4142
   73SLPC   H4S 6426   1.438   0.169   9.879 -1.7527  2.2612 -1.0451
   73SLPC   C25 6427   1.237   0.140   9.811  0.0851  0.1390  0.5500
   73SLPC   H5R 6428   1.199   0.242   9.833  1.5546  0.7797  0.2944
   73SLPC   H5S 6429   1.149   0.076   9.831  0.5075 -0.6226  0.0173
   73SLPC   C26 6430   1.270   0.134   9.657 -0.4083 -0.0019  0.2827
   73SLPC   H6R 6431   1.304   0.031   9.632 -0.9760  0.2429 -1.6299
   73SLPC   H6S 6432   1.356   0.201   9.636 -1.2379  0.6361 -1.1906
   73SLPC   C27 6433   1.160   0.167   9.562  0.3850  0.5562 -0.0269
   73SLPC   H7R 6434   1.122   0.270   9.578 -0.4036  0.3692 -0.6798
   73SLPC   H7S 6435   1.070   0.115   9.601  1.4632 -0.6824  0.9142
   73SLPC   C28 6436   1.202   0.144   9.414 -0.5555 -0.2259 -0.0761
   73SLPC   H8R 6437   1.244   0.042   9.403  0.4331  0.3521 -2.2736
   73SLPC   H8S 6438   1.281   0.220   9.396 -0.1241 -0.8608 -0.9324
   73SLPC   C29 6439   1.092   0.181   9.319 -0.2209 -0.2066  0.1799
   73SLPC   H9R 6440   1.049   0.281   9.334  1.2885  0.3303  1.1860
   73SLPC  C210 6441   1.063   0.104   9.212  0.3332  0.1074  0.1882
   73SLPC  H10R 6442   0.989   0.145   9.142 -2.1416 -0.1739  2.5104
   73SLPC  C211 6443   1.138  -0.022   9.165  0.1554 -0.6787 -0.6831
   73SLPC  H11R 6444   1.074  -0.090   9.105 -1.4597 -0.6788  0.9502
   73SLPC  H11S 6445   1.172  -0.072   9.258  2.0604  4.0234  1.4910
   73SLPC  C212 6446   1.265   0.015   9.093  0.1121 -0.8193 -0.5291
   73SLPC  H12R 6447   1.348   0.020   9.165 -0.4908  2.2226  0.1259
   73SLPC  C213 6448   1.285   0.050   8.964  0.3768 -0.1656 -0.5150
   73SLPC  H13R 6449   1.384   0.072   8.922  1.5768 -0.5351  1.9073
   73SLPC  C214 6450   1.179   0.064   8.863  0.5777  0.3859 -0.2119
   73SLPC  H14R 6451   1.196   0.156   8.802 -0.8118  1.0587  0.3808
   73SLPC  H14S 6452   1.080   0.097   8.902  0.5528  1.6117 -1.2266
   73SLPC  C215 6453   1.172  -0.043   8.760 -0.1369  0.3603 -0.2498
   73SLPC  H15R 6454   1.072  -0.030   8.714 -0.7358 -1.8691  0.3166
   73SLPC  H15S 6455   1.172  -0.145   8.803  1.3097  0.0611 -0.9045
   73SLPC  C216 6456   1.294  -0.047   8.664  0.1577 -0.2177 -0.3048
   73SLPC  H16R 6457   1.382  -0.080   8.722  0.0013 -1.3141 -0.6725
   73SLPC  H16S 6458   1.314   0.058   8.632 -1.1599 -0.2126 -1.1973
   73SLPC  C217 6459   1.247  -0.138   8.549 -0.1837  0.7942 -0.1504
   73SLPC  H17R 6460   1.161  -0.094   8.494 -0.4920 -1.2847 -1.4521
   73SLPC  H17S 6461   1.220  -0.236   8.596  0.1057  2.5268  4.0872
   73SLPC  C218 6462   1.364  -0.138   8.449  0.0842 -0.0960  0.2843
   73SLPC  H18R 6463   1.373  -0.032   8.417  0.0573  0.2907  1.4842
   73SLPC  H18S 6464   1.352  -0.208   8.364  3.2125 -0.0887 -0.2520
   73SLPC  H18T 6465   1.460  -0.159   8.501  0.5746 -0.0033 -0.5743
   73SLPC   C33 6466   0.729   0.269  10.034  0.4707  0.0129 -0.2553
   73SLPC   H3X 6467   0.688   0.372  10.045  2.5125  0.8744 -0.2260
   73SLPC   H3Y 6468   0.645   0.198  10.052 -0.3816  0.7494 -1.1697
   73SLPC   C34 6469   0.788   0.263   9.890 -0.6911  0.1215 -0.0991
   73SLPC   H4X 6470   0.752   0.169   9.844 -2.3411  0.6907 -0.0207
   73SLPC   H4Y 6471   0.899   0.266   9.895 -0.7408  0.2206  1.4367
   73SLPC   C35 6472   0.732   0.376   9.797 -0.4070 -0.4170 -0.6490
   73SLPC   H5X 6473   0.767   0.479   9.822 -1.3842  0.1370 -1.5044
   73SLPC   H5Y 6474   0.623   0.359   9.806 -0.6887  1.9683  1.5996
   73SLPC   C36 6475   0.773   0.336   9.655 -0.1809 -0.2314 -1.4113
   73SLPC   H6X 6476   0.762   0.228   9.632  1.2108 -0.5455 -0.7503
   73SLPC   H6Y 6477   0.880   0.365   9.644 -0.6397  2.2330  0.0543
   73SLPC   C37 6478   0.684   0.411   9.557  0.2833 -0.6200  0.8001
   73SLPC   H7X 6479   0.702   0.518   9.581  1.2635 -0.6880  0.3773
   73SLPC   H7Y 6480   0.576   0.391   9.575  0.2926 -1.9268 -0.4314
   73SLPC   C38 6481   0.704   0.380   9.407  0.2536  0.2593 -0.7207
   73SLPC   H8X 6482   0.669   0.275   9.397 -0.6295  0.2604  1.7787
   73SLPC   H8Y 6483   0.808   0.393   9.369 -0.2553  0.1484 -2.2064
   73SLPC   C39 6484   0.610   0.466   9.316  0.5984 -0.7039  0.6047
   73SLPC   H9X 6485   0.675   0.553   9.293 -0.3231 -0.3342 -0.6941
   73SLPC   H9Y 6486   0.517   0.501   9.365 -0.4899 -2.3636 -0.1903
   73SLPC  C310 6487   0.571   0.388   9.190 -0.4601  0.6962  0.1034
   73SLPC  H10X 6488   0.510   0.453   9.124  1.8333  0.4215 -2.4984
   73SLPC  H10Y 6489   0.521   0.290   9.207 -0.5348  1.0245  1.9551
   73SLPC  C311 6490   0.694   0.351   9.102  0.0346  0.7446 -0.1013
   73SLPC  H11X 6491   0.741   0.275   9.169 -2.2433 -1.2569 -0.6485
   73SLPC  H11Y 6492   0.754   0.444   9.097  1.4350 -0.2017 -2.9456
   73SLPC  C312 6493   0.660   0.290   8.965  0.4936  0.1265 -0.5220
   73SLPC  H12X 6494   0.639   0.374   8.896 -0.6390  0.6486  0.4184
   73SLPC  H12Y 6495   0.572   0.222   8.969  0.8511 -0.3729 -0.9466
   73SLPC  C313 6496   0.780   0.209   8.907 -0.5410  0.3908  0.3141
   73SLPC  H13X 6497   0.799   0.135   8.988  1.5674  0.0219 -0.4545
   73SLPC  H13Y 6498   0.867   0.275   8.886 -0.5992  0.7234  1.0973
   73SLPC  C314 6499   0.739   0.121   8.787 -0.4943  0.7219  0.9191
   73SLPC  H14X 6500   0.655   0.053   8.813 -0.1641 -0.6956 -1.4753
   73SLPC  H14Y 6501   0.826   0.052   8.777 -0.6327  0.2271  2.7935
   73SLPC  C315 6502   0.710   0.205   8.664  0.2737 -0.7787  0.4244
   73SLPC  H15X 6503   0.807   0.246   8.629  0.7077 -0.2237  2.2031
   73SLPC  H15Y 6504   0.642   0.292   8.677  1.7375  0.2375  1.5513
   73SLPC  C316 6505   0.643   0.136   8.549  0.4780  0.0711  0.1151
   73SLPC  H16X 6506   0.534   0.126   8.569  0.2760 -0.2870 -1.0701
   73SLPC  H16Y 6507   0.687   0.035   8.531  1.1931  0.5451 -0.9054
   73SLPC  C317 6508   0.662   0.204   8.411  0.5767 -0.0890 -0.1917
   73SLPC  H17X 6509   0.687   0.310   8.432  0.7939  0.1720 -1.6831
   73SLPC  H17Y 6510   0.568   0.204   8.351  1.1959  2.6211 -1.3266
   73SLPC  C318 6511   0.774   0.147   8.325 -0.2199  0.2152  0.3691
   73SLPC  H18X 6512   0.786   0.215   8.238  0.3714  0.8709  0.9496
   73SLPC  H18Y 6513   0.755   0.046   8.282  1.1886 -1.1231  2.6773
   73SLPC  H18Z 6514   0.874   0.141   8.373  1.3608  2.6152 -2.2843
   74SLPC     N 6515   2.698   1.271  10.782 -0.0185 -0.1700 -0.8175
   74SLPC   C13 6516   2.566   1.323  10.825  0.2282 -0.1734 -0.1423
   74SLPC  H13A 6517   2.578   1.383  10.915 -0.4996  2.8025 -1.9029
   74SLPC  H13B 6518   2.518   1.370  10.741 -0.8044 -0.0016  0.5233
   74SLPC  H13C 6519   2.490   1.251  10.851 -1.3655  2.0031  1.5819
   74SLPC   C14 6520   2.680   1.158  10.690  0.4310 -0.6280 -0.1096
   74SLPC  H14A 6521   2.630   1.192  10.601 -0.6601  1.2035  1.1294
   74SLPC  H14B 6522   2.776   1.121  10.657 -0.2945 -2.4043 -0.3359
   74SLPC  H14C 6523   2.620   1.077  10.730 -2.3222  0.6285 -1.4153
   74SLPC   C15 6524   2.764   1.202  10.900  0.5671  0.3487  0.1045
   74SLPC  H15A 6525   2.703   1.120  10.935  0.6646  0.8595  1.5044
   74SLPC  H15B 6526   2.867   1.177  10.879  0.5222  0.1651  0.1003
   74SLPC  H15C 6527   2.756   1.260  10.990 -1.6066 -2.5095  1.9294
   74SLPC   C12 6528   2.779   1.377  10.725 -0.6078 -0.0287  0.0397
   74SLPC  H12A 6529   2.778   1.458  10.798 -1.6439  0.1451 -0.1433
   74SLPC  H12B 6530   2.736   1.423  10.637  0.0316 -0.5766 -0.5672
   74SLPC   C11 6531   2.930   1.355  10.699 -0.5052 -0.3530  0.2757
   74SLPC  H11A 6532   2.945   1.254  10.654  1.7655  0.6529 -1.4473
   74SLPC  H11B 6533   2.984   1.339  10.794 -0.3574 -0.6626  0.1390
   74SLPC     P 6534   2.997   1.474  10.485  0.2222  0.0404 -0.3893
   74SLPC   O13 6535   2.938   1.593  10.436  0.0566 -0.3448 -0.0486
   74SLPC   O14 6536   3.130   1.448  10.439 -0.2480 -0.1901  0.1951
   74SLPC   O12 6537   2.983   1.474  10.644  0.5310  0.2843  0.8787
   74SLPC   O11 6538   2.899   1.349  10.440  0.3734 -0.0166  0.2591
   74SLPC    C1 6539   2.908   1.297  10.311 -0.1073  0.2025 -0.5116
   74SLPC    HA 6540   3.005   1.317  10.260 -0.1613  0.7554 -0.4048
   74SLPC    HB 6541   2.901   1.186  10.312  3.7080 -0.2030  2.2577
   74SLPC    C2 6542   2.795   1.353  10.215 -0.1011  0.3738 -0.4927
   74SLPC    HS 6543   2.794   1.288  10.125 -0.0612 -1.1050  0.5359
   74SLPC   O21 6544   2.812   1.492  10.177 -0.3005  0.1555 -0.0209
   74SLPC   C21 6545   2.913   1.499  10.084 -0.1906  0.9562 -0.5358
   74SLPC   O22 6546   2.975   1.402  10.039 -0.4157 -0.1239 -0.4952
   74SLPC   C22 6547   2.945   1.647  10.055 -0.6983  0.3463 -1.1114
   74SLPC   H2R 6548   2.947   1.705  10.150  1.0715 -0.0691 -0.8444
   74SLPC   H2S 6549   3.049   1.663  10.020 -0.0593 -1.3374 -0.1137
   74SLPC    C3 6550   2.650   1.338  10.285  1.2000  0.0971  0.2679
   74SLPC    HX 6551   2.633   1.419  10.360 -0.6492  1.1276 -1.1798
   74SLPC    HY 6552   2.639   1.240  10.335 -0.0840  0.6029  1.0264
   74SLPC   O31 6553   2.539   1.355  10.186 -0.1642 -0.0761  0.1022
   74SLPC   C31 6554   2.462   1.463  10.207 -0.3097  1.0317 -0.1493
   74SLPC   O32 6555   2.488   1.561  10.278  1.2275 -0.2877 -0.0965
   74SLPC   C32 6556   2.335   1.446  10.124  0.2822 -0.0302  0.1641
   74SLPC   H2X 6557   2.276   1.537  10.148  2.8554  1.5740  0.8224
   74SLPC   H2Y 6558   2.275   1.366  10.171  3.2537 -2.7200 -0.2700
   74SLPC   C23 6559   2.835   1.703   9.961  0.3890 -0.8534 -0.7774
   74SLPC   H3R 6560   2.841   1.813   9.949  0.8391 -0.8565 -0.6098
   74SLPC   H3S 6561   2.737   1.684  10.010  0.9665 -0.5784  0.5404
   74SLPC   C24 6562   2.830   1.627   9.827  0.6113  1.3532 -0.1480
   74SLPC   H4R 6563   2.838   1.518   9.842  0.5455  1.6631  2.7464
   74SLPC   H4S 6564   2.928   1.650   9.781  2.0703 -2.4122  0.7610
   74SLPC   C25 6565   2.726   1.683   9.732 -0.7265  0.1009  0.3225
   74SLPC   H5R 6566   2.741   1.793   9.727 -3.0760  0.4899  0.5612
   74SLPC   H5S 6567   2.628   1.647   9.771 -0.9054  1.5295  1.2742
   74SLPC   C26 6568   2.726   1.614   9.594 -0.7610 -0.0858 -0.2719
   74SLPC   H6R 6569   2.711   1.505   9.608  1.5292 -0.4960 -0.7759
   74SLPC   H6S 6570   2.823   1.627   9.542  2.5385  0.6816  5.2579
   74SLPC   C27 6571   2.620   1.676   9.511  0.1357 -0.0629 -0.3303
   74SLPC   H7R 6572   2.656   1.773   9.469 -0.2960 -0.0582 -0.6993
   74SLPC   H7S 6573   2.540   1.726   9.571 -1.3827  0.2368 -2.4998
   74SLPC   C28 6574   2.562   1.580   9.410 -0.3420 -0.3682 -0.8339
   74SLPC   H8R 6575   2.475   1.535   9.464 -0.5267  2.3133  1.3185
   74SLPC   H8S 6576   2.634   1.504   9.373  1.0488  1.6849 -2.5691
   74SLPC   C29 6577   2.500   1.656   9.294  0.1361  0.0555  0.0339
   74SLPC   H9R 6578   2.406   1.709   9.312  0.6342  0.4909  1.5063
   74SLPC  C210 6579   2.545   1.657   9.168  0.2640 -0.2523 -0.4955
   74SLPC  H10R 6580   2.490   1.721   9.097 -0.3957 -1.3310 -1.0042
   74SLPC  C211 6581   2.672   1.593   9.116 -0.1815 -0.4133  0.2134
   74SLPC  H11R 6582   2.644   1.492   9.077  1.3288 -1.4013  1.5383
   74SLPC  H11S 6583   2.745   1.584   9.198 -1.3332  2.3117  1.6605
   74SLPC  C212 6584   2.738   1.688   9.021 -0.0369  0.2771 -0.4008
   74SLPC  H12R 6585   2.810   1.761   9.062  1.4116 -0.2360 -1.8756
   74SLPC  C213 6586   2.748   1.679   8.883  0.1085 -1.0256  0.4486
   74SLPC  H13R 6587   2.800   1.763   8.836 -4.0891  3.2040  2.4902
   74SLPC  C214 6588   2.663   1.593   8.788 -0.3598  0.3092 -0.4526
   74SLPC  H14R 6589   2.691   1.485   8.781 -2.0736 -0.0444 -3.5640
   74SLPC  H14S 6590   2.682   1.631   8.686  0.2422  0.0885 -0.4283
   74SLPC  C215 6591   2.511   1.606   8.801  0.9311 -0.2275 -0.0175
   74SLPC  H15R 6592   2.485   1.587   8.907  0.4067 -1.7412 -0.3810
   74SLPC  H15S 6593   2.466   1.525   8.739  0.3039  0.6438 -0.7351
   74SLPC  C216 6594   2.462   1.741   8.755  0.4461  0.5138 -0.3973
   74SLPC  H16R 6595   2.525   1.821   8.801  0.2409  1.3860 -1.5813
   74SLPC  H16S 6596   2.357   1.762   8.783  0.5896 -1.2187  1.6503
   74SLPC  C217 6597   2.468   1.769   8.597  0.5587  0.0768 -0.2346
   74SLPC  H17R 6598   2.575   1.760   8.568  1.0366 -1.5749  1.7929
   74SLPC  H17S 6599   2.430   1.870   8.573 -1.3858 -0.4901  0.3248
   74SLPC  C218 6600   2.389   1.665   8.515 -0.1466 -0.4709 -0.0837
   74SLPC  H18R 6601   2.412   1.559   8.538  1.3400 -0.6089 -1.9748
   74SLPC  H18S 6602   2.401   1.677   8.406 -0.6594  2.2789  0.0886
   74SLPC  H18T 6603   2.280   1.677   8.534 -0.1189 -1.1410  0.5706
   74SLPC   C33 6604   2.372   1.443   9.977  0.2775 -0.3029 -0.1826
   74SLPC   H3X 6605   2.454   1.512   9.947  1.6837 -1.2875  1.2126
   74SLPC   H3Y 6606   2.283   1.463   9.913  1.0629  1.5044 -0.7900
   74SLPC   C34 6607   2.410   1.304   9.921  0.0741  0.2543  0.5348
   74SLPC   H4X 6608   2.325   1.234   9.939  1.0666 -1.3128 -0.6124
   74SLPC   H4Y 6609   2.507   1.281   9.969  1.2631  0.7405 -1.5414
   74SLPC   C35 6610   2.437   1.308   9.764  0.1227  0.4957  0.7799
   74SLPC   H5X 6611   2.532   1.251   9.751 -1.6424 -2.9541  1.9817
   74SLPC   H5Y 6612   2.456   1.415   9.741  2.3727  0.1090  0.6012
   74SLPC   C36 6613   2.314   1.255   9.684 -0.1880 -1.0531 -0.2536
   74SLPC   H6X 6614   2.224   1.317   9.704 -2.1863 -3.4740 -1.0238
   74SLPC   H6Y 6615   2.297   1.154   9.728 -0.3244  0.2073  2.7608
   74SLPC   C37 6616   2.340   1.252   9.528  0.7166 -0.1400  0.3866
   74SLPC   H7X 6617   2.336   1.357   9.492 -0.1313  0.0289  0.9440
   74SLPC   H7Y 6618   2.249   1.207   9.483 -0.5205 -0.2401  2.8029
   74SLPC   C38 6619   2.471   1.180   9.488 -0.7082 -0.5543  0.1720
   74SLPC   H8X 6620   2.447   1.081   9.533 -1.9934  0.3853  1.6515
   74SLPC   H8Y 6621   2.557   1.229   9.538 -0.7252  0.3714 -0.6728
   74SLPC   C39 6622   2.500   1.163   9.335  0.5309  0.1636  0.5056
   74SLPC   H9X 6623   2.603   1.127   9.314  0.1982 -0.1929 -0.5827
   74SLPC   H9Y 6624   2.488   1.269   9.305 -0.5771  0.0019  0.3479
   74SLPC  C310 6625   2.397   1.087   9.254 -0.1556  0.3960  0.4489
   74SLPC  H10X 6626   2.311   1.157   9.260  1.3763  2.2670  1.4850
   74SLPC  H10Y 6627   2.368   0.991   9.302  0.5699 -0.6869 -1.1419
   74SLPC  C311 6628   2.450   1.067   9.114  0.1397  0.0311  0.1701
   74SLPC  H11X 6629   2.540   1.002   9.119  2.0439  2.4829 -0.3394
   74SLPC  H11Y 6630   2.491   1.168   9.096  1.6281  0.0079  2.8199
   74SLPC  C312 6631   2.359   1.017   9.003 -0.7190  0.2848  0.5447
   74SLPC  H12X 6632   2.257   1.058   9.021 -0.4515  1.0882  0.2908
   74SLPC  H12Y 6633   2.354   0.907   9.018  0.0258  0.2573  0.6490
   74SLPC  C313 6634   2.408   1.049   8.855  0.2269 -0.1335  0.4759
   74SLPC  H13X 6635   2.517   1.027   8.849  1.2403  3.8136  1.4961
   74SLPC  H13Y 6636   2.388   1.157   8.837 -0.0346 -0.2776 -0.1281
   74SLPC  C314 6637   2.336   0.962   8.757 -0.0262  0.6007  0.5414
   74SLPC  H14X 6638   2.230   0.992   8.771 -0.6036 -1.7804  1.8018
   74SLPC  H14Y 6639   2.346   0.856   8.788 -1.0746  0.0111 -1.0059
   74SLPC  C315 6640   2.391   0.965   8.614 -0.6146 -0.5838 -0.1758
   74SLPC  H15X 6641   2.487   0.910   8.612  0.0492  0.5116  0.4353
   74SLPC  H15Y 6642   2.418   1.070   8.588  1.9369 -0.6051  1.9128
   74SLPC  C316 6643   2.294   0.897   8.512  0.5728  0.1183  0.5832
   74SLPC  H16X 6644   2.193   0.944   8.510  0.2607 -0.5349 -1.1108
   74SLPC  H16Y 6645   2.280   0.793   8.549  1.5075 -1.1119 -2.2397
   74SLPC  C317 6646   2.332   0.915   8.365 -0.2654  0.0543  0.2384
   74SLPC  H17X 6647   2.256   0.857   8.309  1.2325 -1.8033  0.0102
   74SLPC  H17Y 6648   2.436   0.875   8.356 -0.3202 -0.3180  1.1798
   74SLPC  C318 6649   2.334   1.061   8.313 -0.3201  0.2215 -0.1536
   74SLPC  H18X 6650   2.420   1.112   8.360  0.7903 -2.0421  0.4027
   74SLPC  H18Y 6651   2.244   1.123   8.336 -2.7992 -3.1837  0.1217
   74SLPC  H18Z 6652   2.346   1.061   8.202  1.0992 -1.0951 -0.0355
   75SLPC     N 6653   4.909   3.150   6.110 -0.8483  0.0509 -0.3959
   75SLPC   C13 6654   4.779   3.092   6.158 -1.3174 -0.6445  0.4192
   75SLPC  H13A 6655   4.728   3.178   6.199  0.6720  0.3721  0.8749
   75SLPC  H13B 6656   4.719   3.052   6.077 -1.6259  1.6537 -0.5634
   75SLPC  H13C 6657   4.800   3.024   6.239  2.1451 -0.2524 -0.0044
   75SLPC   C14 6658   4.880   3.234   5.983 -0.2189  0.3452 -0.4574
   75SLPC  H14A 6659   4.966   3.291   5.950  1.4040 -1.4638  0.4775
   75SLPC  H14B 6660   4.840   3.171   5.906 -3.1554  0.5847  0.7304
   75SLPC  H14C 6661   4.803   3.305   6.008  0.1755 -0.3262  3.3095
   75SLPC   C15 6662   4.999   3.037   6.082 -0.5658  0.4722  0.5494
   75SLPC  H15A 6663   4.971   2.983   5.992 -3.1275 -1.4713  2.3661
   75SLPC  H15B 6664   5.096   3.076   6.055 -0.0658 -1.9622 -1.7037
   75SLPC  H15C 6665   5.021   2.966   6.160  1.7838 -0.6500 -1.0137
   75SLPC   C12 6666   4.964   3.227   6.225 -1.0528  0.4225  0.1094
   75SLPC  H12A 6667   4.879   3.283   6.261 -0.8600  1.7855 -1.4258
   75SLPC  H12B 6668   5.046   3.290   6.194  0.4926 -0.4567  2.1360
   75SLPC   C11 6669   5.023   3.149   6.354  0.3448 -0.0198  0.1042
   75SLPC  H11A 6670   5.071   3.223   6.421  1.2408 -0.1539 -0.3782
   75SLPC  H11B 6671   5.104   3.085   6.313  0.9242 -0.2721  1.5853
   75SLPC     P 6672   4.952   2.959   6.509  0.0594 -0.0696  0.1313
   75SLPC   O13 6673   4.838   2.918   6.596  0.1652  0.7934  0.1748
   75SLPC   O14 6674   5.012   2.857   6.418 -0.1844 -0.5861 -0.4768
   75SLPC   O12 6675   4.916   3.077   6.415 -0.1595 -0.4778  0.0701
   75SLPC   O11 6676   5.061   3.032   6.598 -0.0285  0.2618 -0.7006
   75SLPC    C1 6677   5.184   2.965   6.618  0.8715 -0.1664  0.2326
   75SLPC    HA 6678   5.174   2.865   6.665 -1.0177  0.5225  1.4284
   75SLPC    HB 6679   5.237   2.951   6.522 -1.5938  0.5126 -1.3180
   75SLPC    C2 6680   5.281   3.051   6.701 -0.7550 -0.0213  0.1099
   75SLPC    HS 6681   5.378   2.998   6.692 -1.1234 -0.3989 -2.3739
   75SLPC   O21 6682   5.245   3.057   6.840 -0.1399 -0.6536  0.2957
   75SLPC   C21 6683   5.247   2.939   6.909 -0.0915  0.4726  0.5709
   75SLPC   O22 6684   5.275   2.831   6.866 -0.0193 -1.0609  0.0898
   75SLPC   C22 6685   5.183   2.963   7.053  0.1930 -0.9893  0.4535
   75SLPC   H2R 6686   5.269   3.015   7.102  2.2199 -1.6494 -2.2167
   75SLPC   H2S 6687   5.104   3.041   7.043  2.6254  1.4385 -1.6494
   75SLPC    C3 6688   5.302   3.187   6.649  0.8199 -0.3095  0.2072
   75SLPC    HX 6689   5.201   3.233   6.643  1.1300  0.5767  1.3538
   75SLPC    HY 6690   5.343   3.184   6.546 -0.8541 -0.9539 -0.4766
   75SLPC   O31 6691   5.374   3.279   6.732  0.1220  0.2094 -0.1324
   75SLPC   C31 6692   5.508   3.261   6.725 -0.2550 -0.6682 -0.4785
   75SLPC   O32 6693   5.568   3.179   6.656 -0.1238 -0.3444  0.3784
   75SLPC   C32 6694   5.562   3.355   6.837  0.3858 -1.0035 -0.0618
   75SLPC   H2X 6695   5.490   3.359   6.921  0.3864 -0.8145 -0.0690
   75SLPC   H2Y 6696   5.568   3.456   6.792 -1.5197 -0.4898  0.7351
   75SLPC   C23 6697   5.143   2.834   7.113 -0.3570 -0.0697 -0.2079
   75SLPC   H3R 6698   5.231   2.766   7.110 -0.0369  0.3301  0.0797
   75SLPC   H3S 6699   5.060   2.782   7.061  0.5497 -0.1684 -1.6145
   75SLPC   C24 6700   5.102   2.847   7.258 -0.4607 -0.3483  0.7227
   75SLPC   H4R 6701   5.090   2.744   7.298  0.9391 -1.6790 -2.0228
   75SLPC   H4S 6702   5.004   2.899   7.264  0.0048  0.4681  1.3795
   75SLPC   C25 6703   5.194   2.915   7.356 -0.2765  0.0037 -0.5445
   75SLPC   H5R 6704   5.226   3.012   7.313  3.2708 -0.0348  1.5809
   75SLPC   H5S 6705   5.291   2.864   7.369  1.4968  3.1796 -0.1968
   75SLPC   C26 6706   5.132   2.941   7.494 -0.4989  0.1311  0.3879
   75SLPC   H6R 6707   5.101   2.840   7.526 -0.6097  0.2150  0.5448
   75SLPC   H6S 6708   5.039   2.999   7.479 -0.3792  0.2974  0.2795
   75SLPC   C27 6709   5.219   3.014   7.597 -0.4892  0.4912  0.5713
   75SLPC   H7R 6710   5.264   3.105   7.552  0.5222  0.2861  1.1317
   75SLPC   H7S 6711   5.301   2.944   7.626  0.9332  1.0713 -1.7391
   75SLPC   C28 6712   5.154   3.060   7.734  0.1199 -0.7432 -0.5596
   75SLPC   H8R 6713   5.093   3.145   7.696  0.4304  0.3124  1.1835
   75SLPC   H8S 6714   5.233   3.100   7.801  0.5973 -0.6661 -1.1625
   75SLPC   C29 6715   5.074   2.946   7.795 -0.0619 -0.3888  0.5012
   75SLPC   H9R 6716   4.999   2.904   7.726  1.0345 -0.8868 -0.4233
   75SLPC  C210 6717   5.091   2.891   7.921 -0.4520  0.4528 -0.6718
   75SLPC  H10R 6718   5.027   2.810   7.958 -1.0060  1.5045  0.7907
   75SLPC  C211 6719   5.186   2.938   8.032 -0.3756  0.3985  0.7431
   75SLPC  H11R 6720   5.134   2.918   8.128  0.7299 -0.9929  1.0884
   75SLPC  H11S 6721   5.206   3.047   8.024 -0.8772  0.4127 -0.5893
   75SLPC  C212 6722   5.314   2.863   8.034  1.0674  0.4220 -0.6066
   75SLPC  H12R 6723   5.318   2.773   7.971  0.1576 -1.1184  1.4240
   75SLPC  C213 6724   5.407   2.886   8.130  0.6112  0.4157 -0.6891
   75SLPC  H13R 6725   5.497   2.824   8.130 -0.0426 -0.6745  1.8439
   75SLPC  C214 6726   5.406   2.991   8.242  0.1596  0.8677  0.1110
   75SLPC  H14R 6727   5.318   3.058   8.252 -0.9809 -0.3104 -1.4041
   75SLPC  H14S 6728   5.498   3.051   8.223  0.8182  0.3158  1.4144
   75SLPC  C215 6729   5.442   2.931   8.381 -0.6477 -0.5550 -0.0750
   75SLPC  H15R 6730   5.456   3.022   8.443 -0.2132  0.2915 -1.3832
   75SLPC  H15S 6731   5.543   2.884   8.377 -0.0164  0.8256 -1.1583
   75SLPC  C216 6732   5.333   2.843   8.442  0.1525  0.5464  0.0112
   75SLPC  H16R 6733   5.326   2.758   8.371 -0.3133 -0.5645  1.3397
   75SLPC  H16S 6734   5.241   2.905   8.441 -0.5368 -0.4630  0.0440
   75SLPC  C217 6735   5.356   2.810   8.586  0.5169  0.9076 -0.5302
   75SLPC  H17R 6736   5.252   2.782   8.617  1.1919 -0.8160  0.3300
   75SLPC  H17S 6737   5.379   2.905   8.639  0.8620 -0.0933  1.1847
   75SLPC  C218 6738   5.448   2.686   8.604 -0.2343 -0.1855  0.1276
   75SLPC  H18R 6739   5.412   2.612   8.530  0.7553  0.5279 -1.1079
   75SLPC  H18S 6740   5.446   2.648   8.708  0.3247 -1.0160 -0.1586
   75SLPC  H18T 6741   5.552   2.716   8.580  0.4562 -3.0576 -0.7947
   75SLPC   C33 6742   5.693   3.299   6.897 -0.1348 -0.5176  0.3481
   75SLPC   H3X 6743   5.759   3.252   6.821  0.0708  1.2216 -0.6101
   75SLPC   H3Y 6744   5.750   3.383   6.943 -0.6951  0.1389 -0.1452
   75SLPC   C34 6745   5.667   3.186   7.000 -0.0980  0.1357  0.2746
   75SLPC   H4X 6746   5.641   3.089   6.952 -0.0441  0.2642 -0.0160
   75SLPC   H4Y 6747   5.571   3.204   7.053 -0.3467  2.6764 -0.8844
   75SLPC   C35 6748   5.786   3.167   7.099  0.5631 -0.0589 -1.1743
   75SLPC   H5X 6749   5.887   3.187   7.058  1.9492  0.4443  2.1450
   75SLPC   H5Y 6750   5.779   3.063   7.137 -0.3230  0.4211  0.0473
   75SLPC   C36 6751   5.771   3.256   7.225  0.5777 -0.3827  0.6502
   75SLPC   H6X 6752   5.668   3.231   7.256  0.5277 -0.6169  0.3052
   75SLPC   H6Y 6753   5.785   3.364   7.202  0.2403 -0.8906 -2.3060
   75SLPC   C37 6754   5.870   3.216   7.334 -0.4087  0.1027  0.5722
   75SLPC   H7X 6755   5.977   3.225   7.305  0.0018 -0.8829  1.6766
   75SLPC   H7Y 6756   5.867   3.106   7.346  2.7433 -0.1996 -0.3477
   75SLPC   C38 6757   5.846   3.281   7.470 -0.2492  0.0054 -0.3939
   75SLPC   H8X 6758   5.744   3.266   7.513  0.0922  1.6909  1.1693
   75SLPC   H8Y 6759   5.873   3.389   7.463  1.0504 -0.3360 -0.8615
   75SLPC   C39 6760   5.938   3.217   7.567  0.4464  0.3110 -1.0032
   75SLPC   H9X 6761   6.044   3.231   7.536  0.7458 -0.0133 -0.1519
   75SLPC   H9Y 6762   5.911   3.110   7.577  1.2312  0.1989  0.0991
   75SLPC  C310 6763   5.934   3.285   7.697  0.0468 -0.0470  0.2139
   75SLPC  H10X 6764   5.831   3.293   7.739 -0.5067  2.1523 -1.4106
   75SLPC  H10Y 6765   5.967   3.389   7.677 -0.0591  0.2701  1.5506
   75SLPC  C311 6766   6.023   3.217   7.802 -0.5750 -0.2683 -0.3504
   75SLPC  H11X 6767   6.129   3.214   7.770  0.3100  1.3227  2.1502
   75SLPC  H11Y 6768   5.994   3.110   7.810 -2.4297  0.2824  1.1475
   75SLPC  C312 6769   6.027   3.288   7.944 -0.4358  0.2016 -0.0499
   75SLPC  H12X 6770   5.921   3.296   7.978  0.1878 -0.4178  2.2650
   75SLPC  H12Y 6771   6.071   3.390   7.936  0.4455 -0.1169  0.5500
   75SLPC  C313 6772   6.095   3.203   8.056 -0.5753 -0.3854 -0.1759
   75SLPC  H13X 6773   6.202   3.195   8.026 -1.0142  0.0928 -1.9623
   75SLPC  H13Y 6774   6.041   3.106   8.056 -2.7813  0.7388  1.9532
   75SLPC  C314 6775   6.068   3.261   8.196 -0.9053  0.6156 -0.6292
   75SLPC  H14X 6776   5.966   3.233   8.227  0.2555 -1.2711  1.8100
   75SLPC  H14Y 6777   6.066   3.372   8.197 -1.5120  0.6060 -0.0779
   75SLPC  C315 6778   6.167   3.196   8.296 -0.1236 -0.4756 -0.8398
   75SLPC  H15X 6779   6.153   3.088   8.273  0.0348 -0.7464  0.2389
   75SLPC  H15Y 6780   6.120   3.214   8.395  0.6135  2.0996 -0.8903
   75SLPC  C316 6781   6.316   3.236   8.268 -0.2367  0.3913 -0.3732
   75SLPC  H16X 6782   6.322   3.345   8.249 -0.8862  0.7160  1.1453
   75SLPC  H16Y 6783   6.347   3.192   8.171 -0.3939 -1.1680  0.2445
   75SLPC  C317 6784   6.417   3.194   8.381  0.4997  0.5055  0.0570
   75SLPC  H17X 6785   6.412   3.084   8.400  0.9742  0.4760  0.0232
   75SLPC  H17Y 6786   6.387   3.241   8.477  1.2323 -0.8337  0.9837
   75SLPC  C318 6787   6.557   3.242   8.358  0.0224  0.5111  0.0760
   75SLPC  H18X 6788   6.554   3.337   8.301 -0.2964 -0.5475 -1.7394
   75SLPC  H18Y 6789   6.601   3.171   8.285  0.7597  1.9957 -0.9485
   75SLPC  H18Z 6790   6.627   3.248   8.444  0.9599  1.9756 -0.7449
   76SLPC     N 6791   1.518   1.725   5.748 -0.8102 -0.3948 -0.0576
   76SLPC   C13 6792   1.474   1.836   5.659  1.2748  1.0200 -1.0556
   76SLPC  H13A 6793   1.497   1.810   5.557  0.7551  1.0158 -1.1742
   76SLPC  H13B 6794   1.368   1.852   5.671  1.3858  1.5698 -0.7818
   76SLPC  H13C 6795   1.531   1.926   5.681  0.3577  1.1541  0.9633
   76SLPC   C14 6796   1.632   1.649   5.674  0.4905 -0.0465 -1.0662
   76SLPC  H14A 6797   1.708   1.722   5.653 -1.5813  2.8642  0.6991
   76SLPC  H14B 6798   1.658   1.566   5.738 -2.4340 -0.6023 -0.4471
   76SLPC  H14C 6799   1.599   1.602   5.583 -3.8426 -2.9408  1.6097
   76SLPC   C15 6800   1.394   1.641   5.783  0.1601 -0.6330 -0.0729
   76SLPC  H15A 6801   1.436   1.546   5.813  1.1586 -1.7857 -4.4346
   76SLPC  H15B 6802   1.340   1.685   5.865  2.1589 -0.2779  1.1251
   76SLPC  H15C 6803   1.332   1.627   5.696  1.3175 -0.3617 -0.9670
   76SLPC   C12 6804   1.560   1.799   5.876 -0.2730 -0.1253 -0.0747
   76SLPC  H12A 6805   1.650   1.857   5.857  0.3146 -1.0499 -0.1806
   76SLPC  H12B 6806   1.583   1.724   5.951 -1.0762 -2.8320 -2.3847
   76SLPC   C11 6807   1.460   1.895   5.945  0.1775 -0.3464 -0.6842
   76SLPC  H11A 6808   1.406   1.961   5.874  1.4725  3.3290  1.4665
   76SLPC  H11B 6809   1.517   1.970   6.003 -1.9611  0.5105  0.4010
   76SLPC     P 6810   1.392   1.736   6.137 -0.0975 -0.3753  0.3336
   76SLPC   O13 6811   1.344   1.823   6.251 -0.3668  0.1986  0.1338
   76SLPC   O14 6812   1.327   1.609   6.116  0.4273  0.1741 -0.0499
   76SLPC   O12 6813   1.359   1.822   6.013  0.0611 -0.2463 -0.0883
   76SLPC   O11 6814   1.545   1.713   6.139  0.3460  0.2431  0.3278
   76SLPC    C1 6815   1.605   1.603   6.201  0.1998  0.3043 -0.3591
   76SLPC    HA 6816   1.543   1.512   6.216 -1.1277  1.1248 -0.6830
   76SLPC    HB 6817   1.686   1.571   6.132  0.4788 -1.7127  0.8160
   76SLPC    C2 6818   1.666   1.634   6.342 -0.3150 -0.7598 -0.4875
   76SLPC    HS 6819   1.708   1.538   6.378  1.7999  0.5465  0.7660
   76SLPC   O21 6820   1.569   1.686   6.425  0.2916 -0.7813  0.0783
   76SLPC   C21 6821   1.493   1.604   6.492  1.1269 -0.2152  0.1273
   76SLPC   O22 6822   1.499   1.484   6.479  0.2738 -0.0260  0.6177
   76SLPC   C22 6823   1.403   1.676   6.584 -0.0371 -0.0634 -0.1863
   76SLPC   H2R 6824   1.439   1.777   6.615 -1.6425  0.2665  0.7056
   76SLPC   H2S 6825   1.308   1.695   6.531 -1.1787 -3.7394  0.3095
   76SLPC    C3 6826   1.796   1.729   6.330  0.1720 -1.1772 -0.4776
   76SLPC    HX 6827   1.761   1.822   6.279  0.5907 -0.1285  1.0615
   76SLPC    HY 6828   1.855   1.675   6.253 -0.8595 -4.0313  0.5981
   76SLPC   O31 6829   1.864   1.746   6.456 -0.1371 -0.1274 -0.3220
   76SLPC   C31 6830   1.816   1.833   6.540  0.5795 -0.6025  0.6096
   76SLPC   O32 6831   1.720   1.913   6.519  0.2630  0.5638 -0.1258
   76SLPC   C32 6832   1.893   1.820   6.667  0.0118 -0.4060  0.9642
   76SLPC   H2X 6833   1.984   1.879   6.642 -0.1533 -1.1168 -1.6403
   76SLPC   H2Y 6834   1.911   1.711   6.675 -1.1359 -0.6777  0.0788
   76SLPC   C23 6835   1.371   1.588   6.709 -0.6822  0.0907  0.3178
   76SLPC   H3R 6836   1.447   1.590   6.790  1.1527 -0.1051 -1.3309
   76SLPC   H3S 6837   1.378   1.481   6.681  1.2741  0.4059 -0.5399
   76SLPC   C24 6838   1.231   1.609   6.774  0.6526 -0.1709 -0.0269
   76SLPC   H4R 6839   1.154   1.593   6.695 -0.8548 -0.8256  1.5072
   76SLPC   H4S 6840   1.221   1.704   6.830  2.2045  0.5599 -0.9371
   76SLPC   C25 6841   1.203   1.509   6.893 -0.6550 -0.8428  0.1258
   76SLPC   H5R 6842   1.204   1.403   6.857  0.3469 -0.2457 -1.7768
   76SLPC   H5S 6843   1.103   1.534   6.935 -0.4799  0.6173 -0.2716
   76SLPC   C26 6844   1.302   1.531   7.011 -0.4082 -0.6565 -0.3842
   76SLPC   H6R 6845   1.307   1.640   7.033  1.6408 -0.9628  0.9415
   76SLPC   H6S 6846   1.403   1.493   6.981  0.3910  0.9076  0.2132
   76SLPC   C27 6847   1.242   1.472   7.138 -0.6275  0.7887 -0.0299
   76SLPC   H7R 6848   1.181   1.384   7.109 -0.0317 -0.5217  2.4234
   76SLPC   H7S 6849   1.167   1.540   7.184 -1.2508  0.6551 -0.8135
   76SLPC   C28 6850   1.355   1.434   7.235  0.6448  0.1956 -0.3168
   76SLPC   H8R 6851   1.389   1.332   7.205 -0.3076 -0.5501  1.0395
   76SLPC   H8S 6852   1.433   1.512   7.242  3.4267 -2.4323  0.2944
   76SLPC   C29 6853   1.295   1.419   7.373  0.2712 -0.2937  0.3118
   76SLPC   H9R 6854   1.274   1.314   7.401 -2.0132 -0.4678 -1.7337
   76SLPC  C210 6855   1.273   1.517   7.456 -0.1785  0.0602  0.0123
   76SLPC  H10R 6856   1.228   1.493   7.554 -0.1051 -2.3411 -0.4829
   76SLPC  C211 6857   1.297   1.665   7.426  0.4619  0.4791  0.2173
   76SLPC  H11R 6858   1.304   1.694   7.319 -0.1600  0.7347  0.2479
   76SLPC  H11S 6859   1.398   1.683   7.470  0.3730 -2.2127  1.7470
   76SLPC  C212 6860   1.206   1.765   7.488 -0.0867  1.1430  0.4183
   76SLPC  H12R 6861   1.152   1.736   7.579  0.3595  0.8603  0.5920
   76SLPC  C213 6862   1.183   1.892   7.441 -0.2686  0.0252 -0.6228
   76SLPC  H13R 6863   1.110   1.949   7.500 -0.7386 -3.2987  2.3361
   76SLPC  C214 6864   1.247   1.962   7.314 -0.2049  0.6617 -0.3180
   76SLPC  H14R 6865   1.336   1.900   7.292 -1.0457 -0.9486  0.6228
   76SLPC  H14S 6866   1.283   2.063   7.344 -1.9645  1.1207  0.3578
   76SLPC  C215 6867   1.159   1.956   7.193  0.9758 -0.4084 -0.2103
   76SLPC  H15R 6868   1.082   2.035   7.200  0.6655 -0.5172 -1.9984
   76SLPC  H15S 6869   1.104   1.860   7.186  1.2345 -0.5508 -0.3129
   76SLPC  C216 6870   1.240   1.965   7.061  0.1385 -0.1871 -0.0334
   76SLPC  H16R 6871   1.303   1.874   7.046  0.4620  0.2801 -1.7569
   76SLPC  H16S 6872   1.309   2.052   7.059  0.9135 -0.5830  3.4321
   76SLPC  C217 6873   1.162   1.978   6.930 -0.1657  0.5541 -1.1679
   76SLPC  H17R 6874   1.097   2.068   6.923 -1.3460 -0.0908  0.8074
   76SLPC  H17S 6875   1.088   1.897   6.912 -2.0910  2.0246 -0.2218
   76SLPC  C218 6876   1.276   1.988   6.818 -0.3381 -0.7261 -0.2007
   76SLPC  H18R 6877   1.208   2.019   6.736 -0.3770  0.9629  0.4228
   76SLPC  H18S 6878   1.326   1.890   6.807  1.0767 -0.3694  2.2720
   76SLPC  H18T 6879   1.351   2.066   6.840  0.2798 -1.8128  1.8817
   76SLPC   C33 6880   1.820   1.862   6.792 -0.6692 -0.2047  0.3098
   76SLPC   H3X 6881   1.792   1.970   6.783  0.1293  0.0997  1.3130
   76SLPC   H3Y 6882   1.899   1.854   6.870 -0.2373  1.4464  0.0802
   76SLPC   C34 6883   1.715   1.762   6.844 -0.2780 -0.1143 -0.3894
   76SLPC   H4X 6884   1.774   1.669   6.857 -0.8692 -0.5159 -0.5242
   76SLPC   H4Y 6885   1.631   1.759   6.771 -1.1704  0.5449  0.5621
   76SLPC   C35 6886   1.660   1.802   6.983  1.0781  0.4629 -0.2904
   76SLPC   H5X 6887   1.564   1.748   6.992  1.3102  0.3580  1.8645
   76SLPC   H5Y 6888   1.637   1.911   6.986  0.3241  0.3042 -0.2094
   76SLPC   C36 6889   1.745   1.754   7.103 -0.1461 -0.2726  0.2097
   76SLPC   H6X 6890   1.848   1.794   7.107 -0.7397  1.2096  1.7424
   76SLPC   H6Y 6891   1.749   1.643   7.101 -0.1076 -0.2638 -0.5639
   76SLPC   C37 6892   1.669   1.771   7.242 -0.0372  0.0611  0.0331
   76SLPC   H7X 6893   1.587   1.696   7.245  0.2702 -0.2496  0.8881
   76SLPC   H7Y 6894   1.632   1.876   7.237 -1.2991 -0.4239 -2.0664
   76SLPC   C38 6895   1.754   1.754   7.370  0.2405  0.3789 -0.2606
   76SLPC   H8X 6896   1.837   1.828   7.369  0.3586  0.2519 -0.0927
   76SLPC   H8Y 6897   1.801   1.653   7.364 -1.1326 -0.2072 -1.7686
   76SLPC   C39 6898   1.676   1.771   7.501  0.1915 -1.2427 -0.5642
   76SLPC   H9X 6899   1.585   1.707   7.505  0.7672 -2.0258  0.6335
   76SLPC   H9Y 6900   1.629   1.871   7.508 -1.4658 -2.0699  0.8667
   76SLPC  C310 6901   1.755   1.757   7.630  0.1673 -0.2057  0.7744
   76SLPC  H10X 6902   1.830   1.838   7.643  4.2523 -3.7394  1.8222
   76SLPC  H10Y 6903   1.824   1.671   7.612  2.9603  2.0947 -0.3557
   76SLPC  C311 6904   1.679   1.728   7.764 -0.4522 -0.1737 -0.3315
   76SLPC  H11X 6905   1.634   1.626   7.769  0.0305 -0.3473  0.8884
   76SLPC  H11Y 6906   1.594   1.794   7.793  0.1812  1.0668 -1.2492
   76SLPC  C312 6907   1.777   1.738   7.883  0.3980 -0.4599  0.5593
   76SLPC  H12X 6908   1.818   1.840   7.898 -0.0463 -0.3999  1.4033
   76SLPC  H12Y 6909   1.864   1.673   7.859 -0.8571 -1.5250 -1.4575
   76SLPC  C313 6910   1.712   1.694   8.011  0.1104 -0.7723  0.3655
   76SLPC  H13X 6911   1.700   1.585   7.994 -0.2672 -1.0135  2.0196
   76SLPC  H13Y 6912   1.609   1.733   8.022  0.9301  1.9963 -0.8832
   76SLPC  C314 6913   1.797   1.723   8.133 -0.8029 -0.6422 -0.4178
   76SLPC  H14X 6914   1.836   1.827   8.127 -0.5197 -0.6452  0.9159
   76SLPC  H14Y 6915   1.882   1.653   8.126 -0.3803 -0.3175  0.9880
   76SLPC  C315 6916   1.709   1.693   8.261  0.2446  0.1708  0.4931
   76SLPC  H15X 6917   1.687   1.584   8.263  0.6462  0.0422 -0.8351
   76SLPC  H15Y 6918   1.613   1.746   8.247 -0.1807 -0.6612  0.1667
   76SLPC  C316 6919   1.789   1.722   8.383 -0.4315 -0.2852 -0.4246
   76SLPC  H16X 6920   1.778   1.833   8.392  1.7036 -0.1587  1.5919
   76SLPC  H16Y 6921   1.892   1.690   8.356  0.0819 -0.1049  1.1774
   76SLPC  C317 6922   1.727   1.660   8.505  0.3226  0.0140 -0.9826
   76SLPC  H17X 6923   1.710   1.551   8.492 -2.1777  0.1199  0.8089
   76SLPC  H17Y 6924   1.631   1.715   8.510  1.0784  1.5253 -2.0979
   76SLPC  C318 6925   1.799   1.676   8.636  0.2605  0.2304 -0.1208
   76SLPC  H18X 6926   1.842   1.779   8.633 -1.4983  1.0248  0.7325
   76SLPC  H18Y 6927   1.872   1.595   8.659 -0.6467 -0.3456  0.8118
   76SLPC  H18Z 6928   1.735   1.674   8.726  1.3904 -2.0695  0.7107
   77SLPC     N 6929   3.197   1.395   6.179  0.1266  0.0510 -0.5154
   77SLPC   C13 6930   3.300   1.330   6.088  0.1461  0.0303  0.0302
   77SLPC  H13A 6931   3.243   1.291   6.005 -2.8613  2.3808  0.7691
   77SLPC  H13B 6932   3.380   1.399   6.064 -0.4477  0.6918 -0.1048
   77SLPC  H13C 6933   3.355   1.246   6.126  0.8562 -0.0636 -1.1584
   77SLPC   C14 6934   3.101   1.284   6.216 -0.4759 -0.5087  0.3282
   77SLPC  H14A 6935   3.080   1.235   6.122  2.6054  0.5139 -1.0239
   77SLPC  H14B 6936   3.142   1.212   6.286 -0.6765 -2.1381 -1.1435
   77SLPC  H14C 6937   3.018   1.330   6.267  1.0363  2.4732  0.3057
   77SLPC   C15 6938   3.116   1.497   6.104 -0.6742 -0.4257  0.2307
   77SLPC  H15A 6939   3.170   1.591   6.103 -1.9250  0.3166  0.6860
   77SLPC  H15B 6940   3.102   1.471   6.001 -1.2714 -0.3282  0.2821
   77SLPC  H15C 6941   3.013   1.513   6.132 -0.7375  1.2836 -0.8161
   77SLPC   C12 6942   3.260   1.450   6.304 -0.2059  0.2642 -0.4537
   77SLPC  H12A 6943   3.180   1.472   6.373 -1.4530  0.1234 -1.8110
   77SLPC  H12B 6944   3.305   1.546   6.284 -0.8254  0.8407  0.7966
   77SLPC   C11 6945   3.355   1.348   6.372 -0.2414 -0.2829 -0.1850
   77SLPC  H11A 6946   3.413   1.403   6.449  1.6210  1.0137 -2.3822
   77SLPC  H11B 6947   3.425   1.318   6.291 -3.3171  0.7186 -3.4549
   77SLPC     P 6948   3.355   1.087   6.404  0.0607 -0.2539 -0.0546
   77SLPC   O13 6949   3.287   0.988   6.490 -0.0682 -0.4065 -0.0085
   77SLPC   O14 6950   3.366   1.055   6.262  0.4281  0.0135  0.3075
   77SLPC   O12 6951   3.290   1.235   6.423  0.2298 -0.1115 -0.4036
   77SLPC   O11 6952   3.501   1.105   6.466 -0.4853  0.8787  1.3664
   77SLPC    C1 6953   3.524   1.178   6.587  0.1001 -0.5379  0.5450
   77SLPC    HA 6954   3.599   1.256   6.561 -1.1519  0.2899 -0.6939
   77SLPC    HB 6955   3.438   1.230   6.636  2.1831  2.1600  1.6247
   77SLPC    C2 6956   3.589   1.087   6.699  0.3437  1.0834  0.5818
   77SLPC    HS 6957   3.518   1.002   6.710  1.3701  0.1007 -0.2201
   77SLPC   O21 6958   3.586   1.152   6.821 -0.0380  0.0483  0.0487
   77SLPC   C21 6959   3.676   1.246   6.846 -0.6582 -0.0173  0.3409
   77SLPC   O22 6960   3.760   1.290   6.774  0.3004 -1.1803  0.1194
   77SLPC   C22 6961   3.645   1.302   6.981 -0.3486  0.2619 -0.1679
   77SLPC   H2R 6962   3.644   1.412   6.970  1.2709  0.2023 -1.2130
   77SLPC   H2S 6963   3.546   1.267   7.017  0.7066 -0.1775  2.5872
   77SLPC    C3 6964   3.728   1.027   6.663  1.0590 -0.1907  0.7491
   77SLPC    HX 6965   3.805   1.103   6.635  1.3618 -1.2365 -1.4840
   77SLPC    HY 6966   3.728   0.966   6.570  0.1991  0.6700  0.1647
   77SLPC   O31 6967   3.778   0.954   6.777 -0.1663  0.2626  0.6991
   77SLPC   C31 6968   3.754   0.823   6.774  0.2136 -0.2507 -0.1517
   77SLPC   O32 6969   3.683   0.765   6.697  0.2436 -0.0331  0.5936
   77SLPC   C32 6970   3.841   0.766   6.888  0.1262 -0.3340 -0.0335
   77SLPC   H2X 6971   3.810   0.810   6.985  0.9260  0.2311 -0.0157
   77SLPC   H2Y 6972   3.946   0.796   6.865 -0.7682  2.2820 -1.0955
   77SLPC   C23 6973   3.746   1.249   7.083 -0.3398 -0.6641 -0.7832
   77SLPC   H3R 6974   3.751   1.328   7.162 -0.0518  0.7230 -2.1336
   77SLPC   H3S 6975   3.847   1.229   7.041  0.1615 -0.2623  0.1894
   77SLPC   C24 6976   3.716   1.117   7.160 -0.2990  0.4278 -0.0166
   77SLPC   H4R 6977   3.703   1.034   7.087  0.6297  0.6994 -0.5058
   77SLPC   H4S 6978   3.613   1.128   7.202 -0.4510 -0.4959 -0.1125
   77SLPC   C25 6979   3.819   1.088   7.275 -0.0436  0.4562 -0.2735
   77SLPC   H5R 6980   3.766   1.028   7.352 -1.8021  1.4182 -0.6754
   77SLPC   H5S 6981   3.841   1.189   7.316 -1.1250  0.7186 -0.2868
   77SLPC   C26 6982   3.959   1.036   7.230 -0.8955  0.1271 -0.4804
   77SLPC   H6R 6983   3.975   1.087   7.132  1.2708  0.6180  0.0843
   77SLPC   H6S 6984   3.962   0.927   7.207  0.3239  0.3834 -1.6664
   77SLPC   C27 6985   4.076   1.072   7.320  0.1157 -0.0680  0.1841
   77SLPC   H7R 6986   4.107   1.178   7.308  2.6158 -1.0736 -3.8210
   77SLPC   H7S 6987   4.175   1.033   7.288  0.0588  1.2263 -1.6938
   77SLPC   C28 6988   4.057   1.040   7.465 -0.4358  0.1860 -1.1023
   77SLPC   H8R 6989   3.971   1.105   7.490 -0.4006 -0.6337  1.4194
   77SLPC   H8S 6990   4.137   1.081   7.531 -0.2033 -1.6495 -0.1863
   77SLPC   C29 6991   4.028   0.898   7.494 -0.6575  0.0503 -0.0409
   77SLPC   H9R 6992   3.951   0.856   7.428 -0.4942 -4.2302  2.1413
   77SLPC  C210 6993   4.087   0.823   7.587  0.4527 -0.4188  0.3994
   77SLPC  H10R 6994   4.046   0.723   7.605  0.6724 -1.0184 -2.1213
   77SLPC  C211 6995   4.184   0.889   7.682  0.1565  0.6235  0.2650
   77SLPC  H11R 6996   4.118   0.958   7.739 -1.2590 -1.0531  0.7612
   77SLPC  H11S 6997   4.266   0.944   7.632 -0.4807  1.3466 -0.0066
   77SLPC  C212 6998   4.246   0.782   7.769 -0.4181 -0.0096 -0.7263
   77SLPC  H12R 6999   4.303   0.698   7.727 -0.8098 -0.3870 -0.5100
   77SLPC  C213 7000   4.254   0.791   7.905  0.1584  0.5118 -0.0655
   77SLPC  H13R 7001   4.308   0.713   7.961  0.6973  1.1737  0.3470
   77SLPC  C214 7002   4.200   0.906   7.987  0.2362  0.0824 -0.0545
   77SLPC  H14R 7003   4.197   0.876   8.094  0.2015  0.4987  0.0587
   77SLPC  H14S 7004   4.099   0.935   7.953  1.1908  1.6328 -1.7197
   77SLPC  C215 7005   4.289   1.029   7.981  0.0279 -0.5133  0.1441
   77SLPC  H15R 7006   4.252   1.096   8.062 -1.6717 -1.3175  0.0669
   77SLPC  H15S 7007   4.289   1.085   7.885 -0.4446  0.9724  0.9698
   77SLPC  C216 7008   4.436   1.001   8.024 -0.9220 -0.5918  0.7428
   77SLPC  H16R 7009   4.493   0.954   7.941 -1.3949 -0.6348  0.4381
   77SLPC  H16S 7010   4.434   0.937   8.114 -0.3072  0.6035  1.6389
   77SLPC  C217 7011   4.509   1.133   8.070 -0.4749 -0.3964 -0.1998
   77SLPC  H17R 7012   4.449   1.183   8.149 -0.2806  1.0280 -0.9235
   77SLPC  H17S 7013   4.511   1.205   7.985 -1.8604  0.6706  0.6213
   77SLPC  C218 7014   4.649   1.103   8.111 -0.4509  0.0750  0.1261
   77SLPC  H18R 7015   4.645   1.032   8.197  0.8896  2.2705  2.1161
   77SLPC  H18S 7016   4.703   1.188   8.158  0.3195 -1.9597  3.2359
   77SLPC  H18T 7017   4.706   1.047   8.033 -1.1406  1.0932 -1.1410
   77SLPC   C33 7018   3.828   0.620   6.886  1.3861  0.4182  0.0951
   77SLPC   H3X 7019   3.869   0.579   6.791 -1.4485 -0.8123 -0.6991
   77SLPC   H3Y 7020   3.721   0.598   6.906  0.6309  2.4975 -1.2363
   77SLPC   C34 7021   3.908   0.560   7.011 -0.0385 -0.0776 -0.0065
   77SLPC   H4X 7022   3.876   0.607   7.106 -2.5658  0.5214 -1.0674
   77SLPC   H4Y 7023   4.014   0.585   6.989 -0.3862  0.5656 -1.0349
   77SLPC   C35 7024   3.881   0.404   7.024  0.2313 -0.7056  0.2875
   77SLPC   H5X 7025   3.871   0.364   6.921 -0.5275  0.2486 -0.0353
   77SLPC   H5Y 7026   3.789   0.380   7.083  0.9302  0.2542  1.8278
   77SLPC   C36 7027   3.993   0.333   7.097  0.0818  0.3992  0.6025
   77SLPC   H6X 7028   4.091   0.384   7.087 -0.6113  1.4697 -1.1610
   77SLPC   H6Y 7029   4.001   0.234   7.046 -0.4431 -0.6499  2.4612
   77SLPC   C37 7030   3.959   0.317   7.246 -0.4730 -0.7385  0.2917
   77SLPC   H7X 7031   4.041   0.258   7.292  0.2932 -0.0406 -0.1562
   77SLPC   H7Y 7032   3.861   0.272   7.275 -2.3085 -0.5983 -4.6865
   77SLPC   C38 7033   3.973   0.463   7.305  0.3842  0.4676  0.3301
   77SLPC   H8X 7034   3.872   0.507   7.299 -0.5192 -1.1317  2.3712
   77SLPC   H8Y 7035   4.037   0.535   7.250 -0.2529  0.8154  0.0406
   77SLPC   C39 7036   4.008   0.472   7.449  1.0986 -0.5216 -0.3371
   77SLPC   H9X 7037   4.022   0.574   7.492 -0.6892 -1.5150  2.9423
   77SLPC   H9Y 7038   4.101   0.417   7.471  1.4247  0.3047  0.4092
   77SLPC  C310 7039   3.897   0.411   7.541 -0.2154  0.1268 -0.7309
   77SLPC  H10X 7040   3.872   0.304   7.526  0.2257 -0.2727  1.1416
   77SLPC  H10Y 7041   3.803   0.470   7.530 -0.4100  0.7910  3.1896
   77SLPC  C311 7042   3.943   0.428   7.687  0.4191  0.3730 -0.2334
   77SLPC  H11X 7043   3.854   0.418   7.752  0.2819 -0.9014 -0.5704
   77SLPC  H11Y 7044   3.993   0.525   7.706  2.1580 -0.5517  0.1361
   77SLPC  C312 7045   4.035   0.314   7.735 -0.6641 -0.3191  0.5113
   77SLPC  H12X 7046   4.140   0.323   7.699  0.2574 -4.0556  1.8476
   77SLPC  H12Y 7047   3.996   0.216   7.700 -0.2449 -1.0808  2.1110
   77SLPC  C313 7048   4.040   0.296   7.890  0.2847  0.2622  0.2178
   77SLPC  H13X 7049   4.099   0.207   7.918 -0.8602 -0.2197  1.1494
   77SLPC  H13Y 7050   3.941   0.279   7.937  0.1925  1.4950  0.5207
   77SLPC  C314 7051   4.099   0.416   7.973 -0.2053  0.3394  0.3871
   77SLPC  H14X 7052   4.038   0.500   7.933 -2.9041 -0.6022  2.2220
   77SLPC  H14Y 7053   4.210   0.416   7.968 -0.2176 -0.8320 -2.8057
   77SLPC  C315 7054   4.069   0.411   8.122 -0.8871  0.2230 -0.7137
   77SLPC  H15X 7055   4.115   0.321   8.167  1.1931  1.7130  0.3463
   77SLPC  H15Y 7056   3.960   0.404   8.140 -0.5318 -2.2426  0.8726
   77SLPC  C316 7057   4.140   0.520   8.211 -0.0155  0.2848  0.6695
   77SLPC  H16X 7058   4.091   0.617   8.186  1.2300  0.3939 -1.7186
   77SLPC  H16Y 7059   4.245   0.530   8.177  0.4672 -2.2911  1.2398
   77SLPC  C317 7060   4.141   0.472   8.357 -0.6939  0.6642 -0.6429
   77SLPC  H17X 7061   4.176   0.558   8.418  1.0183 -0.8290  0.6110
   77SLPC  H17Y 7062   4.212   0.386   8.363 -0.9116  0.5617  0.7349
   77SLPC  C318 7063   4.014   0.431   8.414  0.3922  0.6859  0.3548
   77SLPC  H18X 7064   3.941   0.515   8.418 -1.7135 -1.1181  2.2874
   77SLPC  H18Y 7065   4.034   0.419   8.522  2.7655  0.0451 -0.0961
   77SLPC  H18Z 7066   3.961   0.342   8.374  0.4189  0.3429  1.0661
   78SLPC     N 7067   5.535   1.485   5.978  0.0410 -0.6086 -0.6510
   78SLPC   C13 7068   5.676   1.496   6.021 -0.0270 -0.2847 -0.2132
   78SLPC  H13A 7069   5.721   1.400   6.006 -0.6190 -0.5985 -0.0262
   78SLPC  H13B 7070   5.719   1.576   5.962 -2.3938  2.4124  1.4305
   78SLPC  H13C 7071   5.687   1.526   6.124 -1.3346 -0.3042 -0.0422
   78SLPC   C14 7072   5.527   1.486   5.828  0.2779 -0.6335 -0.2897
   78SLPC  H14A 7073   5.568   1.396   5.785  1.9177  0.4778 -1.1875
   78SLPC  H14B 7074   5.424   1.497   5.800 -0.6721 -2.3499  2.1897
   78SLPC  H14C 7075   5.591   1.559   5.780  0.0809 -0.4472 -0.2706
   78SLPC   C15 7076   5.467   1.610   6.033 -0.5772  0.4920 -0.2706
   78SLPC  H15A 7077   5.518   1.701   6.007  0.4776 -0.4256 -1.6065
   78SLPC  H15B 7078   5.361   1.617   6.012 -1.4664  3.1040  3.8479
   78SLPC  H15C 7079   5.464   1.595   6.140  1.1347  0.5936 -0.1919
   78SLPC   C12 7080   5.464   1.361   6.027  0.3800  0.0179 -0.1685
   78SLPC  H12A 7081   5.516   1.280   5.980  1.7498  0.5193  0.4312
   78SLPC  H12B 7082   5.374   1.351   5.968 -0.1649 -0.4517  0.7111
   78SLPC   C11 7083   5.452   1.344   6.178 -0.1627 -0.4474  0.2895
   78SLPC  H11A 7084   5.551   1.350   6.229  0.7785  0.8760 -1.5596
   78SLPC  H11B 7085   5.412   1.244   6.204 -1.6591 -0.3720 -1.5415
   78SLPC     P 7086   5.217   1.431   6.233  0.4835  0.0892 -0.0173
   78SLPC   O13 7087   5.173   1.559   6.177 -0.1245  0.2406 -0.1219
   78SLPC   O14 7088   5.165   1.314   6.161 -0.1883  0.2721 -0.5684
   78SLPC   O12 7089   5.376   1.441   6.249 -0.6072 -0.6695 -0.2260
   78SLPC   O11 7090   5.173   1.420   6.386 -0.0616 -0.3743  0.4858
   78SLPC    C1 7091   5.215   1.312   6.464  0.3908  0.0549  0.1430
   78SLPC    HA 7092   5.125   1.249   6.476  0.5584 -0.2725 -0.3146
   78SLPC    HB 7093   5.285   1.244   6.411  0.4814  0.6720 -0.5462
   78SLPC    C2 7094   5.269   1.368   6.595 -0.5339 -0.6103 -0.5868
   78SLPC    HS 7095   5.190   1.429   6.645  1.9185  0.5894  2.1614
   78SLPC   O21 7096   5.389   1.457   6.570 -0.2843 -0.0273 -0.1535
   78SLPC   C21 7097   5.411   1.537   6.676 -0.8550 -0.2899  0.1211
   78SLPC   O22 7098   5.335   1.566   6.766 -0.0679 -0.0485  0.2986
   78SLPC   C22 7099   5.554   1.578   6.671 -0.2875 -1.3184 -1.0871
   78SLPC   H2R 7100   5.585   1.598   6.566  0.0843 -0.0973 -0.7662
   78SLPC   H2S 7101   5.563   1.676   6.723 -2.0598 -1.4014 -0.5644
   78SLPC    C3 7102   5.335   1.256   6.681  0.4953 -0.2963 -0.2328
   78SLPC    HX 7103   5.430   1.232   6.627  0.8468 -1.7897  0.9799
   78SLPC    HY 7104   5.266   1.170   6.669  1.1912 -0.9293  0.1709
   78SLPC   O31 7105   5.349   1.287   6.823 -0.3867  0.0432  0.5912
   78SLPC   C31 7106   5.233   1.296   6.887  0.0146 -0.4653 -0.5972
   78SLPC   O32 7107   5.123   1.276   6.834 -0.2031 -0.4452 -0.1801
   78SLPC   C32 7108   5.258   1.334   7.036  0.3681 -0.0456  0.6518
   78SLPC   H2X 7109   5.280   1.442   7.045 -0.8755  0.0881  2.5956
   78SLPC   H2Y 7110   5.359   1.299   7.065  0.9828  0.5133 -0.7454
   78SLPC   C23 7111   5.649   1.477   6.740 -0.7031 -0.1089  0.1535
   78SLPC   H3R 7112   5.754   1.506   6.719 -1.0305  1.8749  0.9891
   78SLPC   H3S 7113   5.635   1.376   6.696  1.3592 -1.3618  2.1601
   78SLPC   C24 7114   5.627   1.467   6.893  0.3268  0.8980  0.0610
   78SLPC   H4R 7115   5.520   1.445   6.915  0.7024 -0.7839  0.3427
   78SLPC   H4S 7116   5.641   1.569   6.935  0.0046  0.4982  1.1618
   78SLPC   C25 7117   5.710   1.363   6.958 -0.0498  0.6385 -0.8384
   78SLPC   H5R 7118   5.820   1.368   6.942 -0.3026  0.4196 -2.9532
   78SLPC   H5S 7119   5.691   1.257   6.931  1.8260  0.1841 -0.5242
   78SLPC   C26 7120   5.677   1.365   7.108  0.1750 -0.0591 -0.1435
   78SLPC   H6R 7121   5.758   1.299   7.148 -0.4646 -1.0162 -0.3994
   78SLPC   H6S 7122   5.581   1.323   7.144  1.1082  0.0297  2.7642
   78SLPC   C27 7123   5.706   1.491   7.188 -0.2933 -0.6165  0.1236
   78SLPC   H7R 7124   5.630   1.559   7.142 -0.0481  0.2922  1.0393
   78SLPC   H7S 7125   5.809   1.530   7.177 -0.4840  0.9348  2.9337
   78SLPC   C28 7126   5.671   1.483   7.344  0.2308  1.3118 -0.2942
   78SLPC   H8R 7127   5.566   1.511   7.368  0.9923  3.0766  1.2142
   78SLPC   H8S 7128   5.720   1.564   7.402  3.0696 -0.1375 -0.5025
   78SLPC   C29 7129   5.703   1.353   7.411  0.2725 -0.2401 -0.6076
   78SLPC   H9R 7130   5.623   1.278   7.406 -1.1912  1.2735 -0.7367
   78SLPC  C210 7131   5.819   1.320   7.480  0.4919  0.0041  0.0922
   78SLPC  H10R 7132   5.821   1.224   7.534  0.4003 -0.3257 -0.4879
   78SLPC  C211 7133   5.932   1.406   7.516  0.1279 -0.1683 -0.4447
   78SLPC  H11R 7134   5.924   1.408   7.627 -0.3009 -1.0895 -0.4520
   78SLPC  H11S 7135   5.917   1.508   7.475  0.9375 -0.6161 -1.9502
   78SLPC  C212 7136   6.059   1.356   7.460  0.5534  0.6567  0.0201
   78SLPC  H12R 7137   6.096   1.405   7.369 -1.1219  2.2149  0.1355
   78SLPC  C213 7138   6.144   1.261   7.514 -0.2430  0.3581  0.3980
   78SLPC  H13R 7139   6.243   1.248   7.468  0.4407  1.6130  1.4223
   78SLPC  C214 7140   6.120   1.183   7.642  0.4121 -1.4665  0.3830
   78SLPC  H14R 7141   6.177   1.088   7.633  5.2751  1.1892 -0.4676
   78SLPC  H14S 7142   6.016   1.145   7.637  0.5447 -1.7626 -0.1647
   78SLPC  C215 7143   6.143   1.258   7.769  0.3221  0.6062  0.1596
   78SLPC  H15R 7144   6.105   1.189   7.847  3.1328 -1.7025 -0.3195
   78SLPC  H15S 7145   6.077   1.346   7.780  1.5524  1.5501  0.2935
   78SLPC  C216 7146   6.283   1.295   7.811 -0.0158 -0.1537 -0.8118
   78SLPC  H16R 7147   6.324   1.356   7.727 -1.1836  0.6469 -0.8264
   78SLPC  H16S 7148   6.346   1.206   7.829  2.7213  1.7979 -0.1375
   78SLPC  C217 7149   6.300   1.378   7.945  0.2097 -0.6556  0.3978
   78SLPC  H17R 7150   6.248   1.476   7.942  1.0682 -0.1671  1.1852
   78SLPC  H17S 7151   6.408   1.399   7.932  0.3994 -1.9551 -0.3557
   78SLPC  C218 7152   6.269   1.298   8.071  0.0408  0.7522  0.5079
   78SLPC  H18R 7153   6.281   1.359   8.162  0.6400  1.6632 -0.1652
   78SLPC  H18S 7154   6.336   1.210   8.084  1.0679  0.9165 -2.7288
   78SLPC  H18T 7155   6.178   1.244   8.036  0.8206 -0.8956  0.9040
   78SLPC   C33 7156   5.145   1.305   7.126 -0.0945 -0.1428  0.0120
   78SLPC   H3X 7157   5.103   1.204   7.108 -0.2737 -0.1760  0.5847
   78SLPC   H3Y 7158   5.063   1.377   7.103  2.2466  2.5707 -0.3779
   78SLPC   C34 7159   5.160   1.309   7.282  0.3759  0.2710  1.0304
   78SLPC   H4X 7160   5.060   1.282   7.320  0.8929 -0.7615  1.6982
   78SLPC   H4Y 7161   5.182   1.415   7.309 -1.5395  1.5041 -1.7841
   78SLPC   C35 7162   5.264   1.208   7.329  0.3995 -0.7541 -0.6362
   78SLPC   H5X 7163   5.348   1.193   7.257  1.1334  0.3716 -0.0490
   78SLPC   H5Y 7164   5.224   1.105   7.332 -2.2408  0.2171  2.0552
   78SLPC   C36 7165   5.323   1.240   7.470 -0.5267 -0.4229  0.0995
   78SLPC   H6X 7166   5.251   1.293   7.535  0.4090  0.5190  0.3981
   78SLPC   H6Y 7167   5.415   1.303   7.462 -2.0012  1.8154  0.0037
   78SLPC   C37 7168   5.385   1.115   7.531  0.3139 -0.5260 -0.7777
   78SLPC   H7X 7169   5.473   1.085   7.470 -0.1926  0.2375 -1.9148
   78SLPC   H7Y 7170   5.308   1.036   7.536  0.7803 -0.9097  2.0800
   78SLPC   C38 7171   5.441   1.148   7.680 -0.2763 -0.4206  0.4464
   78SLPC   H8X 7172   5.353   1.199   7.724 -0.1926 -0.2305  0.3943
   78SLPC   H8Y 7173   5.522   1.223   7.666 -2.1907  1.7117  0.2248
   78SLPC   C39 7174   5.470   1.022   7.765  0.0641 -0.2810 -0.3818
   78SLPC   H9X 7175   5.519   0.949   7.698 -1.2816 -0.0780 -1.6409
   78SLPC   H9Y 7176   5.373   0.986   7.805 -0.1323  1.5166  0.9052
   78SLPC  C310 7177   5.570   1.059   7.883 -0.1672  0.3185 -0.1475
   78SLPC  H10X 7178   5.665   1.104   7.848  0.4196  1.0789  2.2025
   78SLPC  H10Y 7179   5.589   0.965   7.940  1.4782  2.3201  2.9034
   78SLPC  C311 7180   5.510   1.134   8.005  0.2808  0.9318 -0.0257
   78SLPC  H11X 7181   5.404   1.103   8.018  0.7468 -1.6542 -1.6442
   78SLPC  H11Y 7182   5.518   1.243   7.981 -0.7122  0.9843 -0.1761
   78SLPC  C312 7183   5.589   1.099   8.130 -0.0171 -0.2599  0.5209
   78SLPC  H12X 7184   5.698   1.096   8.105 -0.5311 -1.8192 -1.8272
   78SLPC  H12Y 7185   5.558   1.000   8.168  2.0169 -0.2377  2.4438
   78SLPC  C313 7186   5.564   1.204   8.248  0.5600  0.0285  0.2795
   78SLPC  H13X 7187   5.465   1.184   8.293 -0.6253  1.7532 -1.4119
   78SLPC  H13Y 7188   5.578   1.308   8.212  1.3426  0.0849  0.7158
   78SLPC  C314 7189   5.674   1.194   8.362 -0.1445  0.3103  0.7488
   78SLPC  H14X 7190   5.677   1.286   8.425  1.3325  0.6812  0.1905
   78SLPC  H14Y 7191   5.774   1.193   8.313 -0.1363 -0.5153  0.7788
   78SLPC  C315 7192   5.651   1.070   8.451  1.1456  0.1949 -0.6675
   78SLPC  H15X 7193   5.649   0.967   8.409  3.6766  0.0555 -0.5856
   78SLPC  H15Y 7194   5.552   1.095   8.495  1.0920  3.7912 -2.4004
   78SLPC  C316 7195   5.749   1.065   8.570 -0.5740  0.5508  0.7249
   78SLPC  H16X 7196   5.759   1.165   8.618  1.4081  1.5840 -1.6577
   78SLPC  H16Y 7197   5.848   1.056   8.522 -1.1124  0.0295 -0.3228
   78SLPC  C317 7198   5.733   0.935   8.653  0.2081 -0.0407  0.2277
   78SLPC  H17X 7199   5.805   0.933   8.737  0.9936 -2.2808 -0.4115
   78SLPC  H17Y 7200   5.755   0.846   8.590 -0.9106 -0.2692  0.1378
   78SLPC  C318 7201   5.594   0.913   8.725 -0.2258 -0.8653 -1.0634
   78SLPC  H18X 7202   5.518   0.912   8.644  1.1485  2.2513 -2.5875
   78SLPC  H18Y 7203   5.575   1.006   8.782 -1.0143 -0.9841 -1.1274
   78SLPC  H18Z 7204   5.592   0.826   8.793 -0.0202  0.4937  0.7388
   79SLPC     N 7205   2.241   3.567   5.847 -0.1417 -1.0202 -0.4669
   79SLPC   C13 7206   2.293   3.435   5.800 -0.2866 -0.2937 -0.0454
   79SLPC  H13A 7207   2.259   3.349   5.856  0.6607 -0.3451  0.4716
   79SLPC  H13B 7208   2.262   3.419   5.698 -0.4550  1.7367 -0.3484
   79SLPC  H13C 7209   2.400   3.442   5.812 -0.4756 -0.1710  1.8636
   79SLPC   C14 7210   2.090   3.564   5.821  0.0541  0.0241 -0.1830
   79SLPC  H14A 7211   2.057   3.472   5.868  0.8698 -0.0258  0.3115
   79SLPC  H14B 7212   2.045   3.653   5.861 -1.5094 -1.4885  1.6094
   79SLPC  H14C 7213   2.082   3.557   5.714  1.6842 -2.8115 -0.2306
   79SLPC   C15 7214   2.300   3.675   5.764  0.0589 -0.8717 -0.6985
   79SLPC  H15A 7215   2.407   3.666   5.750  0.3810 -0.0323  0.9839
   79SLPC  H15B 7216   2.251   3.667   5.668  0.2634 -0.1118 -0.8790
   79SLPC  H15C 7217   2.270   3.768   5.809 -0.9074 -0.8235 -1.4142
   79SLPC   C12 7218   2.282   3.590   5.990 -0.1500  0.0821 -1.0800
   79SLPC  H12A 7219   2.254   3.693   6.005 -0.6418 -0.3961  1.9560
   79SLPC  H12B 7220   2.390   3.582   5.992 -0.2369 -1.5291 -1.3025
   79SLPC   C11 7221   2.222   3.497   6.099 -1.0458 -0.0749  0.2310
   79SLPC  H11A 7222   2.114   3.521   6.104 -1.3836 -1.5824  0.7051
   79SLPC  H11B 7223   2.259   3.520   6.201  1.0250 -0.9915 -0.2701
   79SLPC     P 7224   2.156   3.244   6.123  0.0892 -0.0460 -0.2614
   79SLPC   O13 7225   2.034   3.264   6.046 -0.4416 -0.6397  1.0449
   79SLPC   O14 7226   2.226   3.115   6.109 -0.0435 -0.0746 -0.1055
   79SLPC   O12 7227   2.260   3.360   6.070 -0.1089  0.0898 -0.3100
   79SLPC   O11 7228   2.141   3.257   6.283  0.4295 -0.1212  0.0438
   79SLPC    C1 7229   2.261   3.244   6.357 -0.0721 -0.3489 -0.3743
   79SLPC    HA 7230   2.317   3.154   6.323  1.2971  0.5238 -0.4745
   79SLPC    HB 7231   2.335   3.322   6.332 -0.3007  0.3774  1.1349
   79SLPC    C2 7232   2.230   3.240   6.505 -0.5602 -0.9599 -0.4183
   79SLPC    HS 7233   2.323   3.201   6.552  0.9035  0.6566 -1.8190
   79SLPC   O21 7234   2.120   3.140   6.527  0.2714  0.2950  0.5852
   79SLPC   C21 7235   2.154   3.014   6.503  0.2809 -0.8152  0.2132
   79SLPC   O22 7236   2.269   2.974   6.481 -0.0884  0.2029  0.0817
   79SLPC   C22 7237   2.027   2.919   6.509 -0.2672  0.1093 -0.6647
   79SLPC   H2R 7238   1.962   2.963   6.588 -2.0626 -2.7168 -0.3897
   79SLPC   H2S 7239   1.969   2.927   6.415 -3.8878  0.4087  1.3947
   79SLPC    C3 7240   2.208   3.383   6.567  0.3106  0.2418 -0.3815
   79SLPC    HX 7241   2.119   3.435   6.526 -0.0366  0.2067  0.3285
   79SLPC    HY 7242   2.296   3.444   6.533 -0.1741  0.7640 -0.7279
   79SLPC   O31 7243   2.196   3.380   6.709 -0.6518 -0.2364  0.1579
   79SLPC   C31 7244   2.212   3.490   6.777  0.1062 -0.1083  0.4565
   79SLPC   O32 7245   2.244   3.597   6.731 -0.5844  0.6506 -0.0245
   79SLPC   C32 7246   2.162   3.470   6.923 -0.3450 -0.0847 -0.3582
   79SLPC   H2X 7247   2.125   3.366   6.933  3.8763 -1.7095  0.5576
   79SLPC   H2Y 7248   2.080   3.545   6.926  0.4452  0.8586 -1.5343
   79SLPC   C23 7249   2.063   2.781   6.559 -0.2691  0.1581 -0.3590
   79SLPC   H3R 7250   2.164   2.745   6.528  0.4497  1.0264  0.9129
   79SLPC   H3S 7251   1.992   2.708   6.516 -0.9451  0.3095  0.4807
   79SLPC   C24 7252   2.045   2.774   6.713 -0.2461 -0.3971 -0.1090
   79SLPC   H4R 7253   1.938   2.785   6.738 -0.1256 -1.0373  0.7485
   79SLPC   H4S 7254   2.091   2.865   6.757 -1.5006  0.7783 -1.1800
   79SLPC   C25 7255   2.103   2.651   6.782 -0.2134  0.5381 -0.1055
   79SLPC   H5R 7256   2.204   2.634   6.741 -0.8531 -0.0893 -1.4711
   79SLPC   H5S 7257   2.035   2.569   6.749 -2.9302  2.3628  0.5796
   79SLPC   C26 7258   2.117   2.666   6.934  0.1221 -0.2181  0.0752
   79SLPC   H6R 7259   2.019   2.647   6.981 -0.4896  2.0875 -0.1309
   79SLPC   H6S 7260   2.147   2.771   6.956 -3.4008  0.3181  3.2593
   79SLPC   C27 7261   2.224   2.578   7.000  0.0739 -0.3189  0.3956
   79SLPC   H7R 7262   2.324   2.623   6.986 -0.2588  0.1888 -0.4475
   79SLPC   H7S 7263   2.227   2.478   6.951 -0.4124 -0.4752  0.6759
   79SLPC   C28 7264   2.198   2.561   7.154  0.2536 -0.1587  0.2992
   79SLPC   H8R 7265   2.099   2.511   7.161  0.9933 -1.6260  0.7628
   79SLPC   H8S 7266   2.175   2.660   7.200 -3.0824  0.4265 -2.2359
   79SLPC   C29 7267   2.304   2.483   7.233  0.3625  0.3057  0.4972
   79SLPC   H9R 7268   2.298   2.374   7.229 -0.5677  0.2988  1.4669
   79SLPC  C210 7269   2.393   2.532   7.319  0.8379  0.7935 -0.4989
   79SLPC  H10R 7270   2.455   2.456   7.369 -2.2420 -2.2099 -0.8707
   79SLPC  C211 7271   2.405   2.672   7.365  0.1878 -0.4443 -0.2955
   79SLPC  H11R 7272   2.334   2.674   7.451  0.5624 -0.4958  0.0163
   79SLPC  H11S 7273   2.371   2.751   7.295  0.9393  0.1273 -0.0265
   79SLPC  C212 7274   2.547   2.706   7.399 -0.5118 -0.3112 -0.0799
   79SLPC  H12R 7275   2.617   2.726   7.316  0.9387 -0.7872  0.9767
   79SLPC  C213 7276   2.595   2.710   7.524 -0.0380  0.6121  0.4606
   79SLPC  H13R 7277   2.705   2.704   7.533  0.1174 -0.4926 -1.5617
   79SLPC  C214 7278   2.524   2.682   7.650 -0.0720 -0.6319 -0.4765
   79SLPC  H14R 7279   2.445   2.760   7.657  0.2606 -0.3122 -0.2889
   79SLPC  H14S 7280   2.590   2.693   7.738 -0.5537  0.9432 -0.2746
   79SLPC  C215 7281   2.462   2.545   7.675 -0.4971 -0.0831 -0.0145
   79SLPC  H15R 7282   2.543   2.469   7.682 -0.7188 -0.2937  0.2700
   79SLPC  H15S 7283   2.383   2.524   7.600  0.5883 -0.8162 -0.9867
   79SLPC  C216 7284   2.386   2.536   7.811  0.0910  0.1469 -0.1819
   79SLPC  H16R 7285   2.314   2.620   7.803 -0.9852 -0.8055 -0.9542
   79SLPC  H16S 7286   2.451   2.558   7.898 -1.7018  2.3491  0.7031
   79SLPC  C217 7287   2.304   2.415   7.851  0.2469  0.2419  0.6085
   79SLPC  H17R 7288   2.354   2.325   7.809 -0.5469  0.8083 -1.7009
   79SLPC  H17S 7289   2.204   2.420   7.802  1.3539  1.2631 -1.7279
   79SLPC  C218 7290   2.298   2.389   8.000 -0.6046  0.0897  0.3649
   79SLPC  H18R 7291   2.394   2.348   8.039  0.8221  1.0584 -1.9008
   79SLPC  H18S 7292   2.214   2.319   8.015 -0.9349  0.3003 -0.4406
   79SLPC  H18T 7293   2.272   2.477   8.062 -2.3821 -0.0524 -0.1372
   79SLPC   C33 7294   2.268   3.496   7.030 -0.2676  0.3976 -1.2869
   79SLPC   H3X 7295   2.329   3.582   6.994  1.4380  0.7597  2.0057
   79SLPC   H3Y 7296   2.336   3.408   7.028  0.6586  1.0802 -4.2577
   79SLPC   C34 7297   2.198   3.532   7.158  0.3839  0.3885 -0.3725
   79SLPC   H4X 7298   2.145   3.444   7.201  0.8841 -0.3145 -1.1526
   79SLPC   H4Y 7299   2.121   3.612   7.148 -2.1548 -1.8514 -0.1877
   79SLPC   C35 7300   2.301   3.580   7.257  0.1786 -0.4675  0.1684
   79SLPC   H5X 7301   2.359   3.667   7.218  1.3882 -1.9684 -1.5460
   79SLPC   H5Y 7302   2.374   3.497   7.264  0.6729  0.0548  1.7762
   79SLPC   C36 7303   2.224   3.602   7.384  0.1848 -0.6057  1.1757
   79SLPC   H6X 7304   2.158   3.514   7.402 -0.8360  0.1655  1.3039
   79SLPC   H6Y 7305   2.164   3.695   7.372  1.4342  0.2639  1.4562
   79SLPC   C37 7306   2.320   3.604   7.504  0.3091 -0.2297 -0.4209
   79SLPC   H7X 7307   2.404   3.677   7.500  0.3268 -0.2842 -2.6172
   79SLPC   H7Y 7308   2.365   3.502   7.510  0.8115 -0.0642 -1.1864
   79SLPC   C38 7309   2.236   3.623   7.635 -0.0633  0.0732  0.5634
   79SLPC   H8X 7310   2.226   3.518   7.669  2.0510 -1.1618 -2.2393
   79SLPC   H8Y 7311   2.132   3.660   7.625  0.0768  0.8459  1.7227
   79SLPC   C39 7312   2.306   3.699   7.739 -0.3272  0.5313  0.5773
   79SLPC   H9X 7313   2.289   3.808   7.728 -1.2858  0.5684  2.1190
   79SLPC   H9Y 7314   2.415   3.678   7.734 -0.1800  1.2897  0.5010
   79SLPC  C310 7315   2.258   3.667   7.880 -0.3310  0.2903 -0.3500
   79SLPC  H10X 7316   2.297   3.755   7.935  0.5214  0.4679 -1.2085
   79SLPC  H10Y 7317   2.306   3.581   7.933 -0.0272  1.2580  1.0037
   79SLPC  C311 7318   2.106   3.671   7.905  0.2270 -0.7113  0.1284
   79SLPC  H11X 7319   2.056   3.594   7.841 -1.9522 -1.0031  2.0414
   79SLPC  H11Y 7320   2.066   3.769   7.870 -2.9443 -1.8930  0.0467
   79SLPC  C312 7321   2.054   3.639   8.045  0.0525  0.4384  0.1189
   79SLPC  H12X 7322   2.108   3.563   8.106 -1.3103  0.1654  1.0154
   79SLPC  H12Y 7323   1.951   3.605   8.018 -0.3747  2.1919 -0.5867
   79SLPC  C313 7324   2.049   3.759   8.139 -1.1591  0.3464  0.2155
   79SLPC  H13X 7325   2.002   3.847   8.090  2.4496  1.6678 -1.2156
   79SLPC  H13Y 7326   2.155   3.791   8.155 -0.2327 -3.4897  3.1216
   79SLPC  C314 7327   1.979   3.731   8.268  0.6653 -0.4172  1.0147
   79SLPC  H14X 7328   2.008   3.631   8.308 -0.1215 -1.4974 -0.9688
   79SLPC  H14Y 7329   1.871   3.714   8.248 -0.0375  1.3688  2.9193
   79SLPC  C315 7330   1.995   3.842   8.373 -1.0119  0.1564 -1.0493
   79SLPC  H15X 7331   1.954   3.936   8.332 -0.8109 -0.0998 -1.8617
   79SLPC  H15Y 7332   2.101   3.861   8.398 -1.4400 -0.1110  1.1867
   79SLPC  C316 7333   1.942   3.806   8.513  0.4007  0.5018  0.7437
   79SLPC  H16X 7334   2.024   3.812   8.588  0.8017 -2.7901  0.7426
   79SLPC  H16Y 7335   1.913   3.699   8.503  1.5563  0.1711  0.7767
   79SLPC  C317 7336   1.817   3.885   8.559 -0.4422 -0.6864  0.1491
   79SLPC  H17X 7337   1.743   3.882   8.476  0.7604 -1.3090 -0.9485
   79SLPC  H17Y 7338   1.857   3.987   8.575 -0.5369 -0.3675 -1.4667
   79SLPC  C318 7339   1.754   3.832   8.689 -0.7787 -0.1230  0.5460
   79SLPC  H18X 7340   1.807   3.883   8.772  0.1620 -1.2822  0.6833
   79SLPC  H18Y 7341   1.757   3.722   8.710 -2.3438 -0.2624  0.2314
   79SLPC  H18Z 7342   1.647   3.861   8.696  0.3881  4.8120  1.6074
   80SLPC     N 7343   3.738   6.281   5.842  0.0724 -0.5012  0.1124
   80SLPC   C13 7344   3.848   6.199   5.896 -0.8924  0.6300 -0.2147
   80SLPC  H13A 7345   3.834   6.095   5.872  0.0154  0.5678 -0.4838
   80SLPC  H13B 7346   3.944   6.230   5.859 -0.8541 -0.6573 -1.2408
   80SLPC  H13C 7347   3.845   6.200   6.004 -0.7433 -0.4569 -0.1920
   80SLPC   C14 7348   3.739   6.262   5.685  0.1289 -0.5191  0.0829
   80SLPC  H14A 7349   3.647   6.286   5.634 -1.1993 -1.4603  1.9723
   80SLPC  H14B 7350   3.821   6.319   5.641  0.0178 -0.3023  0.1547
   80SLPC  H14C 7351   3.756   6.159   5.659  1.2280 -0.2767 -0.2147
   80SLPC   C15 7352   3.765   6.426   5.872 -0.0774  0.9657  0.1508
   80SLPC  H15A 7353   3.760   6.445   5.978  1.1766  1.6039  0.1134
   80SLPC  H15B 7354   3.865   6.451   5.838  1.4992 -0.5590  3.2710
   80SLPC  H15C 7355   3.698   6.489   5.815  1.8647 -0.3997 -4.0159
   80SLPC   C12 7356   3.598   6.243   5.893 -0.1180  0.6776 -0.0418
   80SLPC  H12A 7357   3.570   6.147   5.852  0.9461 -0.1624  1.0874
   80SLPC  H12B 7358   3.529   6.316   5.855  0.7622  1.6643  0.1891
   80SLPC   C11 7359   3.564   6.235   6.046 -0.7088 -0.1740  0.5989
   80SLPC  H11A 7360   3.626   6.159   6.099 -1.1114 -0.1452  1.1204
   80SLPC  H11B 7361   3.459   6.199   6.051 -0.4897 -0.7553  1.2658
   80SLPC     P 7362   3.473   6.468   6.132  0.0782 -0.3134  0.2601
   80SLPC   O13 7363   3.521   6.574   6.221 -0.5230  0.1969  0.4964
   80SLPC   O14 7364   3.411   6.524   6.006  0.0212  0.3974 -0.3611
   80SLPC   O12 7365   3.583   6.368   6.102  0.6972  1.0310  0.4430
   80SLPC   O11 7366   3.361   6.389   6.209  0.6885 -0.1386 -0.1122
   80SLPC    C1 7367   3.388   6.327   6.336 -0.1127  0.1547 -0.0165
   80SLPC    HA 7368   3.316   6.243   6.349 -0.1200  0.3863  1.5615
   80SLPC    HB 7369   3.493   6.297   6.355 -0.1401  0.4783  0.6708
   80SLPC    C2 7370   3.347   6.423   6.459 -0.5980  0.7632  1.0408
   80SLPC    HS 7371   3.418   6.508   6.449  1.3004 -0.9042 -0.5623
   80SLPC   O21 7372   3.369   6.349   6.584 -0.1167  0.1149 -0.0305
   80SLPC   C21 7373   3.407   6.424   6.678 -0.4883 -0.5653  0.5177
   80SLPC   O22 7374   3.400   6.549   6.682  0.3489 -0.1029  0.4818
   80SLPC   C22 7375   3.459   6.328   6.787 -0.5550  0.0205  0.2081
   80SLPC   H2R 7376   3.375   6.260   6.815 -2.6030  1.8731 -1.0750
   80SLPC   H2S 7377   3.543   6.273   6.740 -1.6919  0.3560 -2.3998
   80SLPC    C3 7378   3.196   6.479   6.442 -0.4299 -0.5367 -0.3730
   80SLPC    HX 7379   3.130   6.390   6.441 -0.5304 -0.4871  0.7817
   80SLPC    HY 7380   3.202   6.530   6.343  0.5197 -1.1949 -0.6713
   80SLPC   O31 7381   3.150   6.542   6.564 -0.2447  0.1423  0.3326
   80SLPC   C31 7382   3.157   6.672   6.566  0.8419 -0.1161 -0.0706
   80SLPC   O32 7383   3.184   6.747   6.469 -0.1057 -0.5820 -0.1833
   80SLPC   C32 7384   3.126   6.720   6.707  0.4441  0.7458 -0.0061
   80SLPC   H2X 7385   3.042   6.792   6.697  0.0832  0.2760 -0.4107
   80SLPC   H2Y 7386   3.218   6.770   6.744  0.9245 -0.3796  0.3581
   80SLPC   C23 7387   3.529   6.389   6.909  0.0170 -0.3687 -0.1113
   80SLPC   H3R 7388   3.620   6.449   6.886 -0.4727  0.1805 -0.6483
   80SLPC   H3S 7389   3.573   6.304   6.965  1.7711 -0.3591 -1.3988
   80SLPC   C24 7390   3.445   6.474   6.999  0.3728  0.2128 -0.4821
   80SLPC   H4R 7391   3.357   6.412   7.028  0.2531  0.2580 -0.7464
   80SLPC   H4S 7392   3.406   6.564   6.947 -1.4129  0.0048  0.4305
   80SLPC   C25 7393   3.513   6.521   7.129 -0.3507  0.6058  0.5816
   80SLPC   H5R 7394   3.579   6.607   7.104  0.8481 -0.6895 -0.9722
   80SLPC   H5S 7395   3.586   6.445   7.165 -0.5512  0.6073  0.9950
   80SLPC   C26 7396   3.411   6.566   7.237  0.0245 -0.2444 -0.1678
   80SLPC   H6R 7397   3.361   6.479   7.284  3.1590 -1.0261  2.0735
   80SLPC   H6S 7398   3.336   6.634   7.192 -0.6956  0.9657  2.6320
   80SLPC   C27 7399   3.483   6.643   7.352  0.6470 -0.2758 -0.1737
   80SLPC   H7R 7400   3.540   6.728   7.309 -1.1740  3.5703  4.1406
   80SLPC   H7S 7401   3.556   6.574   7.401  0.7454  1.1470  1.8191
   80SLPC   C28 7402   3.393   6.716   7.459  0.3415  0.7117 -0.7095
   80SLPC   H8R 7403   3.315   6.775   7.407 -0.7267  0.1803  0.2429
   80SLPC   H8S 7404   3.448   6.788   7.525 -1.8215  2.7463 -0.9900
   80SLPC   C29 7405   3.344   6.611   7.549 -0.1214  0.3762  1.0205
   80SLPC   H9R 7406   3.306   6.522   7.498 -1.4226  1.1114  0.6578
   80SLPC  C210 7407   3.349   6.604   7.683 -0.5268  0.0283 -0.5205
   80SLPC  H10R 7408   3.304   6.515   7.731 -0.6601 -0.0121 -0.7156
   80SLPC  C211 7409   3.405   6.707   7.783  0.5023 -0.5449 -0.1251
   80SLPC  H11R 7410   3.480   6.765   7.725  2.3438 -2.4844  0.1547
   80SLPC  H11S 7411   3.456   6.646   7.861 -2.7147 -3.2505  0.0888
   80SLPC  C212 7412   3.302   6.801   7.844 -0.4144  0.4657 -0.1868
   80SLPC  H12R 7413   3.271   6.882   7.776 -3.1342  0.7509  1.2566
   80SLPC  C213 7414   3.260   6.791   7.969  0.4409  0.1047 -0.5092
   80SLPC  H13R 7415   3.172   6.854   7.991 -1.1722 -1.6216 -1.7316
   80SLPC  C214 7416   3.296   6.697   8.071  0.5462  0.4201  0.3399
   80SLPC  H14R 7417   3.404   6.692   8.097 -0.1326 -0.6000  3.3643
   80SLPC  H14S 7418   3.271   6.595   8.036 -1.8422  1.5888 -1.6074
   80SLPC  C215 7419   3.232   6.712   8.203  0.5409 -0.6846  0.3619
   80SLPC  H15R 7420   3.234   6.818   8.234  1.2825 -0.4134 -0.5455
   80SLPC  H15S 7421   3.276   6.648   8.283  0.3041  0.4012  1.3868
   80SLPC  C216 7422   3.087   6.653   8.193 -0.2818  0.5995  0.0772
   80SLPC  H16R 7423   3.089   6.546   8.162 -0.5037  0.7544 -0.4806
   80SLPC  H16S 7424   3.026   6.706   8.116  0.1691 -0.1279 -0.8075
   80SLPC  C217 7425   3.007   6.671   8.326 -0.2713  0.6631 -0.1448
   80SLPC  H17R 7426   2.898   6.661   8.307 -0.1781  1.4427 -1.2323
   80SLPC  H17S 7427   3.022   6.778   8.352 -0.5515  1.2622 -2.2643
   80SLPC  C218 7428   3.044   6.580   8.446 -0.2975  0.4164  0.5267
   80SLPC  H18R 7429   2.985   6.603   8.538 -0.6587 -0.7569  0.6014
   80SLPC  H18S 7430   3.153   6.584   8.463 -0.1619 -1.9105  0.5071
   80SLPC  H18T 7431   3.011   6.476   8.428 -1.0300  0.3565  2.0244
   80SLPC   C33 7432   3.087   6.605   6.809  0.3212 -0.1781  0.5950
   80SLPC   H3X 7433   3.177   6.541   6.822  0.4677 -0.3888 -1.2266
   80SLPC   H3Y 7434   3.015   6.540   6.755  2.3803 -0.0538 -2.4944
   80SLPC   C34 7435   3.022   6.664   6.937 -0.4345 -0.0056  0.4548
   80SLPC   H4X 7436   3.011   6.584   7.014  4.4153  0.1451  1.6297
   80SLPC   H4Y 7437   2.922   6.703   6.912 -0.6341 -0.2712  0.8239
   80SLPC   C35 7438   3.109   6.769   7.000 -0.3349  0.1019  0.7651
   80SLPC   H5X 7439   3.132   6.843   6.921 -0.3778 -0.3715  0.2968
   80SLPC   H5Y 7440   3.204   6.725   7.035  0.1944 -0.6461 -1.4108
   80SLPC   C36 7441   3.045   6.852   7.112  0.2803  0.3925  0.3498
   80SLPC   H6X 7442   2.958   6.909   7.073  1.2697  0.0806 -2.5975
   80SLPC   H6Y 7443   3.125   6.927   7.133 -2.3715  3.6817 -0.4590
   80SLPC   C37 7444   2.988   6.776   7.229  0.4433  0.5947 -0.3473
   80SLPC   H7X 7445   3.036   6.679   7.252 -1.8505 -0.0286  2.2858
   80SLPC   H7Y 7446   2.882   6.747   7.209  0.2646  1.5445 -0.8541
   80SLPC   C38 7447   2.986   6.863   7.352 -0.3568 -0.1592 -0.9389
   80SLPC   H8X 7448   2.927   6.954   7.330 -1.5031 -0.3035  1.2527
   80SLPC   H8Y 7449   3.088   6.898   7.381 -1.0174  0.7221  0.3913
   80SLPC   C39 7450   2.909   6.805   7.465 -0.3846  0.0204 -0.4515
   80SLPC   H9X 7451   2.864   6.709   7.432 -2.0800  0.8884 -0.7914
   80SLPC   H9Y 7452   2.811   6.855   7.481 -0.2273  0.5730 -1.1355
   80SLPC  C310 7453   2.984   6.796   7.601 -0.6355 -0.3644  0.3658
   80SLPC  H10X 7454   3.035   6.889   7.635 -1.6026 -0.3226  1.7710
   80SLPC  H10Y 7455   3.066   6.722   7.590 -1.3194 -0.8730 -1.8950
   80SLPC  C311 7456   2.899   6.743   7.714 -0.1385  0.6583 -0.5996
   80SLPC  H11X 7457   2.962   6.690   7.789  0.1546  1.4880 -0.2549
   80SLPC  H11Y 7458   2.825   6.665   7.683 -0.9227  1.0479  0.2245
   80SLPC  C312 7459   2.817   6.851   7.789 -0.0047  0.2317 -0.2343
   80SLPC  H12X 7460   2.747   6.797   7.856 -0.0353 -0.0472 -0.4858
   80SLPC  H12Y 7461   2.759   6.919   7.723 -0.6140 -0.1761 -0.1216
   80SLPC  C313 7462   2.909   6.936   7.886  0.6255  0.3437  0.0340
   80SLPC  H13X 7463   2.973   6.990   7.812  0.7384 -0.9833 -0.8789
   80SLPC  H13Y 7464   2.973   6.861   7.937 -1.5308 -2.4746 -1.1530
   80SLPC  C314 7465   2.829   7.016   7.988 -0.0031 -0.7751 -0.5639
   80SLPC  H14X 7466   2.765   6.958   8.059 -0.9483 -0.1202 -0.8571
   80SLPC  H14Y 7467   2.757   7.081   7.934  0.3524 -0.1125 -0.2493
   80SLPC  C315 7468   2.913   7.109   8.068 -0.2507 -0.1057  0.5960
   80SLPC  H15X 7469   2.849   7.198   8.087 -1.1998 -0.6737  0.1710
   80SLPC  H15Y 7470   2.998   7.135   8.003 -0.4463 -1.4099 -0.2255
   80SLPC  C316 7471   2.972   7.051   8.193  0.1997 -0.1210  0.0335
   80SLPC  H16X 7472   3.011   6.947   8.183 -0.9267 -0.3616 -3.2964
   80SLPC  H16Y 7473   2.898   7.050   8.276  1.2555  1.8401  1.0537
   80SLPC  C317 7474   3.093   7.133   8.247 -0.1863  0.1345  0.1756
   80SLPC  H17X 7475   3.063   7.239   8.231 -0.8358  0.1871  1.5832
   80SLPC  H17Y 7476   3.177   7.106   8.180  1.3923  0.7711  1.8196
   80SLPC  C318 7477   3.125   7.126   8.396  0.0790 -0.7348 -0.5164
   80SLPC  H18X 7478   3.037   7.136   8.463 -1.1344  2.7219 -2.4301
   80SLPC  H18Y 7479   3.192   7.211   8.418  1.7027 -1.9281 -0.6416
   80SLPC  H18Z 7480   3.185   7.035   8.418  1.1972 -0.1704 -1.1197
   81SAPS     N 7481   5.043   3.209  11.024  0.2584  0.0305 -0.4206
   81SAPS   HN1 7482   5.000   3.185  11.116  0.7082  1.5028  0.2098
   81SAPS   HN2 7483   5.131   3.261  11.043 -0.8523  2.3672 -1.2560
   81SAPS   HN3 7484   4.977   3.274  10.978 -0.4163  0.5121  1.1421
   81SAPS   C12 7485   5.039   3.088  10.934  0.5123  0.0479 -0.0894
   81SAPS  H12A 7486   5.095   3.008  10.980 -0.4673 -0.2172  0.6659
   81SAPS   C13 7487   4.898   3.012  10.922  0.0899 -0.1615 -0.0054
   81SAPS  O13A 7488   4.797   3.067  10.970 -0.4104 -0.3919  0.1738
   81SAPS  O13B 7489   4.885   2.916  10.843 -0.0204  0.4548 -0.1395
   81SAPS   C11 7490   5.074   3.132  10.788 -0.7621  0.2960  0.2507
   81SAPS  H11A 7491   4.990   3.199  10.757  0.5701  1.5195 -0.8817
   81SAPS  H11B 7492   5.073   3.048  10.715 -1.3030  0.4633  0.0599
   81SAPS     P 7493   5.342   3.150  10.786 -0.0390  0.0408  0.2529
   81SAPS   O13 7494   5.436   3.246  10.848 -0.0901 -0.1552  0.4050
   81SAPS   O14 7495   5.342   3.023  10.861  0.4175 -0.6039  0.7760
   81SAPS   O12 7496   5.196   3.207  10.792  0.5456  0.5363  0.8231
   81SAPS   O11 7497   5.386   3.117  10.641  0.2318 -0.1930  0.3478
   81SAPS    C1 7498   5.323   3.168  10.526 -0.2753  0.0848  0.1688
   81SAPS    HA 7499   5.212   3.179  10.525 -0.4340 -0.8970 -2.7326
   81SAPS    HB 7500   5.364   3.265  10.492  0.6434 -0.7458 -1.1796
   81SAPS    C2 7501   5.349   3.070  10.410 -0.0929  0.4586  0.3086
   81SAPS    HS 7502   5.460   3.064  10.404 -0.1383 -0.9614  0.5369
   81SAPS   O21 7503   5.292   3.137  10.285  0.5727  0.4009  0.3239
   81SAPS   C21 7504   5.324   3.077  10.175 -0.1228  0.3935  0.1125
   81SAPS   O22 7505   5.424   3.002  10.160  0.4808  0.1772  0.3127
   81SAPS   C22 7506   5.232   3.116  10.059  0.1124  0.2341  0.1018
   81SAPS   H2R 7507   5.133   3.069  10.078  0.1578  0.7118  1.6350
   81SAPS   H2S 7508   5.223   3.227  10.054  1.0432  0.2789 -0.8391
   81SAPS    C3 7509   5.293   2.928  10.429 -0.0208  0.0921 -0.5565
   81SAPS    HX 7510   5.335   2.880  10.520  1.9765 -0.4795 -1.7098
   81SAPS    HY 7511   5.328   2.863  10.345 -0.3824  0.6449 -1.1477
   81SAPS   O31 7512   5.150   2.934  10.440  0.0356  0.8036 -0.0916
   81SAPS   C31 7513   5.093   2.816  10.413 -0.9748  0.1542  0.0911
   81SAPS   O32 7514   5.148   2.719  10.360 -0.0700  0.0951  0.0626
   81SAPS   C32 7515   4.943   2.826  10.441  0.4456 -0.4226 -0.4900
   81SAPS   H2X 7516   4.914   2.870  10.538  1.0469 -0.0410 -0.4770
   81SAPS   H2Y 7517   4.897   2.725  10.447 -2.4295  0.8917  2.0170
   81SAPS   C23 7518   5.272   3.048   9.922 -0.6962 -0.2152  0.0403
   81SAPS   H3R 7519   5.254   2.939   9.924 -1.3572 -0.1016  0.6876
   81SAPS   H3S 7520   5.382   3.057   9.909 -0.9517  2.3119 -0.9355
   81SAPS   C24 7521   5.198   3.116   9.803  0.8167 -0.2655 -0.0353
   81SAPS   H4R 7522   5.236   3.220   9.795  1.5251 -0.4970  0.2030
   81SAPS   H4S 7523   5.092   3.125   9.836  0.6328  1.2233 -0.9538
   81SAPS   C25 7524   5.208   3.043   9.670 -0.7030 -0.1342 -0.1386
   81SAPS   H5R 7525   5.228   2.936   9.682  3.9999  0.4151 -1.3184
   81SAPS   C26 7526   5.193   3.100   9.549  0.2799 -0.7168 -0.2107
   81SAPS   H6R 7527   5.200   3.028   9.466  0.0668 -0.3482 -0.5536
   81SAPS   C27 7528   5.153   3.243   9.512 -1.1268  0.0853  0.2073
   81SAPS   H7R 7529   5.109   3.304   9.593  1.2235  1.9139  0.2125
   81SAPS   H7S 7530   5.078   3.231   9.430 -1.7375  1.1133  0.6070
   81SAPS   C28 7531   5.277   3.311   9.459 -0.3868  0.0992  0.4872
   81SAPS   H8R 7532   5.346   3.336   9.541  0.4075  0.5618 -0.3101
   81SAPS   C29 7533   5.310   3.322   9.323  0.1619 -0.6250  0.2988
   81SAPS   H9R 7534   5.411   3.351   9.293 -0.7681  0.7125 -1.8560
   81SAPS  C210 7535   5.236   3.273   9.203  1.0689 -0.1539  0.9134
   81SAPS  H10R 7536   5.163   3.190   9.221 -0.0812  0.7982  0.7884
   81SAPS  H10S 7537   5.311   3.239   9.129  1.0188 -3.6593  2.2836
   81SAPS  C211 7538   5.140   3.381   9.157  0.4251 -0.4703 -0.6511
   81SAPS  H11R 7539   5.108   3.458   9.228 -2.3926 -2.7489  0.7433
   81SAPS  C212 7540   5.121   3.408   9.025 -0.0297  0.4601 -0.2802
   81SAPS  H12R 7541   5.063   3.497   8.996  1.0485  1.3249  0.1663
   81SAPS  C213 7542   5.180   3.333   8.906 -0.0284 -0.4431  0.0859
   81SAPS  H13R 7543   5.085   3.284   8.877  0.3172 -0.7923 -0.4661
   81SAPS  H13S 7544   5.258   3.255   8.914  1.3125  0.9060  0.6115
   81SAPS  C214 7545   5.214   3.423   8.792 -0.1316  0.2607 -0.8047
   81SAPS  H14R 7546   5.268   3.515   8.816  0.1749  0.1328 -0.9998
   81SAPS  C215 7547   5.183   3.395   8.659  0.3000 -0.4000 -0.4353
   81SAPS  H15R 7548   5.205   3.475   8.586  2.4446 -0.7162 -0.2072
   81SAPS  C216 7549   5.115   3.263   8.614  0.0951 -0.4978 -0.0289
   81SAPS  H16R 7550   5.008   3.266   8.645 -0.3984 -0.6683 -1.6003
   81SAPS  H16S 7551   5.148   3.169   8.661  0.8379  0.2905  1.0652
   81SAPS  C217 7552   5.121   3.251   8.458 -0.2604 -0.0928  1.0731
   81SAPS  H17R 7553   5.093   3.151   8.418  0.4793 -0.0743  0.4755
   81SAPS  H17S 7554   5.227   3.272   8.432 -0.2295 -1.8410 -0.3803
   81SAPS  C218 7555   5.047   3.358   8.387 -0.3213  0.1283  0.0388
   81SAPS  H18R 7556   5.094   3.456   8.412  0.6409 -0.6743  1.5574
   81SAPS  H18S 7557   4.938   3.368   8.406  0.0652 -0.0724  2.6949
   81SAPS  C219 7558   5.062   3.341   8.239 -0.0945  0.1680 -0.2565
   81SAPS  H19R 7559   5.166   3.330   8.202 -1.2002 -1.3146 -3.2530
   81SAPS  H19S 7560   5.036   3.437   8.190 -0.0562  0.8136  0.9502
   81SAPS  C220 7561   4.975   3.229   8.167  0.2376  0.5358 -0.6312
   81SAPS  H20R 7562   4.989   3.241   8.057 -2.3280 -1.3687 -1.2762
   81SAPS  H20S 7563   4.870   3.260   8.186  0.0945 -0.1416 -0.2993
   81SAPS  H20T 7564   5.001   3.128   8.205 -0.9811  0.0370 -1.0742
   81SAPS   C33 7565   4.882   2.887  10.310 -0.5828  0.0135 -0.7667
   81SAPS   H3X 7566   4.942   2.970  10.269  0.6468 -0.5899 -0.2343
   81SAPS   H3Y 7567   4.784   2.936  10.331 -0.0974  0.7376 -0.1557
   81SAPS   C34 7568   4.866   2.783  10.190 -0.4622  0.7508  0.4700
   81SAPS   H4X 7569   4.770   2.727  10.189 -0.0079 -0.0254  0.0952
   81SAPS   H4Y 7570   4.950   2.712  10.185 -2.9845 -2.4216 -0.1257
   81SAPS   C35 7571   4.861   2.861  10.047 -0.1038  1.1452  0.0444
   81SAPS   H5X 7572   4.947   2.931  10.040  2.6768 -2.0585 -1.3261
   81SAPS   H5Y 7573   4.766   2.917  10.057 -0.3048  0.9942 -0.8992
   81SAPS   C36 7574   4.861   2.766   9.927  0.8864 -0.7900 -0.3480
   81SAPS   H6X 7575   4.772   2.701   9.921  0.0943  0.2468 -0.1368
   81SAPS   H6Y 7576   4.943   2.691   9.923  1.4375 -0.1757 -1.2752
   81SAPS   C37 7577   4.869   2.847   9.796 -0.0344 -0.2784 -0.0615
   81SAPS   H7X 7578   4.930   2.940   9.808  0.0902 -0.2201 -1.0193
   81SAPS   H7Y 7579   4.771   2.884   9.759  0.5926  0.4399 -1.0789
   81SAPS   C38 7580   4.941   2.774   9.678 -0.4732  0.4238 -0.8486
   81SAPS   H8X 7581   4.898   2.671   9.668  0.1613  0.3734 -3.9133
   81SAPS   H8Y 7582   5.047   2.757   9.704 -0.9728 -0.0873  1.0256
   81SAPS   C39 7583   4.926   2.846   9.540  0.0013  0.6417 -0.1930
   81SAPS   H9X 7584   4.972   2.947   9.545 -0.9837  1.0935 -0.0141
   81SAPS   H9Y 7585   4.820   2.860   9.510 -0.6074 -0.5243  1.2724
   81SAPS  C310 7586   4.995   2.755   9.437  0.1038 -0.1294  0.0487
   81SAPS  H10X 7587   4.963   2.650   9.452  1.3817 -0.1905  3.0067
   81SAPS  H10Y 7588   5.103   2.768   9.459  0.7358 -2.4192 -1.3497
   81SAPS  C311 7589   4.974   2.793   9.293 -0.4259  0.1945 -0.8758
   81SAPS  H11X 7590   5.035   2.885   9.280  0.6983 -0.3322  0.3929
   81SAPS  H11Y 7591   4.874   2.822   9.254 -1.0012 -0.2264  0.2354
   81SAPS  C312 7592   5.015   2.699   9.184 -0.1284 -0.2391  0.4518
   81SAPS  H12X 7593   4.985   2.739   9.085 -0.0380  2.2720  1.3694
   81SAPS  H12Y 7594   4.959   2.607   9.210 -1.3093  0.5082  0.6312
   81SAPS  C313 7595   5.166   2.660   9.183 -0.1772 -0.2104  0.7693
   81SAPS  H13X 7596   5.203   2.654   9.288  1.5146  0.5448  0.2537
   81SAPS  H13Y 7597   5.216   2.740   9.124 -0.1353 -1.3283 -0.7632
   81SAPS  C314 7598   5.190   2.526   9.112  0.1862 -0.0324 -0.0204
   81SAPS  H14X 7599   5.184   2.540   9.001 -1.5269  1.4512  0.2014
   81SAPS  H14Y 7600   5.112   2.452   9.139 -0.4559  0.4254 -0.5787
   81SAPS  C315 7601   5.336   2.476   9.132  0.2050 -0.4372 -0.2450
   81SAPS  H15X 7602   5.342   2.451   9.240  3.4178  1.0613  0.0402
   81SAPS  H15Y 7603   5.417   2.552   9.122  1.6128 -1.4243  2.7356
   81SAPS  C316 7604   5.381   2.360   9.051  0.0114  0.5926  0.2564
   81SAPS  H16X 7605   5.296   2.290   9.063 -0.6762  1.4990  0.6940
   81SAPS  H16Y 7606   5.480   2.324   9.090  1.1257 -1.0558 -3.6146
   81SAPS  C317 7607   5.405   2.399   8.911 -0.2630  0.0160 -0.0806
   81SAPS  H17X 7608   5.472   2.487   8.910 -0.0214 -0.1577  0.3798
   81SAPS  H17Y 7609   5.309   2.431   8.867 -1.9179 -0.4543  2.8805
   81SAPS  C318 7610   5.463   2.280   8.826 -0.2191  0.3869  0.0429
   81SAPS  H18X 7611   5.408   2.186   8.848  0.5942 -0.2894 -0.7380
   81SAPS  H18Y 7612   5.573   2.276   8.842  0.0502 -1.4796 -1.8673
   81SAPS  H18Z 7613   5.445   2.301   8.719 -0.4647 -1.3798 -0.2881
   82SAPS     N 7614   4.056   3.721  10.786 -0.1313 -0.1820 -0.5563
   82SAPS   HN1 7615   4.085   3.797  10.851  0.3356 -0.8583  0.0354
   82SAPS   HN2 7616   4.132   3.655  10.760 -0.1814 -1.1192  1.5058
   82SAPS   HN3 7617   4.040   3.772  10.696  2.3044  1.3255 -0.2402
   82SAPS   C12 7618   3.936   3.654  10.848  0.6234  0.1421  0.3600
   82SAPS  H12A 7619   3.926   3.558  10.799 -0.8213 -0.0175  0.9294
   82SAPS   C13 7620   3.942   3.613  10.998 -0.3797 -0.9570  0.1504
   82SAPS  O13A 7621   4.052   3.612  11.057 -0.0375  0.2612 -0.1426
   82SAPS  O13B 7622   3.843   3.555  11.049  0.1417  0.1307 -0.0609
   82SAPS   C11 7623   3.819   3.746  10.817 -0.4110  0.6207 -0.3145
   82SAPS  H11A 7624   3.843   3.853  10.833  0.9689  0.3880 -0.7373
   82SAPS  H11B 7625   3.726   3.711  10.867 -0.2321  0.6929  0.0755
   82SAPS     P 7626   3.683   3.655  10.614 -0.2419  0.0409  0.5485
   82SAPS   O13 7627   3.698   3.645  10.470 -0.5331  0.5299  0.8629
   82SAPS   O14 7628   3.672   3.532  10.695 -0.8396  0.1295 -0.7003
   82SAPS   O12 7629   3.803   3.740  10.677 -0.6168  0.4473 -0.0904
   82SAPS   O11 7630   3.567   3.746  10.657  0.2289 -0.3202  0.1643
   82SAPS    C1 7631   3.535   3.878  10.619  0.6139 -0.6604  0.1094
   82SAPS    HA 7632   3.475   3.927  10.699 -0.3309 -0.4453 -0.7192
   82SAPS    HB 7633   3.616   3.952  10.601 -2.0464  2.3950 -0.2261
   82SAPS    C2 7634   3.441   3.877  10.496 -0.4788  0.0102 -0.1545
   82SAPS    HS 7635   3.377   3.787  10.505  0.9149 -1.0252 -0.2617
   82SAPS   O21 7636   3.532   3.860  10.382  0.8264  0.2498 -0.1397
   82SAPS   C21 7637   3.489   3.790  10.285 -0.3221 -0.1708 -0.8668
   82SAPS   O22 7638   3.379   3.734  10.279 -0.0822  0.2190  0.4500
   82SAPS   C22 7639   3.597   3.778  10.176  0.1794 -0.1489 -0.6384
   82SAPS   H2R 7640   3.587   3.877  10.127 -2.7352  1.2990  2.4674
   82SAPS   H2S 7641   3.694   3.769  10.229 -0.4303  0.0328  0.5595
   82SAPS    C3 7642   3.365   4.006  10.474  0.2595 -0.9483 -0.2092
   82SAPS    HX 7643   3.440   4.088  10.474 -1.3323  0.5687 -0.3163
   82SAPS    HY 7644   3.313   4.017  10.571 -2.3061 -0.3928 -1.5699
   82SAPS   O31 7645   3.279   4.029  10.358 -0.6434 -0.4277 -0.2609
   82SAPS   C31 7646   3.161   3.965  10.366 -0.0290  0.5367  0.8046
   82SAPS   O32 7647   3.114   3.914  10.465  0.5791  0.3749 -0.4580
   82SAPS   C32 7648   3.092   3.961  10.226 -0.6053 -0.4221  0.1372
   82SAPS   H2X 7649   3.166   3.991  10.148  0.2939  0.5823  1.3363
   82SAPS   H2Y 7650   3.015   4.040  10.225  0.4039  0.5838  0.1542
   82SAPS   C23 7651   3.567   3.674  10.072  0.6010  0.1545  0.0234
   82SAPS   H3R 7652   3.560   3.577  10.126 -0.4250 -0.1410 -0.6052
   82SAPS   H3S 7653   3.661   3.664  10.014  1.9878 -0.0587  2.2027
   82SAPS   C24 7654   3.443   3.689   9.971 -0.1859  0.7146  0.4459
   82SAPS   H4R 7655   3.356   3.724  10.029 -1.0753 -0.6661 -0.0085
   82SAPS   H4S 7656   3.394   3.595   9.939  0.4553  0.6824 -0.4751
   82SAPS   C25 7657   3.471   3.794   9.872  0.7211 -0.0179  0.3052
   82SAPS   H5R 7658   3.416   3.886   9.896  2.1949  0.5764  1.4859
   82SAPS   C26 7659   3.546   3.782   9.763 -0.6508  0.1530  0.2108
   82SAPS   H6R 7660   3.554   3.864   9.691 -3.7037  0.9953  0.7359
   82SAPS   C27 7661   3.611   3.648   9.729 -0.2810  0.2839  0.6957
   82SAPS   H7R 7662   3.672   3.609   9.812  0.5402 -0.9537 -0.4416
   82SAPS   H7S 7663   3.690   3.689   9.663 -0.7841  2.0264  1.1284
   82SAPS   C28 7664   3.523   3.541   9.667  0.3999 -0.5320 -0.0297
   82SAPS   H8R 7665   3.420   3.567   9.638  1.1512 -2.0109 -5.0349
   82SAPS   C29 7666   3.558   3.417   9.632 -0.7371  0.1450  0.3951
   82SAPS   H9R 7667   3.486   3.366   9.567 -3.3888  1.3497  2.2183
   82SAPS  C210 7668   3.699   3.359   9.652  0.4131 -1.0574  0.6822
   82SAPS  H10R 7669   3.711   3.335   9.760  0.0639 -2.5829  0.4073
   82SAPS  H10S 7670   3.774   3.431   9.614 -0.6987  0.1000  0.6479
   82SAPS  C211 7671   3.717   3.230   9.578 -0.0224 -1.0349 -0.1782
   82SAPS  H11R 7672   3.747   3.144   9.640 -1.8812 -0.5550  1.4902
   82SAPS  C212 7673   3.703   3.212   9.446  0.7415 -0.2869 -0.1415
   82SAPS  H12R 7674   3.712   3.107   9.415 -0.0018 -0.4764  0.2709
   82SAPS  C213 7675   3.662   3.315   9.336 -0.2887 -0.2205  0.2023
   82SAPS  H13R 7676   3.554   3.337   9.345 -0.0402  1.5754 -0.7492
   82SAPS  H13S 7677   3.671   3.258   9.241  1.9673 -3.1227  1.9727
   82SAPS  C214 7678   3.752   3.441   9.331  0.5531  0.3264 -0.5289
   82SAPS  H14R 7679   3.746   3.497   9.426  1.4663  1.8833 -1.3455
   82SAPS  C215 7680   3.836   3.491   9.234  0.1084 -0.4300 -0.7369
   82SAPS  H15R 7681   3.873   3.593   9.252  1.5418 -1.3414  1.9123
   82SAPS  C216 7682   3.868   3.434   9.104  0.0376  0.4092 -0.1480
   82SAPS  H16R 7683   3.871   3.324   9.118  1.6846  0.3809 -0.5267
   82SAPS  H16S 7684   3.968   3.454   9.060  0.3700 -0.9071 -0.0544
   82SAPS  C217 7685   3.760   3.459   8.993  0.2518  0.6146  0.5009
   82SAPS  H17R 7686   3.742   3.568   8.992 -0.3554  0.5726 -2.1472
   82SAPS  H17S 7687   3.660   3.413   9.006 -1.1686  3.5655  0.8687
   82SAPS  C218 7688   3.825   3.439   8.853 -0.2458  0.8460 -0.1789
   82SAPS  H18R 7689   3.853   3.333   8.839  1.1132  1.1689 -0.0259
   82SAPS  H18S 7690   3.921   3.495   8.847 -0.0894  0.7028  0.8390
   82SAPS  C219 7691   3.723   3.470   8.743  0.5578  0.3260 -0.5229
   82SAPS  H19R 7692   3.775   3.502   8.650  0.7805 -1.0856 -0.8997
   82SAPS  H19S 7693   3.660   3.555   8.777 -0.5593  0.1220 -2.0222
   82SAPS  C220 7694   3.638   3.344   8.707  0.5147 -0.2304  0.3557
   82SAPS  H20R 7695   3.570   3.330   8.794 -1.3876 -3.2195 -1.4438
   82SAPS  H20S 7696   3.701   3.254   8.688  1.3057  0.1765  0.9842
   82SAPS  H20T 7697   3.571   3.364   8.622 -2.1330  3.4622  2.9958
   82SAPS   C33 7698   3.029   3.824  10.190 -0.0434 -0.7535  0.3742
   82SAPS   H3X 7699   2.947   3.796  10.259 -0.4756  0.2797  0.2948
   82SAPS   H3Y 7700   3.101   3.741  10.209 -1.3297 -1.8617  0.5319
   82SAPS   C34 7701   2.973   3.808  10.042  0.3233 -0.7804  0.2179
   82SAPS   H4X 7702   2.886   3.876  10.033  0.0356 -1.2014 -0.1327
   82SAPS   H4Y 7703   2.932   3.706  10.031  1.9993 -1.1957 -4.5480
   82SAPS   C35 7704   3.079   3.827   9.933  0.5124  0.6309 -0.4513
   82SAPS   H5X 7705   3.134   3.730   9.936 -1.6606 -0.7203 -1.7474
   82SAPS   H5Y 7706   3.134   3.920   9.956 -2.5584  2.0176  1.9232
   82SAPS   C36 7707   3.016   3.851   9.795  0.3675  0.3248  0.6207
   82SAPS   H6X 7708   2.980   3.956   9.798 -2.6741 -0.5979 -0.1044
   82SAPS   H6Y 7709   2.925   3.788   9.787  0.3099  0.2337  1.8334
   82SAPS   C37 7710   3.121   3.836   9.679  0.1772  0.2229 -0.0379
   82SAPS   H7X 7711   3.157   3.732   9.663  1.7424  0.8677 -0.9827
   82SAPS   H7Y 7712   3.212   3.896   9.703  0.7059 -0.7382  0.4074
   82SAPS   C38 7713   3.062   3.882   9.543  0.2916  0.4738  0.2906
   82SAPS   H8X 7714   3.145   3.912   9.475 -0.2924  1.5461  0.0352
   82SAPS   H8Y 7715   3.002   3.975   9.557  0.1867  0.7605 -1.7466
   82SAPS   C39 7716   2.979   3.772   9.467 -0.2169 -0.5581  0.3486
   82SAPS   H9X 7717   2.894   3.739   9.529  0.3141 -1.3023  0.6981
   82SAPS   H9Y 7718   3.034   3.677   9.449 -2.9335 -2.2042  0.2895
   82SAPS  C310 7719   2.913   3.830   9.335 -0.9118 -0.0867  0.5637
   82SAPS  H10X 7720   2.991   3.862   9.262  0.8875 -0.3995  2.2602
   82SAPS  H10Y 7721   2.873   3.931   9.357 -1.3262  0.5775 -2.7981
   82SAPS  C311 7722   2.808   3.741   9.272  0.4147  0.3474  0.3464
   82SAPS  H11X 7723   2.716   3.743   9.334 -0.5354  0.0805 -1.0057
   82SAPS  H11Y 7724   2.850   3.637   9.269  0.5453  0.3922 -2.7989
   82SAPS  C312 7725   2.766   3.789   9.127  0.3186 -0.0999  0.0472
   82SAPS  H12X 7726   2.859   3.784   9.067  1.5956  1.0882  1.8123
   82SAPS  H12Y 7727   2.737   3.896   9.133  0.4422 -0.1363  1.8929
   82SAPS  C313 7728   2.652   3.699   9.072 -0.7952 -0.3904  0.1237
   82SAPS  H13X 7729   2.564   3.709   9.138  1.2010  2.0986  2.6438
   82SAPS  H13Y 7730   2.682   3.592   9.065 -0.5603 -0.7269  4.1509
   82SAPS  C314 7731   2.607   3.749   8.933  0.0979  0.2325 -0.4255
   82SAPS  H14X 7732   2.534   3.833   8.941  0.3066  0.7099 -2.7833
   82SAPS  H14Y 7733   2.553   3.663   8.888  1.2283 -1.5730  1.4592
   82SAPS  C315 7734   2.723   3.800   8.839 -0.1663 -0.1561  0.0161
   82SAPS  H15X 7735   2.799   3.718   8.834 -0.2851 -0.4123  1.6883
   82SAPS  H15Y 7736   2.774   3.890   8.879 -0.1660 -0.3275  0.4027
   82SAPS  C316 7737   2.678   3.811   8.700 -0.0978  0.4599  0.2976
   82SAPS  H16X 7738   2.602   3.892   8.693 -0.7253 -0.1149  0.3417
   82SAPS  H16Y 7739   2.621   3.726   8.655  0.9285 -0.4981  0.7475
   82SAPS  C317 7740   2.795   3.828   8.602 -0.0740  0.2505 -0.2062
   82SAPS  H17X 7741   2.752   3.839   8.500 -0.5246  2.1356  0.1367
   82SAPS  H17Y 7742   2.859   3.738   8.601  1.3057  1.1057  2.2635
   82SAPS  C318 7743   2.884   3.947   8.630 -0.2834 -0.5675  0.4818
   82SAPS  H18X 7744   2.950   3.933   8.719  2.4673  0.8868 -1.1801
   82SAPS  H18Y 7745   2.826   4.041   8.642  2.9413  1.5131  0.9782
   82SAPS  H18Z 7746   2.961   3.958   8.551  0.8364 -0.3607  1.5592
   83SAPS     N 7747   4.473   3.398  11.031  0.1123 -0.5135 -0.1466
   83SAPS   HN1 7748   4.554   3.345  10.992  1.7241  0.3888  1.7959
   83SAPS   HN2 7749   4.448   3.345  11.116  0.7943  0.7168  0.8512
   83SAPS   HN3 7750   4.398   3.401  10.958 -0.0753  1.2639  0.0804
   83SAPS   C12 7751   4.504   3.536  11.089 -0.1055  0.4688  0.4652
   83SAPS  H12A 7752   4.409   3.558  11.134 -1.8804 -1.5441 -1.9955
   83SAPS   C13 7753   4.616   3.549  11.194 -0.7323  0.1126  0.4533
   83SAPS  O13A 7754   4.694   3.449  11.215 -0.3269  0.3166 -0.3275
   83SAPS  O13B 7755   4.644   3.665  11.243 -0.6917 -0.2707  0.2543
   83SAPS   C11 7756   4.534   3.636  10.976  0.1614 -1.3639 -0.5007
   83SAPS  H11A 7757   4.546   3.737  11.019  1.1512 -1.5210 -0.3672
   83SAPS  H11B 7758   4.453   3.643  10.900 -0.4965  1.6388  0.3469
   83SAPS     P 7759   4.723   3.705  10.804  0.2813  0.0353  0.1993
   83SAPS   O13 7760   4.757   3.824  10.881  0.2287  0.1521  0.4223
   83SAPS   O14 7761   4.835   3.636  10.733 -0.1137  0.3201  0.3939
   83SAPS   O12 7762   4.653   3.603  10.902  0.0558 -0.1183  0.0400
   83SAPS   O11 7763   4.608   3.728  10.698 -0.1420 -0.3043 -0.2515
   83SAPS    C1 7764   4.533   3.616  10.643  0.1466 -0.5892  0.4400
   83SAPS    HA 7765   4.554   3.522  10.698 -1.2748 -1.8654 -1.1207
   83SAPS    HB 7766   4.424   3.634  10.636  0.5884  1.6344 -3.3673
   83SAPS    C2 7767   4.582   3.601  10.499  0.3176 -0.7464  0.0837
   83SAPS    HS 7768   4.693   3.608  10.508  0.4564 -3.5011  2.1011
   83SAPS   O21 7769   4.510   3.702  10.423 -0.4773  0.2714  0.3045
   83SAPS   C21 7770   4.586   3.785  10.353  1.1629  0.0957 -0.8180
   83SAPS   O22 7771   4.702   3.803  10.374  0.0577  0.5601  0.1777
   83SAPS   C22 7772   4.503   3.835  10.242 -0.1688  0.0479 -0.3640
   83SAPS   H2R 7773   4.441   3.751  10.204 -2.2333 -0.1235  2.9502
   83SAPS   H2S 7774   4.443   3.914  10.292  1.9428  0.5978  1.4234
   83SAPS    C3 7775   4.553   3.464  10.441  0.3302  0.3838 -1.0613
   83SAPS    HX 7776   4.442   3.450  10.435  0.3746 -1.1937  0.8467
   83SAPS    HY 7777   4.583   3.383  10.510 -1.1789 -0.4129 -1.2937
   83SAPS   O31 7778   4.608   3.440  10.308  0.2010 -0.0832  0.1989
   83SAPS   C31 7779   4.737   3.415  10.305  0.4707  0.5894 -0.7336
   83SAPS   O32 7780   4.808   3.405  10.402 -0.2207  0.1199  0.1878
   83SAPS   C32 7781   4.781   3.411  10.151  0.2057  0.2297  0.2135
   83SAPS   H2X 7782   4.856   3.492  10.138 -1.0410  1.6385  1.3989
   83SAPS   H2Y 7783   4.685   3.434  10.101  0.9871  0.0544 -1.4187
   83SAPS   C23 7784   4.589   3.889  10.121  0.2295 -0.5183 -0.3991
   83SAPS   H3R 7785   4.654   3.975  10.146 -1.3577  0.3027  1.1062
   83SAPS   H3S 7786   4.509   3.926  10.053 -2.1070 -3.7411  0.3243
   83SAPS   C24 7787   4.662   3.779  10.040  0.0665 -0.0158  0.0776
   83SAPS   H4R 7788   4.721   3.734  10.123 -1.6284 -1.8766  0.3654
   83SAPS   H4S 7789   4.730   3.827   9.967 -1.1254 -0.3076 -1.2736
   83SAPS   C25 7790   4.573   3.676   9.977 -0.7149  0.3942 -0.0601
   83SAPS   H5R 7791   4.513   3.613  10.044 -1.3917  0.3609 -0.6864
   83SAPS   C26 7792   4.566   3.648   9.844  0.0824  0.0995 -0.5608
   83SAPS   H6R 7793   4.505   3.563   9.810  2.1829 -1.3242 -0.9690
   83SAPS   C27 7794   4.641   3.721   9.729 -0.2688 -0.1196 -0.0887
   83SAPS   H7R 7795   4.635   3.830   9.710  0.0157 -0.3042 -1.3028
   83SAPS   H7S 7796   4.587   3.680   9.640 -0.7924  0.0731  0.1364
   83SAPS   C28 7797   4.780   3.670   9.719  0.0237 -0.0449  0.0674
   83SAPS   H8R 7798   4.836   3.666   9.813  0.1345 -2.1965 -0.0363
   83SAPS   C29 7799   4.852   3.621   9.613  0.5043  0.8211 -0.5641
   83SAPS   H9R 7800   4.952   3.577   9.620  0.5363  0.8310 -0.9186
   83SAPS  C210 7801   4.787   3.608   9.478 -0.8469  0.1629  0.1223
   83SAPS  H10R 7802   4.695   3.546   9.481 -0.7362 -0.0913 -1.0261
   83SAPS  H10S 7803   4.858   3.544   9.420 -0.9385 -1.1775  1.4325
   83SAPS  C211 7804   4.760   3.726   9.395  0.1485 -0.8567  0.1618
   83SAPS  H11R 7805   4.735   3.816   9.453 -0.1498 -0.0106 -1.2225
   83SAPS  C212 7806   4.747   3.744   9.266 -0.2494  0.5651 -0.5412
   83SAPS  H12R 7807   4.715   3.840   9.224  0.7900  1.3135  0.3012
   83SAPS  C213 7808   4.757   3.637   9.161 -0.3531  0.2790 -0.0758
   83SAPS  H13R 7809   4.659   3.611   9.115  0.0582 -0.6801 -0.4535
   83SAPS  H13S 7810   4.809   3.546   9.198 -0.3666  0.4639  0.3981
   83SAPS  C214 7811   4.844   3.694   9.047 -0.8868 -0.2007 -0.8141
   83SAPS  H14R 7812   4.949   3.663   9.052 -0.6590  0.5741 -0.6410
   83SAPS  C215 7813   4.800   3.778   8.956 -0.4370 -0.3665  1.0903
   83SAPS  H15R 7814   4.875   3.801   8.879  0.8761 -0.9451  2.1712
   83SAPS  C216 7815   4.657   3.832   8.935 -0.5348 -0.0424 -0.2229
   83SAPS  H16R 7816   4.662   3.943   8.936  1.9596  0.0512 -3.7996
   83SAPS  H16S 7817   4.597   3.800   9.023  0.0878 -2.0527 -0.4833
   83SAPS  C217 7818   4.594   3.773   8.812  0.5826 -0.2033  0.6608
   83SAPS  H17R 7819   4.589   3.663   8.824 -0.8663 -0.2202 -0.0202
   83SAPS  H17S 7820   4.662   3.776   8.724 -0.6028 -0.1717 -0.2630
   83SAPS  C218 7821   4.461   3.830   8.768 -0.1048 -0.4172 -0.4866
   83SAPS  H18R 7822   4.459   3.941   8.765 -0.1404 -0.4261 -0.7614
   83SAPS  H18S 7823   4.382   3.804   8.842  0.6726  0.4544  0.6805
   83SAPS  C219 7824   4.412   3.780   8.631  0.4485 -0.2653  0.8173
   83SAPS  H19R 7825   4.483   3.804   8.549 -0.3922 -0.7613 -0.0792
   83SAPS  H19S 7826   4.323   3.840   8.602  0.2470 -1.2564 -0.7142
   83SAPS  C220 7827   4.374   3.627   8.629 -0.0183 -0.1721  0.1922
   83SAPS  H20R 7828   4.323   3.593   8.537 -1.8865  1.5371  0.5199
   83SAPS  H20S 7829   4.317   3.608   8.723 -2.5009  0.4639 -1.1189
   83SAPS  H20T 7830   4.464   3.562   8.637  0.7994  0.9745  0.6379
   83SAPS   C33 7831   4.845   3.272  10.117 -0.1649 -1.0794 -0.1469
   83SAPS   H3X 7832   4.788   3.192  10.170  0.5390 -0.5042  1.5485
   83SAPS   H3Y 7833   4.952   3.273  10.146 -0.2215  2.0405  0.3113
   83SAPS   C34 7834   4.850   3.251   9.965  0.5227  0.0320  0.0352
   83SAPS   H4X 7835   4.914   3.163   9.947 -0.5576 -1.2269  2.0138
   83SAPS   H4Y 7836   4.897   3.341   9.919  0.8514 -0.6966 -1.0867
   83SAPS   C35 7837   4.710   3.224   9.902  0.2007 -0.2094 -0.4762
   83SAPS   H5X 7838   4.644   3.305   9.940  0.6264  0.1063 -0.4008
   83SAPS   H5Y 7839   4.673   3.126   9.939 -1.0770  0.3469 -0.2268
   83SAPS   C36 7840   4.720   3.228   9.758  0.2509  0.1382  0.5833
   83SAPS   H6X 7841   4.791   3.153   9.715  0.6180 -0.1587  1.6850
   83SAPS   H6Y 7842   4.750   3.330   9.724  1.9796 -1.0627 -1.8402
   83SAPS   C37 7843   4.584   3.206   9.690  0.4608 -0.5733  0.6036
   83SAPS   H7X 7844   4.524   3.294   9.722 -1.5851 -1.1284 -1.4285
   83SAPS   H7Y 7845   4.532   3.114   9.721  1.6666 -1.5053 -0.0447
   83SAPS   C38 7846   4.588   3.221   9.537 -0.2476 -0.6116 -0.5356
   83SAPS   H8X 7847   4.641   3.315   9.510  0.2269 -0.5934  0.4005
   83SAPS   H8Y 7848   4.483   3.242   9.506 -1.4789 -2.9189  1.7367
   83SAPS   C39 7849   4.647   3.094   9.474  0.4559 -0.0141  0.0766
   83SAPS   H9X 7850   4.594   3.003   9.508  0.4930  0.2385  0.8503
   83SAPS   H9Y 7851   4.748   3.079   9.517  0.5346 -0.1661 -0.1656
   83SAPS  C310 7852   4.653   3.100   9.323  0.2624  0.3297 -0.3229
   83SAPS  H10X 7853   4.548   3.119   9.295 -0.3831 -0.1394  1.6249
   83SAPS  H10Y 7854   4.679   3.001   9.279 -0.2335  0.1031 -0.1056
   83SAPS  C311 7855   4.759   3.193   9.263  0.5358  0.3374  0.7499
   83SAPS  H11X 7856   4.853   3.177   9.321  1.6565 -1.6652 -1.4320
   83SAPS  H11Y 7857   4.724   3.297   9.280 -1.3364  0.6072 -3.5723
   83SAPS  C312 7858   4.781   3.172   9.114 -0.3879 -0.0879  0.9294
   83SAPS  H12X 7859   4.819   3.068   9.100 -1.9876 -0.3727 -2.1667
   83SAPS  H12Y 7860   4.865   3.238   9.083 -1.0797  0.4814  0.2022
   83SAPS  C313 7861   4.654   3.208   9.031  0.4344  0.2950  0.2172
   83SAPS  H13X 7862   4.623   3.315   9.040  0.3106  0.0859  3.3391
   83SAPS  H13Y 7863   4.564   3.152   9.063  1.3367 -1.4030 -0.0994
   83SAPS  C314 7864   4.679   3.180   8.884 -0.2333  0.2319  0.1263
   83SAPS  H14X 7865   4.741   3.087   8.880  0.1381  0.4709  0.2338
   83SAPS  H14Y 7866   4.740   3.263   8.841 -0.3382 -0.4760 -1.4772
   83SAPS  C315 7867   4.552   3.181   8.802 -0.4245 -0.2493 -0.4827
   83SAPS  H15X 7868   4.510   3.284   8.804 -0.7659 -0.3909  0.3436
   83SAPS  H15Y 7869   4.481   3.117   8.858  0.6267  0.5395  1.9312
   83SAPS  C316 7870   4.581   3.127   8.664 -0.2737  0.2557  0.2728
   83SAPS  H16X 7871   4.624   3.025   8.673 -0.0327  0.4723  1.9863
   83SAPS  H16Y 7872   4.644   3.195   8.603 -0.8702  0.0412 -0.5910
   83SAPS  C317 7873   4.455   3.115   8.577 -0.2540 -0.5096 -0.6728
   83SAPS  H17X 7874   4.423   3.221   8.566  1.7310  0.2567  0.3126
   83SAPS  H17Y 7875   4.381   3.065   8.642 -1.0904  0.3414 -0.9423
   83SAPS  C318 7876   4.472   3.049   8.438  0.0898 -0.0204  0.2840
   83SAPS  H18X 7877   4.378   3.038   8.379  0.2243 -2.4650  0.3943
   83SAPS  H18Y 7878   4.521   2.949   8.448 -1.3943 -1.2559 -2.9782
   83SAPS  H18Z 7879   4.550   3.107   8.384 -1.9340  0.9797 -1.7364
   84SAPS     N 7880   0.567   4.700  10.937 -0.3303 -0.1269 -0.4430
   84SAPS   HN1 7881   0.653   4.688  10.995 -0.9821 -2.4788  0.1316
   84SAPS   HN2 7882   0.520   4.792  10.938  0.6707  0.4090 -0.9291
   84SAPS   HN3 7883   0.497   4.624  10.946 -1.0268  0.5619  0.0594
   84SAPS   C12 7884   0.607   4.696  10.794 -0.9759 -1.2023  0.3552
   84SAPS  H12A 7885   0.518   4.681  10.735 -0.7168 -2.4483  0.2439
   84SAPS   C13 7886   0.672   4.819  10.736  0.0586  0.2158 -0.0609
   84SAPS  O13A 7887   0.676   4.920  10.812  0.8095  0.5669  0.1913
   84SAPS  O13B 7888   0.686   4.824  10.611 -0.5691  0.1455  0.0131
   84SAPS   C11 7889   0.694   4.567  10.771 -0.9626 -0.5511  0.0508
   84SAPS  H11A 7890   0.787   4.574  10.832 -0.2042 -1.4963 -0.9456
   84SAPS  H11B 7891   0.724   4.570  10.664 -1.3278 -0.7723 -0.0580
   84SAPS     P 7892   0.511   4.382  10.729 -0.0381  0.2756 -0.3564
   84SAPS   O13 7893   0.494   4.250  10.801 -0.2360  0.5443 -0.5468
   84SAPS   O14 7894   0.387   4.466  10.726  0.3019 -0.1086 -0.6008
   84SAPS   O12 7895   0.623   4.455  10.812 -0.5478 -0.6179 -0.1344
   84SAPS   O11 7896   0.574   4.356  10.587  0.1763 -0.4666  0.6434
   84SAPS    C1 7897   0.561   4.438  10.473 -1.3650  0.1785  0.3079
   84SAPS    HA 7898   0.455   4.461  10.447 -1.1448  0.6099 -0.2265
   84SAPS    HB 7899   0.616   4.533  10.488 -1.0480 -0.2857  2.3909
   84SAPS    C2 7900   0.619   4.353  10.353 -0.2462 -0.0780  0.0219
   84SAPS    HS 7901   0.631   4.430  10.274 -0.0871 -0.9836 -0.8594
   84SAPS   O21 7902   0.520   4.254  10.329  0.3285 -0.1081  0.5966
   84SAPS   C21 7903   0.493   4.230  10.198 -0.4373  0.0355 -0.4571
   84SAPS   O22 7904   0.561   4.275  10.108  0.5259  0.2841  0.3657
   84SAPS   C22 7905   0.368   4.138  10.185 -0.3518 -0.2409 -0.4398
   84SAPS   H2R 7906   0.396   4.035  10.216 -0.0017 -0.0499 -0.0992
   84SAPS   H2S 7907   0.291   4.178  10.255  1.2819  0.7362  0.9127
   84SAPS    C3 7908   0.755   4.293  10.393 -0.1002  0.2878 -0.4999
   84SAPS    HX 7909   0.748   4.224  10.480 -2.1991  0.9480 -0.0722
   84SAPS    HY 7910   0.809   4.380  10.437 -0.7395 -0.4240  1.8593
   84SAPS   O31 7911   0.820   4.244  10.278 -0.1346 -0.2129 -0.0911
   84SAPS   C31 7912   0.815   4.124  10.239 -0.1390  0.4493  0.9246
   84SAPS   O32 7913   0.766   4.031  10.296 -0.1295  0.3623 -0.5416
   84SAPS   C32 7914   0.897   4.109  10.108 -0.0069 -0.1201 -0.8218
   84SAPS   H2X 7915   0.995   4.062  10.129 -0.3397 -0.1675  0.6947
   84SAPS   H2Y 7916   0.917   4.210  10.065  3.7621 -0.4224 -0.1484
   84SAPS   C23 7917   0.313   4.148  10.040 -0.0295  1.0631  0.3580
   84SAPS   H3R 7918   0.377   4.104   9.960 -0.6502  1.1362 -0.1933
   84SAPS   H3S 7919   0.285   4.247   9.997 -0.1535  0.6749 -0.4743
   84SAPS   C24 7920   0.178   4.072  10.029 -0.3867 -0.3419  0.2788
   84SAPS   H4R 7921   0.142   4.076   9.924  0.3475  1.5213  0.0664
   84SAPS   H4S 7922   0.109   4.121  10.101  0.4289  0.2912  0.6439
   84SAPS   C25 7923   0.180   3.931  10.074  0.0532  0.2746  0.2940
   84SAPS   H5R 7924   0.183   3.921  10.183 -1.6928 -0.1460  0.3221
   84SAPS   C26 7925   0.177   3.825   9.994  0.0423 -0.0302 -0.4736
   84SAPS   H6R 7926   0.180   3.731  10.050 -1.8310 -0.1348 -0.4913
   84SAPS   C27 7927   0.188   3.828   9.841 -0.3564  0.0406 -0.3666
   84SAPS   H7R 7928   0.212   3.726   9.805 -0.5910  0.3794 -1.5177
   84SAPS   H7S 7929   0.274   3.888   9.805 -1.3583  0.4889 -2.1033
   84SAPS   C28 7930   0.073   3.890   9.770 -0.0452 -0.3034 -0.0479
   84SAPS   H8R 7931  -0.015   3.919   9.829 -0.5711 -1.6897 -0.1120
   84SAPS   C29 7932   0.074   3.924   9.637  0.1704 -0.1336 -0.5806
   84SAPS   H9R 7933  -0.012   3.982   9.598  0.4117  0.3173 -0.4514
   84SAPS  C210 7934   0.186   3.902   9.536 -0.1623 -0.1858  0.0169
   84SAPS  H10R 7935   0.132   3.879   9.442 -0.0735  0.8643 -0.2979
   84SAPS  H10S 7936   0.243   3.808   9.556  2.2868  0.6610 -2.3591
   84SAPS  C211 7937   0.290   4.014   9.513 -0.5239 -0.3526 -0.2884
   84SAPS  H11R 7938   0.314   4.073   9.603  1.5159 -1.9258  0.2636
   84SAPS  C212 7939   0.365   4.038   9.397  0.4609 -0.1597  0.0899
   84SAPS  H12R 7940   0.434   4.123   9.392  0.7204 -0.3680  0.0795
   84SAPS  C213 7941   0.353   3.960   9.272 -0.1749 -0.5185 -0.1011
   84SAPS  H13R 7942   0.323   3.856   9.297  0.8303 -1.0256 -0.9092
   84SAPS  H13S 7943   0.457   3.934   9.240  0.0042 -1.8228  1.4374
   84SAPS  C214 7944   0.254   4.002   9.164  0.3877  0.9093  0.2019
   84SAPS  H14R 7945   0.150   4.016   9.195  0.4555  2.1240 -0.0661
   84SAPS  C215 7946   0.288   4.033   9.031 -0.1500  1.0489  0.4427
   84SAPS  H15R 7947   0.202   4.051   8.964 -0.7312 -0.9166  0.5903
   84SAPS  C216 7948   0.434   4.021   8.972  0.4437 -0.0592  0.1445
   84SAPS  H16R 7949   0.513   3.988   9.043 -1.4768 -0.6483  2.1046
   84SAPS  H16S 7950   0.465   4.125   8.949 -0.2745 -0.2877 -2.0674
   84SAPS  C217 7951   0.442   3.922   8.856 -0.4193  1.0714 -0.5554
   84SAPS  H17R 7952   0.421   3.820   8.895  0.2802  1.1912  0.1690
   84SAPS  H17S 7953   0.548   3.918   8.824 -0.8442  0.2396 -1.9382
   84SAPS  C218 7954   0.350   3.957   8.743 -0.0802 -0.3134 -0.2771
   84SAPS  H18R 7955   0.243   3.958   8.774 -0.2328  0.2152 -0.7970
   84SAPS  H18S 7956   0.353   3.880   8.664 -2.9755 -0.1917 -0.5925
   84SAPS  C219 7957   0.373   4.094   8.673  0.1260  0.0088 -0.2954
   84SAPS  H19R 7958   0.339   4.179   8.736 -0.6957 -0.2883 -0.3316
   84SAPS  H19S 7959   0.297   4.102   8.592 -1.1005 -0.2835  0.7892
   84SAPS  C220 7960   0.513   4.114   8.616 -0.6344  0.5009 -0.3551
   84SAPS  H20R 7961   0.584   4.111   8.701  0.2517  3.0025 -0.9457
   84SAPS  H20S 7962   0.530   4.215   8.573  0.8148  1.0908  1.4695
   84SAPS  H20T 7963   0.544   4.036   8.544  2.5986  2.1430 -0.9267
   84SAPS   C33 7964   0.812   4.029  10.005 -0.5483  0.8254 -0.1749
   84SAPS   H3X 7965   0.717   4.084   9.992 -0.4276  1.2125  0.5362
   84SAPS   H3Y 7966   0.789   3.925  10.039 -1.9964  0.4266 -2.2306
   84SAPS   C34 7967   0.885   4.028   9.864  0.0307  0.1675  0.1992
   84SAPS   H4X 7968   0.978   3.967   9.860  0.3356  0.5302  1.3156
   84SAPS   H4Y 7969   0.909   4.132   9.831 -1.0502  0.4835  0.3666
   84SAPS   C35 7970   0.783   3.975   9.752  0.0413  0.4991  0.1196
   84SAPS   H5X 7971   0.689   4.035   9.750 -0.7505 -0.5311  2.7180
   84SAPS   H5Y 7972   0.765   3.874   9.793 -0.1554  0.8582  0.9574
   84SAPS   C36 7973   0.845   3.964   9.613  0.4056  0.2104 -0.5767
   84SAPS   H6X 7974   0.916   3.880   9.595 -0.1701  0.0319 -2.2750
   84SAPS   H6Y 7975   0.909   4.051   9.588 -1.4410  1.8677  0.2100
   84SAPS   C37 7976   0.735   3.948   9.505 -0.5306 -0.1370 -0.1560
   84SAPS   H7X 7977   0.661   4.028   9.481 -1.8657 -1.2149  0.2569
   84SAPS   H7Y 7978   0.682   3.853   9.527  0.6345 -0.6014  0.8338
   84SAPS   C38 7979   0.821   3.930   9.370 -0.6718 -0.6854 -0.4676
   84SAPS   H8X 7980   0.876   3.833   9.366 -2.6631 -1.8652 -0.5449
   84SAPS   H8Y 7981   0.882   4.022   9.357 -1.0514 -0.2662  0.6444
   84SAPS   C39 7982   0.729   3.926   9.242  0.2614  0.2856 -0.5319
   84SAPS   H9X 7983   0.698   4.029   9.214  2.2605  1.3803  1.0354
   84SAPS   H9Y 7984   0.645   3.860   9.274  0.7759 -0.2805 -0.3399
   84SAPS  C310 7985   0.790   3.854   9.121  0.1480  0.3485  0.3893
   84SAPS  H10X 7986   0.707   3.851   9.047 -0.0577  0.6700  0.6004
   84SAPS  H10Y 7987   0.808   3.745   9.128  0.6626  0.4083  0.0898
   84SAPS  C311 7988   0.914   3.933   9.067  0.3343 -0.3793 -0.0529
   84SAPS  H11X 7989   0.970   3.999   9.136 -1.3254  0.8682  0.1575
   84SAPS  H11Y 7990   0.862   4.011   9.008 -2.3175 -0.6693  1.7554
   84SAPS  C312 7991   1.003   3.840   8.977  0.5788  0.1957  0.1375
   84SAPS  H12X 7992   0.932   3.789   8.908  0.1938  0.3198  0.4323
   84SAPS  H12Y 7993   1.056   3.771   9.046  0.7083  0.3152  0.1575
   84SAPS  C313 7994   1.102   3.920   8.895  0.0258 -0.2514  0.7121
   84SAPS  H13X 7995   1.171   3.976   8.962  0.3901  0.2556 -0.0651
   84SAPS  H13Y 7996   1.049   3.989   8.826 -1.2447 -1.2650  0.6350
   84SAPS  C314 7997   1.196   3.826   8.811  0.3561  0.3090 -0.4790
   84SAPS  H14X 7998   1.115   3.802   8.739 -1.0604  1.3908  0.6750
   84SAPS  H14Y 7999   1.239   3.743   8.871 -0.2687  1.3276  1.4765
   84SAPS  C315 8000   1.312   3.896   8.736  0.9102  0.2429  0.0848
   84SAPS  H15X 8001   1.398   3.881   8.806  1.4271 -0.6456 -0.7179
   84SAPS  H15Y 8002   1.281   4.001   8.723 -2.4326 -0.1741  2.9871
   84SAPS  C316 8003   1.347   3.821   8.596 -1.0391  0.2198  0.1872
   84SAPS  H16X 8004   1.330   3.713   8.617 -0.0734  0.0775  0.2828
   84SAPS  H16Y 8005   1.456   3.837   8.580 -0.8658  0.0887  1.1750
   84SAPS  C317 8006   1.263   3.862   8.473  0.1160 -0.3439 -0.0431
   84SAPS  H17X 8007   1.270   3.970   8.447 -1.5652  0.3354  2.0294
   84SAPS  H17Y 8008   1.161   3.838   8.510  0.4543 -0.8621  0.5763
   84SAPS  C318 8009   1.297   3.773   8.351  0.3448  0.0501 -0.4131
   84SAPS  H18X 8010   1.293   3.821   8.251  3.2183 -1.0619 -1.1661
   84SAPS  H18Y 8011   1.230   3.686   8.366 -0.7164  0.9694  0.3458
   84SAPS  H18Z 8012   1.399   3.729   8.361 -0.3147 -1.4577 -0.0103
   85SAPS     N 8013   5.468   6.571  11.162 -0.1396  0.2372 -0.5550
   85SAPS   HN1 8014   5.436   6.587  11.260  0.9899 -0.1147 -0.1104
   85SAPS   HN2 8015   5.386   6.568  11.098  0.4115 -1.0818 -1.2501
   85SAPS   HN3 8016   5.509   6.476  11.175 -2.1303 -0.3827  2.3984
   85SAPS   C12 8017   5.571   6.657  11.121 -0.1938  0.2508 -0.1955
   85SAPS  H12A 8018   5.536   6.758  11.103  0.5481  0.8114  1.3794
   85SAPS   C13 8019   5.680   6.673  11.228 -0.4956  0.1867 -1.3781
   85SAPS  O13A 8020   5.665   6.631  11.347 -0.3946 -0.1574  0.4484
   85SAPS  O13B 8021   5.774   6.755  11.203  0.2683 -0.2778  0.0855
   85SAPS   C11 8022   5.646   6.600  10.995 -0.4526  0.3952 -0.8568
   85SAPS  H11A 8023   5.740   6.653  10.969  0.0723  0.2652  0.7023
   85SAPS  H11B 8024   5.577   6.623  10.910 -2.2499 -2.1560 -0.2060
   85SAPS     P 8025   5.640   6.361  10.879  0.1295 -0.0710  0.0490
   85SAPS   O13 8026   5.705   6.227  10.890 -0.1727 -0.1807  0.2806
   85SAPS   O14 8027   5.493   6.361  10.854 -0.6178 -0.1269 -0.1178
   85SAPS   O12 8028   5.669   6.460  11.000  0.6022  0.1055  0.3948
   85SAPS   O11 8029   5.709   6.447  10.760  0.3924  0.0148  0.0774
   85SAPS    C1 8030   5.827   6.415  10.704 -0.2860 -0.0084  0.4748
   85SAPS    HA 8031   5.899   6.494  10.731 -1.5812  0.8566  1.5468
   85SAPS    HB 8032   5.872   6.324  10.749  0.6654  0.7132  0.9967
   85SAPS    C2 8033   5.790   6.390  10.551 -0.1827 -0.2118 -0.6055
   85SAPS    HS 8034   5.706   6.317  10.544 -1.5513  1.3535 -1.2579
   85SAPS   O21 8035   5.908   6.354  10.480 -0.1411  0.6840  0.3151
   85SAPS   C21 8036   5.920   6.217  10.481 -0.8269  0.0735 -0.5068
   85SAPS   O22 8037   5.848   6.143  10.545 -0.2029 -0.0633  0.6543
   85SAPS   C22 8038   6.032   6.175  10.386  0.3403  0.3117 -0.5944
   85SAPS   H2R 8039   6.121   6.218  10.437 -0.8977  0.6939  1.3267
   85SAPS   H2S 8040   6.049   6.065  10.382  0.0480  0.2708 -0.6948
   85SAPS    C3 8041   5.728   6.514  10.484  0.0834 -0.2842  0.3228
   85SAPS    HX 8042   5.803   6.594  10.500  0.7735 -1.0765  1.1540
   85SAPS    HY 8043   5.633   6.539  10.535 -1.5496 -2.1957 -1.5690
   85SAPS   O31 8044   5.694   6.490  10.350 -0.8144 -0.5834 -0.1712
   85SAPS   C31 8045   5.703   6.586  10.255 -0.1592  0.0745 -1.0157
   85SAPS   O32 8046   5.733   6.703  10.274  0.0664 -0.2976 -0.1558
   85SAPS   C32 8047   5.686   6.511  10.119 -0.0691 -0.6844 -0.1344
   85SAPS   H2X 8048   5.578   6.491  10.098 -0.2872  1.3613 -1.2337
   85SAPS   H2Y 8049   5.745   6.417  10.123  1.1648  0.1091  1.2848
   85SAPS   C23 8050   6.003   6.221  10.241  0.1651  0.0891  0.1834
   85SAPS   H3R 8051   5.973   6.327  10.254  0.7461  0.0936  1.7752
   85SAPS   H3S 8052   5.916   6.166  10.199  0.0030 -1.2150  2.0966
   85SAPS   C24 8053   6.125   6.219  10.144  0.2479  0.2412 -0.7700
   85SAPS   H4R 8054   6.188   6.132  10.172  0.8590  0.0124 -2.6649
   85SAPS   H4S 8055   6.181   6.312  10.166 -0.4868  0.3989  0.5235
   85SAPS   C25 8056   6.080   6.218  10.001 -0.1217  0.0268  0.3149
   85SAPS   H5R 8057   6.004   6.145   9.967  0.7632 -0.0311 -1.6671
   85SAPS   C26 8058   6.125   6.299   9.899  0.0184 -0.4235 -0.2030
   85SAPS   H6R 8059   6.074   6.288   9.802 -0.4551 -0.1637  0.0107
   85SAPS   C27 8060   6.221   6.414   9.897  0.5248 -0.9461  0.2623
   85SAPS   H7R 8061   6.311   6.378   9.842  1.8132  1.9809  0.2988
   85SAPS   H7S 8062   6.252   6.432  10.002  1.9051 -0.7745 -0.1508
   85SAPS   C28 8063   6.170   6.536   9.818 -0.0023 -0.4164  0.2117
   85SAPS   H8R 8064   6.166   6.627   9.879 -0.3684 -0.7258  0.6492
   85SAPS   C29 8065   6.148   6.545   9.690 -0.0445 -0.7176  0.7206
   85SAPS   H9R 8066   6.120   6.648   9.663 -1.5042 -1.2644  0.1034
   85SAPS  C210 8067   6.168   6.450   9.566  0.0361 -0.1203 -0.3803
   85SAPS  H10R 8068   6.242   6.368   9.584  0.8750  1.3567  4.1036
   85SAPS  H10S 8069   6.218   6.519   9.495 -0.6506 -0.3216 -1.0675
   85SAPS  C211 8070   6.040   6.401   9.508 -0.0032  0.0395 -0.2900
   85SAPS  H11R 8071   5.964   6.375   9.583 -0.1688 -1.3466 -0.9207
   85SAPS  C212 8072   6.016   6.384   9.378  0.5112  0.3969  0.0637
   85SAPS  H12R 8073   5.915   6.354   9.346  0.7041 -1.9660  1.4217
   85SAPS  C213 8074   6.105   6.414   9.260 -0.1158 -0.5725 -0.4368
   85SAPS  H13R 8075   6.065   6.352   9.178  2.0615 -1.7233 -0.6934
   85SAPS  H13S 8076   6.204   6.370   9.285  0.1221 -0.7852 -1.7359
   85SAPS  C214 8077   6.109   6.554   9.220 -0.3556 -0.2932  1.3593
   85SAPS  H14R 8078   6.067   6.629   9.289 -0.3969  0.6383  0.3502
   85SAPS  C215 8079   6.180   6.593   9.113  0.5164  0.0089  0.1032
   85SAPS  H15R 8080   6.165   6.699   9.088  1.5916  0.3893  1.0030
   85SAPS  C216 8081   6.255   6.515   9.006  0.3587 -0.2782 -0.4034
   85SAPS  H16R 8082   6.284   6.418   9.052 -0.9741  0.6639  2.6716
   85SAPS  H16S 8083   6.346   6.573   8.978  0.7989 -0.5264  0.4889
   85SAPS  C217 8084   6.164   6.486   8.890  0.1820  0.1424  0.2169
   85SAPS  H17R 8085   6.139   6.582   8.841  1.8663  0.1182 -0.7740
   85SAPS  H17S 8086   6.081   6.423   8.928  0.9550 -0.3182  1.1703
   85SAPS  C218 8087   6.237   6.408   8.782 -0.0074  0.1753  0.6226
   85SAPS  H18R 8088   6.266   6.309   8.823  1.7374  0.1585 -0.5442
   85SAPS  H18S 8089   6.332   6.462   8.764  0.3576 -0.2885  1.1327
   85SAPS  C219 8090   6.157   6.412   8.642 -0.2576 -0.1287  0.0228
   85SAPS  H19R 8091   6.214   6.351   8.569 -1.4724 -2.1254  0.6769
   85SAPS  H19S 8092   6.157   6.518   8.608  1.3691  0.3863  1.4708
   85SAPS  C220 8093   6.012   6.355   8.652  0.4178  0.1959  0.4044
   85SAPS  H20R 8094   5.973   6.364   8.755 -1.8991  1.1306 -0.4888
   85SAPS  H20S 8095   6.005   6.245   8.634  0.5252  0.4011 -1.0033
   85SAPS  H20T 8096   5.944   6.411   8.585  0.3982  2.3489  2.1207
   85SAPS   C33 8097   5.750   6.604  10.014  0.2021 -0.1681 -0.0095
   85SAPS   H3X 8098   5.860   6.606  10.023  0.2180  1.6300 -0.2412
   85SAPS   H3Y 8099   5.706   6.705  10.029 -2.6313 -1.5075  1.5867
   85SAPS   C34 8100   5.708   6.557   9.871  0.3103 -0.6061  0.3420
   85SAPS   H4X 8101   5.603   6.520   9.864 -0.0606  0.5029 -0.1100
   85SAPS   H4Y 8102   5.764   6.461   9.857  2.1385  0.1034  2.2721
   85SAPS   C35 8103   5.741   6.654   9.757 -0.5493  0.2118  0.9347
   85SAPS   H5X 8104   5.852   6.651   9.748 -0.5502 -0.2808  1.0824
   85SAPS   H5Y 8105   5.700   6.755   9.777  1.1360  0.9026  1.0719
   85SAPS   C36 8106   5.683   6.599   9.621 -0.1720 -0.3459  0.1842
   85SAPS   H6X 8107   5.575   6.622   9.621 -0.1088 -0.0331  1.1962
   85SAPS   H6Y 8108   5.706   6.490   9.616  0.2760 -0.2168 -1.6167
   85SAPS   C37 8109   5.756   6.654   9.493 -0.2979 -0.3371 -0.0233
   85SAPS   H7X 8110   5.865   6.637   9.494 -0.0512  1.1632  1.1441
   85SAPS   H7Y 8111   5.746   6.763   9.508 -1.0349 -0.4951  0.7013
   85SAPS   C38 8112   5.692   6.608   9.367 -0.4604 -0.1975  0.3071
   85SAPS   H8X 8113   5.586   6.643   9.366 -0.7063 -0.9446 -0.3258
   85SAPS   H8Y 8114   5.699   6.498   9.361  0.2841 -0.1744  0.7042
   85SAPS   C39 8115   5.764   6.672   9.256 -0.3334 -0.4237  0.2715
   85SAPS   H9X 8116   5.871   6.646   9.268  0.2170  1.6530  0.1532
   85SAPS   H9Y 8117   5.745   6.781   9.264  0.1348 -0.3448  0.3103
   85SAPS  C310 8118   5.716   6.631   9.113 -0.1000  0.0853 -0.3114
   85SAPS  H10X 8119   5.617   6.667   9.078  0.2143  1.3237 -0.0074
   85SAPS  H10Y 8120   5.720   6.521   9.105 -1.2719  0.1536 -2.1456
   85SAPS  C311 8121   5.822   6.657   9.000 -0.3225 -0.6534  0.4346
   85SAPS  H11X 8122   5.923   6.613   9.016  0.3534  0.4982 -0.4815
   85SAPS  H11Y 8123   5.834   6.768   9.002  0.3973 -0.7263  0.5862
   85SAPS  C312 8124   5.769   6.621   8.855  0.1904 -0.1850  0.4879
   85SAPS  H12X 8125   5.660   6.643   8.860  0.3282  0.2562  2.4218
   85SAPS  H12Y 8126   5.776   6.510   8.853  2.5993 -0.0829 -0.9466
   85SAPS  C313 8127   5.835   6.697   8.739  0.0030 -0.7686  0.0508
   85SAPS  H13X 8128   5.946   6.691   8.735  0.0983  1.0119 -2.1037
   85SAPS  H13Y 8129   5.814   6.805   8.758 -0.7831 -1.0981  1.1614
   85SAPS  C314 8130   5.793   6.668   8.595  1.3130  0.2794 -0.3751
   85SAPS  H14X 8131   5.818   6.562   8.572 -0.1591  0.3074 -2.4410
   85SAPS  H14Y 8132   5.844   6.730   8.518 -0.6309  0.6575 -1.4337
   85SAPS  C315 8133   5.646   6.682   8.569  1.2290 -0.4093  0.3158
   85SAPS  H15X 8134   5.596   6.630   8.654  0.1962  0.1446  0.0634
   85SAPS  H15Y 8135   5.634   6.622   8.476 -1.3274 -0.1764  0.4114
   85SAPS  C316 8136   5.596   6.823   8.549  0.2571  0.0662  0.2496
   85SAPS  H16X 8137   5.668   6.883   8.489 -2.3182  1.7412 -1.3568
   85SAPS  H16Y 8138   5.583   6.874   8.646 -0.8637 -2.5693  1.5839
   85SAPS  C317 8139   5.456   6.834   8.489  0.1069 -0.3200  0.0210
   85SAPS  H17X 8140   5.426   6.939   8.509  0.5976 -0.0332 -0.7154
   85SAPS  H17Y 8141   5.385   6.771   8.547 -1.1588  0.6873 -0.3806
   85SAPS  C318 8142   5.460   6.814   8.341 -0.4221  0.0165  0.8832
   85SAPS  H18X 8143   5.357   6.813   8.299 -0.7085  0.2598  1.5815
   85SAPS  H18Y 8144   5.512   6.719   8.317 -0.2118 -0.3883  2.7753
   85SAPS  H18Z 8145   5.513   6.898   8.291 -0.7755 -1.6353 -2.6028
   86SAPS     N 8146   0.739   6.436  11.009  0.1127  0.1758 -0.1299
   86SAPS   HN1 8147   0.816   6.372  11.038  0.2809  0.8412  0.9136
   86SAPS   HN2 8148   0.765   6.476  10.916 -3.2386  2.8801 -0.1089
   86SAPS   HN3 8149   0.730   6.516  11.074 -2.1824  0.0244 -0.1749
   86SAPS   C12 8150   0.604   6.360  11.014 -1.1995  0.3059  0.1327
   86SAPS  H12A 8151   0.631   6.259  10.990 -0.5345  0.5907 -0.3668
   86SAPS   C13 8152   0.548   6.347  11.153  0.1680  0.5480 -0.1752
   86SAPS  O13A 8153   0.609   6.392  11.251 -0.0731 -0.2741  0.1313
   86SAPS  O13B 8154   0.430   6.303  11.165  0.2002  0.0221 -0.1066
   86SAPS   C11 8155   0.506   6.433  10.907  0.1816 -0.5243 -0.6849
   86SAPS  H11A 8156   0.481   6.536  10.940 -0.6292 -1.0610  0.4556
   86SAPS  H11B 8157   0.414   6.371  10.899  0.8336 -1.3119 -2.7576
   86SAPS     P 8158   0.486   6.499  10.658 -0.2518  0.3572  0.1957
   86SAPS   O13 8159   0.432   6.628  10.708  0.4862 -0.2255 -0.8271
   86SAPS   O14 8160   0.573   6.511  10.542 -0.4061 -0.4809 -0.0085
   86SAPS   O12 8161   0.567   6.426  10.776  0.4855  0.7493  0.1781
   86SAPS   O11 8162   0.372   6.393  10.615  0.3697  0.1672  0.0515
   86SAPS    C1 8163   0.386   6.254  10.641  0.1709 -0.0005  0.6937
   86SAPS    HA 8164   0.490   6.227  10.669  0.4845  0.9833  0.5197
   86SAPS    HB 8165   0.315   6.201  10.708  1.2835  1.6066  3.2879
   86SAPS    C2 8166   0.378   6.178  10.504  0.2597 -0.6906  0.2524
   86SAPS    HS 8167   0.435   6.085  10.528  0.2563 -0.2512  2.1677
   86SAPS   O21 8168   0.441   6.255  10.394  0.3420  0.3085  0.0640
   86SAPS   C21 8169   0.570   6.249  10.389 -0.4702 -0.0242 -0.7937
   86SAPS   O22 8170   0.654   6.202  10.462  0.1844  0.3172 -0.4202
   86SAPS   C22 8171   0.611   6.323  10.260 -0.3937 -0.3919 -0.6329
   86SAPS   H2R 8172   0.547   6.294  10.174  0.6788 -1.3308 -1.1360
   86SAPS   H2S 8173   0.599   6.430  10.288  1.8270 -0.3193  0.2866
   86SAPS    C3 8174   0.226   6.138  10.461 -0.8302 -0.0130 -0.2981
   86SAPS    HX 8175   0.173   6.234  10.443 -1.4812 -0.4067 -0.5006
   86SAPS    HY 8176   0.175   6.083  10.543 -3.2480 -0.5841 -2.0793
   86SAPS   O31 8177   0.204   6.067  10.338 -0.5055 -1.0453 -0.2060
   86SAPS   C31 8178   0.233   5.942  10.343  0.0056  0.5302  0.0134
   86SAPS   O32 8179   0.265   5.876  10.444  0.0510 -0.7494  0.1326
   86SAPS   C32 8180   0.211   5.880  10.205  0.5650  0.2140 -0.2401
   86SAPS   H2X 8181   0.105   5.847  10.204 -0.6014  3.6073  0.1713
   86SAPS   H2Y 8182   0.273   5.788  10.206 -0.6166 -0.6118  0.8844
   86SAPS   C23 8183   0.754   6.297  10.227 -0.0802  0.8088  0.3352
   86SAPS   H3R 8184   0.773   6.188  10.226 -2.4079  0.2900  2.5180
   86SAPS   H3S 8185   0.817   6.338  10.309 -3.4365  2.4062  2.3353
   86SAPS   C24 8186   0.801   6.363  10.092  0.0737 -0.1784  0.6106
   86SAPS   H4R 8187   0.740   6.326  10.007 -0.5123  0.9291  0.5323
   86SAPS   H4S 8188   0.903   6.322  10.074 -0.7369 -0.7217 -3.8226
   86SAPS   C25 8189   0.798   6.513  10.105  0.7162 -0.5085 -0.7087
   86SAPS   H5R 8190   0.799   6.553  10.207 -0.3973 -3.0733  0.3825
   86SAPS   C26 8191   0.789   6.603  10.004  0.8864  0.3863  0.6234
   86SAPS   H6R 8192   0.778   6.708  10.035  1.4050  0.2315  1.3702
   86SAPS   C27 8193   0.789   6.559   9.857  1.0088 -0.3898 -0.0938
   86SAPS   H7R 8194   0.682   6.548   9.831  1.4603 -1.5727 -1.5588
   86SAPS   H7S 8195   0.850   6.471   9.830  2.7875  0.8825 -0.3891
   86SAPS   C28 8196   0.845   6.671   9.773  0.5212 -0.3034 -0.0699
   86SAPS   H8R 8197   0.937   6.716   9.813  0.3061 -0.7431  0.9547
   86SAPS   C29 8198   0.798   6.718   9.660  0.1767 -0.0666 -0.8109
   86SAPS   H9R 8199   0.848   6.804   9.612 -1.1197  1.8158  1.0594
   86SAPS  C210 8200   0.683   6.666   9.576 -0.0043  0.8987  0.0674
   86SAPS  H10R 8201   0.660   6.754   9.512  0.9257  0.6613 -0.6149
   86SAPS  H10S 8202   0.591   6.651   9.637  0.5725  0.2123  0.7863
   86SAPS  C211 8203   0.721   6.557   9.483 -0.0666 -0.1260  0.2604
   86SAPS  H11R 8204   0.791   6.485   9.529  0.7088  0.3841 -0.0859
   86SAPS  C212 8205   0.709   6.555   9.351 -0.5072  0.9581 -0.0538
   86SAPS  H12R 8206   0.741   6.461   9.304  1.6510  2.6970 -2.2581
   86SAPS  C213 8207   0.654   6.651   9.256 -0.2825 -0.0286  0.9322
   86SAPS  H13R 8208   0.629   6.749   9.303 -1.8005 -0.6946  1.5509
   86SAPS  H13S 8209   0.563   6.619   9.201  1.2356 -0.9408 -1.2083
   86SAPS  C214 8210   0.774   6.658   9.163 -0.0275  0.3280 -0.2878
   86SAPS  H14R 8211   0.859   6.717   9.201  1.5584 -1.3224 -1.1164
   86SAPS  C215 8212   0.796   6.602   9.038  0.2797  0.2879 -0.4594
   86SAPS  H15R 8213   0.891   6.613   8.985 -0.3408 -0.1417 -1.7012
   86SAPS  C216 8214   0.706   6.511   8.964  0.8123 -0.0557  0.3837
   86SAPS  H16R 8215   0.602   6.537   8.992  1.2202  1.6976  0.4359
   86SAPS  H16S 8216   0.727   6.405   8.988 -0.4804 -0.5539 -0.5736
   86SAPS  C217 8217   0.709   6.531   8.808  0.2937  0.3053 -0.2162
   86SAPS  H17R 8218   0.692   6.635   8.776 -1.0895  0.7561  1.7611
   86SAPS  H17S 8219   0.623   6.472   8.772 -1.0214 -1.3944  4.7898
   86SAPS  C218 8220   0.840   6.477   8.752 -0.8817  0.4966 -0.2710
   86SAPS  H18R 8221   0.836   6.379   8.804 -2.1275  1.4944  1.6265
   86SAPS  H18S 8222   0.934   6.529   8.781 -0.0774 -1.1442  0.2410
   86SAPS  C219 8223   0.845   6.461   8.600  0.5294  0.5345  0.5728
   86SAPS  H19R 8224   0.940   6.428   8.552 -0.4381  1.5427 -2.2331
   86SAPS  H19S 8225   0.822   6.562   8.561 -0.0500  0.2893  0.2676
   86SAPS  C220 8226   0.739   6.368   8.539 -0.4102 -0.1145 -0.7450
   86SAPS  H20R 8227   0.760   6.344   8.432  1.1329  0.4056 -0.5918
   86SAPS  H20S 8228   0.639   6.414   8.547 -0.0270  0.4636  1.2940
   86SAPS  H20T 8229   0.736   6.266   8.584 -1.2395 -0.0214 -0.5825
   86SAPS   C33 8230   0.233   5.969  10.084 -0.4971  0.2349 -0.1318
   86SAPS   H3X 8231   0.341   5.971  10.057 -0.2213  2.3815  0.9495
   86SAPS   H3Y 8232   0.205   6.076  10.098  0.1542  0.6306 -1.6172
   86SAPS   C34 8233   0.158   5.921   9.957  0.4879  0.0281  0.1087
   86SAPS   H4X 8234   0.054   5.961   9.963  0.2240 -0.1862 -2.1073
   86SAPS   H4Y 8235   0.157   5.810   9.957  0.9648  0.0184  0.6143
   86SAPS   C35 8236   0.219   5.967   9.822 -0.0046 -0.2010 -0.1109
   86SAPS   H5X 8237   0.308   5.903   9.811  0.8692  1.1298 -1.1513
   86SAPS   H5Y 8238   0.255   6.072   9.821  0.3087 -0.3093 -0.0754
   86SAPS   C36 8239   0.120   5.957   9.705  0.3257  0.1831 -0.6948
   86SAPS   H6X 8240   0.165   6.009   9.618  0.5910  0.1747 -0.5621
   86SAPS   H6Y 8241   0.022   6.009   9.718  0.2281  0.3021 -1.8208
   86SAPS   C37 8242   0.099   5.810   9.673  0.0983 -0.1745 -0.3922
   86SAPS   H7X 8243   0.048   5.757   9.756  1.0049 -1.7754 -0.8172
   86SAPS   H7Y 8244   0.194   5.754   9.660 -1.0795 -2.3191 -0.2597
   86SAPS   C38 8245   0.016   5.787   9.541 -0.0536  0.0767  0.5455
   86SAPS   H8X 8246   0.045   5.683   9.517  2.1578  0.3529  1.6624
   86SAPS   H8Y 8247   0.062   5.855   9.466  0.6006  0.0040  0.8655
   86SAPS   C39 8248  -0.138   5.796   9.565  0.5476  0.1006 -0.6292
   86SAPS   H9X 8249  -0.176   5.900   9.550 -0.5620 -0.4508 -1.8820
   86SAPS   H9Y 8250  -0.155   5.772   9.672 -0.8652  1.7951 -0.4321
   86SAPS  C310 8251  -0.210   5.699   9.477 -0.0564  0.2332  1.2259
   86SAPS  H10X 8252  -0.303   5.678   9.536  0.2113  1.9055  2.3148
   86SAPS  H10Y 8253  -0.150   5.608   9.458 -3.0869 -1.7069  0.2263
   86SAPS  C311 8254  -0.254   5.737   9.334  0.2335  0.5793 -0.3013
   86SAPS  H11X 8255  -0.328   5.820   9.342 -1.0817 -0.6710  1.2581
   86SAPS  H11Y 8256  -0.301   5.651   9.281 -1.3334  1.6358 -0.7049
   86SAPS  C312 8257  -0.128   5.759   9.249  0.4087 -1.0990  0.0030
   86SAPS  H12X 8258  -0.064   5.669   9.248  3.2228  0.7358  1.1374
   86SAPS  H12Y 8259  -0.059   5.831   9.298 -0.1607  0.8163 -1.8611
   86SAPS  C313 8260  -0.167   5.810   9.108  0.0955 -0.0685  0.1008
   86SAPS  H13X 8261  -0.231   5.900   9.089 -2.0001 -1.5305 -0.1119
   86SAPS  H13Y 8262  -0.225   5.728   9.060  1.7192  0.6705 -3.5142
   86SAPS  C314 8263  -0.039   5.826   9.023 -0.3309 -0.4862  0.1832
   86SAPS  H14X 8264   0.021   5.734   9.007  0.7968  0.2845 -0.1597
   86SAPS  H14Y 8265   0.028   5.894   9.079 -0.5177 -0.6497  0.6118
   86SAPS  C315 8266  -0.054   5.882   8.876  0.4924  0.4215 -0.5720
   86SAPS  H15X 8267  -0.111   5.977   8.876  0.5313  0.4571  0.2808
   86SAPS  H15Y 8268  -0.130   5.815   8.829 -0.0256 -0.3269  1.2376
   86SAPS  C316 8269   0.074   5.888   8.803 -0.0485 -0.6596 -0.0962
   86SAPS  H16X 8270   0.131   5.793   8.812  2.7055  0.9279  0.2128
   86SAPS  H16Y 8271   0.142   5.964   8.845  2.3335 -0.4299 -3.8735
   86SAPS  C317 8272   0.063   5.921   8.653 -0.3011  0.7039  0.3478
   86SAPS  H17X 8273   0.011   5.835   8.607 -1.1847 -0.3183  3.0859
   86SAPS  H17Y 8274   0.166   5.943   8.617 -0.6680 -0.1896 -1.3287
   86SAPS  C318 8275  -0.010   6.049   8.629  0.3914 -0.2470 -0.0785
   86SAPS  H18X 8276  -0.000   6.076   8.522 -0.0015  0.0839 -0.0339
   86SAPS  H18Y 8277   0.035   6.128   8.692  2.9404 -1.2412 -0.5417
   86SAPS  H18Z 8278  -0.121   6.048   8.641  0.0003 -1.6746 -3.0218
   87SAPS     N 8279   1.363   1.216  10.620 -0.1621 -0.8880  0.2064
   87SAPS   HN1 8280   1.309   1.196  10.533  1.6993  1.2862 -1.5717
   87SAPS   HN2 8281   1.318   1.294  10.671 -0.5146 -1.7398  1.2303
   87SAPS   HN3 8282   1.460   1.242  10.595 -0.0694 -0.9043  0.5413
   87SAPS   C12 8283   1.367   1.105  10.716 -0.2910  0.2477 -0.1763
   87SAPS  H12A 8284   1.434   1.033  10.672 -0.1438  1.2525 -1.6783
   87SAPS   C13 8285   1.425   1.127  10.859 -0.0928 -0.3358  0.0773
   87SAPS  O13A 8286   1.472   1.238  10.882 -0.8517  0.2946  0.3022
   87SAPS  O13B 8287   1.442   1.022  10.933 -0.7321  0.7158  0.3635
   87SAPS   C11 8288   1.225   1.036  10.719  0.5429 -0.5848  0.3115
   87SAPS  H11A 8289   1.238   0.948  10.786  0.6105  0.2570  1.4384
   87SAPS  H11B 8290   1.200   0.992  10.620 -2.3347 -2.4703  1.7632
   87SAPS     P 8291   0.993   1.059  10.836 -0.3032  0.3861 -0.0620
   87SAPS   O13 8292   1.035   0.957  10.934  0.9843  0.2621 -0.6966
   87SAPS   O14 8293   0.902   1.171  10.881 -0.5072 -0.3373  0.3319
   87SAPS   O12 8294   1.123   1.122  10.772 -0.2119  0.5956  0.5182
   87SAPS   O11 8295   0.935   0.983  10.714  0.4170 -0.0584  0.0795
   87SAPS    C1 8296   0.917   1.055  10.597 -0.2819 -0.3196 -0.5530
   87SAPS    HA 8297   0.816   1.100  10.609  0.0904  0.2920  0.3744
   87SAPS    HB 8298   0.985   1.142  10.584  0.1716 -0.6128 -0.1507
   87SAPS    C2 8299   0.911   0.974  10.463 -0.0465 -0.0995 -0.4331
   87SAPS    HS 8300   0.926   1.053  10.387  1.3956 -1.0296 -1.1700
   87SAPS   O21 8301   0.783   0.905  10.447  0.4439 -0.4138  0.4917
   87SAPS   C21 8302   0.733   0.912  10.321 -0.6325 -0.5209 -0.4663
   87SAPS   O22 8303   0.783   0.979  10.236  0.4301 -0.0442 -0.0972
   87SAPS   C22 8304   0.607   0.821  10.313  0.1286 -0.6419  0.3851
   87SAPS   H2R 8305   0.589   0.762  10.406 -0.3617 -0.7604  0.2163
   87SAPS   H2S 8306   0.519   0.887  10.303 -0.5777 -1.6170 -0.0118
   87SAPS    C3 8307   1.032   0.876  10.432 -0.7419 -0.5172 -0.0606
   87SAPS    HX 8308   1.022   0.797  10.510 -3.7773 -0.1142  0.0844
   87SAPS    HY 8309   1.128   0.930  10.447  1.6539 -4.1159 -1.0904
   87SAPS   O31 8310   1.029   0.823  10.291 -0.0314  0.4350 -0.8534
   87SAPS   C31 8311   1.083   0.901  10.203 -0.4909 -0.2340  0.0505
   87SAPS   O32 8312   1.153   0.999  10.228 -0.8033  0.0745 -0.0480
   87SAPS   C32 8313   1.058   0.859  10.061  0.9604 -0.0787 -0.1526
   87SAPS   H2X 8314   1.107   0.941  10.004  2.1657 -0.2372  0.6035
   87SAPS   H2Y 8315   0.948   0.862  10.051  0.8999 -1.8269 -0.2896
   87SAPS   C23 8316   0.625   0.725  10.195  0.5796 -0.0130 -0.4058
   87SAPS   H3R 8317   0.697   0.643  10.220 -1.1355 -0.7500  2.6126
   87SAPS   H3S 8318   0.649   0.781  10.102 -0.7859  0.7533 -0.3204
   87SAPS   C24 8319   0.497   0.646  10.175  1.1404 -0.2135  0.8287
   87SAPS   H4R 8320   0.467   0.629  10.280 -0.9220  1.7907  0.6445
   87SAPS   H4S 8321   0.528   0.552  10.123 -0.9524  1.1795 -3.4745
   87SAPS   C25 8322   0.383   0.702  10.084 -0.8168  0.6635  0.1282
   87SAPS   H5R 8323   0.284   0.716  10.128 -1.8021 -1.2329 -1.3051
   87SAPS   C26 8324   0.384   0.712   9.946  0.2393 -0.6375  0.1539
   87SAPS   H6R 8325   0.287   0.749   9.909  0.8491  1.7536  0.7574
   87SAPS   C27 8326   0.502   0.680   9.855  0.0989  0.8868  0.3061
   87SAPS   H7R 8327   0.567   0.603   9.902  1.2766  1.3959 -0.4464
   87SAPS   H7S 8328   0.562   0.768   9.825  3.1578 -1.0299  0.3873
   87SAPS   C28 8329   0.438   0.615   9.735  0.3449  0.1897  0.6948
   87SAPS   H8R 8330   0.373   0.528   9.753 -1.2337  1.0123 -0.7517
   87SAPS   C29 8331   0.437   0.654   9.610 -0.3415  0.1790  0.2572
   87SAPS   H9R 8332   0.387   0.592   9.534  0.1508  0.2732 -0.1484
   87SAPS  C210 8333   0.524   0.765   9.556  0.7889  0.3402  0.6125
   87SAPS  H10R 8334   0.589   0.708   9.486  1.0737  1.4308 -0.0236
   87SAPS  H10S 8335   0.590   0.816   9.630  0.9466  0.1431  0.6101
   87SAPS  C211 8336   0.443   0.868   9.480 -0.1256  0.6701 -0.1791
   87SAPS  H11R 8337   0.354   0.907   9.532 -0.3028  0.7342 -0.5319
   87SAPS  C212 8338   0.475   0.928   9.363  0.3253 -0.0227 -0.5217
   87SAPS  H12R 8339   0.402   0.997   9.317  0.1557  0.0064 -0.2132
   87SAPS  C213 8340   0.611   0.909   9.303 -0.1502  0.5479 -0.0462
   87SAPS  H13R 8341   0.677   0.878   9.386 -1.3105  1.4934  1.2675
   87SAPS  H13S 8342   0.663   1.000   9.265  1.8925 -0.3993  0.3668
   87SAPS  C214 8343   0.605   0.809   9.191  0.0287 -0.0252 -0.1629
   87SAPS  H14R 8344   0.531   0.728   9.203  0.5031 -0.6123 -1.1082
   87SAPS  C215 8345   0.671   0.806   9.074 -0.5097  0.4255 -0.4540
   87SAPS  H15R 8346   0.653   0.714   9.016  0.1057 -0.4569  0.6901
   87SAPS  C216 8347   0.786   0.886   9.023 -1.0070  0.0840 -0.1398
   87SAPS  H16R 8348   0.880   0.828   9.028 -1.2365 -0.1925  3.2077
   87SAPS  H16S 8349   0.810   0.976   9.083  1.1096 -0.4675 -0.1001
   87SAPS  C217 8350   0.770   0.929   8.881  0.5073 -0.1942 -0.6258
   87SAPS  H17R 8351   0.683   0.995   8.861  1.0215  0.1824 -1.7537
   87SAPS  H17S 8352   0.755   0.835   8.823  0.0249 -0.6602  0.2377
   87SAPS  C218 8353   0.880   1.013   8.825 -0.1130  1.1453  0.5859
   87SAPS  H18R 8354   0.972   0.958   8.853 -0.4159 -0.5474 -1.4976
   87SAPS  H18S 8355   0.885   1.119   8.859  2.0046  1.4730 -0.5546
   87SAPS  C219 8356   0.874   1.007   8.666 -0.2043  0.3531  0.3508
   87SAPS  H19R 8357   0.772   1.045   8.647 -1.7324 -3.1110  0.8705
   87SAPS  H19S 8358   0.872   0.902   8.629 -0.1246  1.1993 -2.2156
   87SAPS  C220 8359   0.983   1.088   8.594  0.3883  0.4677  0.2173
   87SAPS  H20R 8360   1.079   1.071   8.647 -0.1703  0.3326  1.2115
   87SAPS  H20S 8361   0.971   1.198   8.607  0.9114  0.3748  1.6406
   87SAPS  H20T 8362   0.993   1.051   8.490 -1.8302  2.6356 -0.8806
   87SAPS   C33 8363   1.114   0.722  10.014  0.2188  0.4915  0.1683
   87SAPS   H3X 8364   1.071   0.633  10.064 -2.3192  0.6573 -1.5137
   87SAPS   H3Y 8365   1.224   0.705  10.018  0.1192 -0.3438 -0.3238
   87SAPS   C34 8366   1.064   0.704   9.860  0.1227 -0.0965 -0.1470
   87SAPS   H4X 8367   0.956   0.680   9.867 -0.2316  1.4753  0.2131
   87SAPS   H4Y 8368   1.122   0.630   9.801  2.3263  2.9205 -2.0966
   87SAPS   C35 8369   1.077   0.830   9.781 -0.0487  0.2470  0.0625
   87SAPS   H5X 8370   1.182   0.866   9.788 -0.0504  0.5766 -1.2558
   87SAPS   H5Y 8371   0.998   0.902   9.812  1.1086  1.5871  0.0037
   87SAPS   C36 8372   1.033   0.808   9.633  0.3764 -0.5868 -0.5064
   87SAPS   H6X 8373   1.012   0.908   9.589  1.3750  0.2144  0.7318
   87SAPS   H6Y 8374   0.934   0.761   9.619 -0.0764  0.2336 -0.1472
   87SAPS   C37 8375   1.139   0.746   9.544  0.2884 -0.3559 -0.1840
   87SAPS   H7X 8376   1.145   0.644   9.586 -1.7566 -0.4590 -0.0375
   87SAPS   H7Y 8377   1.236   0.798   9.558 -0.0634 -0.1219  1.6810
   87SAPS   C38 8378   1.086   0.744   9.398  0.7780  0.3821  0.3435
   87SAPS   H8X 8379   1.072   0.840   9.343  2.0852  1.8145  2.3401
   87SAPS   H8Y 8380   0.982   0.705   9.404  1.3564 -1.4134 -0.5358
   87SAPS   C39 8381   1.163   0.643   9.312  0.1607  0.1929 -0.3268
   87SAPS   H9X 8382   1.186   0.552   9.372 -0.2729  0.9259  0.9904
   87SAPS   H9Y 8383   1.260   0.687   9.282 -0.4469  1.5017 -0.4322
   87SAPS  C310 8384   1.080   0.612   9.183 -0.3428  0.2849 -0.2611
   87SAPS  H10X 8385   1.086   0.712   9.134  0.0077 -0.3523 -1.5807
   87SAPS  H10Y 8386   0.975   0.584   9.205 -0.8541  2.6826  0.7102
   87SAPS  C311 8387   1.131   0.501   9.092 -0.1594  0.2007 -0.6345
   87SAPS  H11X 8388   1.159   0.410   9.148  2.3608  1.3576  0.1437
   87SAPS  H11Y 8389   1.223   0.536   9.040  0.1387  1.6566  0.7783
   87SAPS  C312 8390   1.046   0.464   8.972 -0.0401 -0.3969 -0.0406
   87SAPS  H12X 8391   0.938   0.462   8.999 -0.1207  0.0880 -0.3186
   87SAPS  H12Y 8392   1.066   0.361   8.937 -0.5790  0.0724 -1.8530
   87SAPS  C313 8393   1.068   0.548   8.848 -0.4790 -0.5828 -0.1938
   87SAPS  H13X 8394   1.175   0.555   8.822 -0.8935  0.6148 -1.7237
   87SAPS  H13Y 8395   1.040   0.654   8.865  3.7771  0.6167  0.4151
   87SAPS  C314 8396   0.991   0.497   8.721  0.2897 -0.0058 -0.6376
   87SAPS  H14X 8397   0.884   0.522   8.738  0.7680  0.6225  1.8743
   87SAPS  H14Y 8398   0.998   0.386   8.715 -0.4574 -0.2406  1.7834
   87SAPS  C315 8399   1.038   0.565   8.602  0.0476 -0.0013  0.7658
   87SAPS  H15X 8400   1.134   0.524   8.567 -0.7015 -0.4698 -0.8196
   87SAPS  H15Y 8401   1.037   0.673   8.629 -0.7113 -0.1057  1.2111
   87SAPS  C316 8402   0.930   0.541   8.486 -0.5157  0.1280  0.2476
   87SAPS  H16X 8403   0.832   0.583   8.517 -0.4515  0.4887 -0.0381
   87SAPS  H16Y 8404   0.922   0.431   8.494 -0.7212  0.1670  0.5942
   87SAPS  C317 8405   0.994   0.582   8.348 -0.1076  0.3279 -0.3780
   87SAPS  H17X 8406   1.088   0.524   8.340 -1.1894 -1.3018 -1.8575
   87SAPS  H17Y 8407   1.025   0.689   8.348  2.6051 -0.3762  0.9724
   87SAPS  C318 8408   0.901   0.549   8.228 -0.8572 -0.1887  0.6032
   87SAPS  H18X 8409   0.828   0.633   8.227  0.1386  0.7037 -0.7657
   87SAPS  H18Y 8410   0.849   0.452   8.240 -1.3764 -0.0855 -0.6594
   87SAPS  H18Z 8411   0.954   0.557   8.131  0.2148  3.7298  1.3100
   88SAPS     N 8412   2.347   5.884  10.843  0.1682  0.4577  0.6186
   88SAPS   HN1 8413   2.249   5.899  10.811  0.4371  1.2990  0.1464
   88SAPS   HN2 8414   2.385   5.796  10.804 -1.5955  0.6641 -1.8248
   88SAPS   HN3 8415   2.337   5.877  10.946 -1.8147  3.0513  0.7256
   88SAPS   C12 8416   2.425   6.010  10.808 -0.4413 -0.4591  0.3918
   88SAPS  H12A 8417   2.421   6.017  10.700 -0.3026  0.1242  0.4222
   88SAPS   C13 8418   2.377   6.140  10.885  0.4504 -0.0932 -0.2143
   88SAPS  O13A 8419   2.277   6.132  10.966  0.5652  0.3292 -0.5250
   88SAPS  O13B 8420   2.431   6.247  10.856  0.2937  0.3133 -0.4084
   88SAPS   C11 8421   2.570   5.988  10.849 -1.2346 -0.4920 -0.5794
   88SAPS  H11A 8422   2.585   5.992  10.959  0.8151  0.2418 -0.8400
   88SAPS  H11B 8423   2.641   6.072  10.831  0.6204 -1.5513  1.3158
   88SAPS     P 8424   2.718   5.850  10.670 -0.2525 -0.2101 -0.1572
   88SAPS   O13 8425   2.742   5.975  10.599 -0.2880 -0.4652  0.3942
   88SAPS   O14 8426   2.839   5.768  10.694 -0.3311  0.0284 -0.2054
   88SAPS   O12 8427   2.634   5.871  10.802  0.0134  0.4608  0.1442
   88SAPS   O11 8428   2.619   5.765  10.586 -0.7583  0.2725 -0.0190
   88SAPS    C1 8429   2.664   5.637  10.537  0.1347  0.4936  0.4675
   88SAPS    HA 8430   2.748   5.586  10.588  1.0928  1.5254 -0.0425
   88SAPS    HB 8431   2.580   5.563  10.530  0.0690  0.5917  0.2340
   88SAPS    C2 8432   2.712   5.653  10.391 -0.2721  0.0508  0.3303
   88SAPS    HS 8433   2.792   5.730  10.393 -1.7962  1.6572  1.2547
   88SAPS   O21 8434   2.616   5.698  10.299 -0.0391 -0.1961 -0.0127
   88SAPS   C21 8435   2.641   5.777  10.201 -0.0444  0.0408 -1.0686
   88SAPS   O22 8436   2.745   5.831  10.171 -0.1433 -0.2041 -0.2168
   88SAPS   C22 8437   2.500   5.826  10.155  0.4439 -0.3792 -0.5322
   88SAPS   H2R 8438   2.448   5.753  10.088 -0.4878  1.9651 -2.5378
   88SAPS   H2S 8439   2.444   5.843  10.249  0.8205 -0.5065 -0.2842
   88SAPS    C3 8440   2.776   5.517  10.346 -0.0097 -0.3928  0.5184
   88SAPS    HX 8441   2.696   5.441  10.336 -0.5482  0.2198  0.1437
   88SAPS    HY 8442   2.850   5.476  10.419 -0.7363 -2.0291  0.3752
   88SAPS   O31 8443   2.835   5.537  10.218  1.2918  0.6126  0.6099
   88SAPS   C31 8444   2.951   5.583  10.194 -0.0272 -0.4453 -0.2220
   88SAPS   O32 8445   3.033   5.624  10.277 -0.1540 -0.5766  0.4234
   88SAPS   C32 8446   3.007   5.527  10.053  0.5173  0.7088  0.0380
   88SAPS   H2X 8447   2.923   5.465  10.017  0.1067  0.1433  1.8930
   88SAPS   H2Y 8448   3.079   5.451  10.090 -0.7942 -0.1479  0.8752
   88SAPS   C23 8449   2.498   5.966  10.084 -0.1640 -0.3372 -0.1291
   88SAPS   H3R 8450   2.565   5.974   9.996  0.5028 -0.7264  0.3250
   88SAPS   H3S 8451   2.544   6.036  10.158 -0.8150  0.3671 -0.3822
   88SAPS   C24 8452   2.358   6.010  10.036 -1.2976  0.2595 -0.3791
   88SAPS   H4R 8453   2.345   6.121  10.035 -0.5665  0.4025  1.3780
   88SAPS   H4S 8454   2.296   5.986  10.125  1.1422 -0.6632  1.1812
   88SAPS   C25 8455   2.298   5.946   9.912  0.9004 -0.5463 -0.0808
   88SAPS   H5R 8456   2.236   5.858   9.933  1.5897 -1.5602 -2.0944
   88SAPS   C26 8457   2.326   5.980   9.781  0.0815  0.0310  0.3738
   88SAPS   H6R 8458   2.277   5.925   9.700  0.6800  1.3746 -0.9412
   88SAPS   C27 8459   2.425   6.087   9.723 -0.0403  0.3800 -1.2408
   88SAPS   H7R 8460   2.495   6.030   9.657  1.9568  0.0057  1.0352
   88SAPS   H7S 8461   2.494   6.131   9.798  0.6202 -0.0947 -1.5576
   88SAPS   C28 8462   2.347   6.189   9.653  0.0360 -0.4082  0.1116
   88SAPS   H8R 8463   2.301   6.258   9.726  0.2117 -2.6962  2.5031
   88SAPS   C29 8464   2.327   6.214   9.519  0.2297 -0.1274  0.0982
   88SAPS   H9R 8465   2.271   6.303   9.485  0.7575  0.2150  0.1095
   88SAPS  C210 8466   2.372   6.126   9.406 -0.0597  0.1236  0.1880
   88SAPS  H10R 8467   2.279   6.083   9.361  0.0900  1.5956 -1.6544
   88SAPS  H10S 8468   2.428   6.038   9.445 -0.6419 -0.1597  0.4093
   88SAPS  C211 8469   2.466   6.189   9.305 -0.1966 -0.9406  0.4861
   88SAPS  H11R 8470   2.565   6.199   9.351 -0.7128  1.0716  1.2581
   88SAPS  C212 8471   2.440   6.225   9.172 -0.0793 -0.2747  0.1325
   88SAPS  H12R 8472   2.525   6.259   9.111  1.0802 -2.8858  0.1239
   88SAPS  C213 8473   2.306   6.201   9.105  0.2404 -0.3921 -0.2943
   88SAPS  H13R 8474   2.227   6.248   9.167  1.2216 -1.1031  1.5537
   88SAPS  H13S 8475   2.275   6.095   9.097 -0.3683 -0.5208  2.6151
   88SAPS  C214 8476   2.306   6.272   8.969 -0.4271  0.4310 -0.5564
   88SAPS  H14R 8477   2.298   6.381   8.977  0.6567  0.5863 -1.3917
   88SAPS  C215 8478   2.300   6.206   8.850 -0.1825 -1.1882 -0.0524
   88SAPS  H15R 8479   2.290   6.262   8.756  0.8366 -0.0297  0.5085
   88SAPS  C216 8480   2.310   6.057   8.830  0.0361 -0.1538  0.4201
   88SAPS  H16R 8481   2.302   6.000   8.925 -0.5952 -1.8562 -0.6184
   88SAPS  H16S 8482   2.415   6.041   8.799 -0.1298  0.1201 -0.3089
   88SAPS  C217 8483   2.215   6.009   8.726 -0.2226  0.3663  0.2708
   88SAPS  H17R 8484   2.111   6.040   8.748 -1.4020 -0.7575 -3.1053
   88SAPS  H17S 8485   2.215   5.898   8.723 -1.5603  0.3084  1.5751
   88SAPS  C218 8486   2.249   6.056   8.585 -0.3751 -0.0264 -0.7939
   88SAPS  H18R 8487   2.356   6.045   8.559 -0.3943 -0.7940 -0.5793
   88SAPS  H18S 8488   2.238   6.166   8.577 -1.7158  0.1987  2.4294
   88SAPS  C219 8489   2.165   5.991   8.469 -0.2805 -0.1678  0.1281
   88SAPS  H19R 8490   2.185   5.882   8.471 -0.1136 -0.2232 -2.2977
   88SAPS  H19S 8491   2.197   6.027   8.369 -0.3247 -0.4842 -0.0002
   88SAPS  C220 8492   2.014   6.016   8.480  0.3137  0.3363  0.1153
   88SAPS  H20R 8493   1.961   5.982   8.389 -1.7032 -0.3875  1.5019
   88SAPS  H20S 8494   2.003   6.126   8.466 -1.7200  0.1773  0.2463
   88SAPS  H20T 8495   1.975   5.990   8.581  0.2493 -1.7170 -0.3986
   88SAPS   C33 8496   3.051   5.627   9.954  0.4478  0.3284  0.1160
   88SAPS   H3X 8497   3.051   5.573   9.858  0.9477 -1.5670  1.1363
   88SAPS   H3Y 8498   3.160   5.645   9.963  0.5563 -1.2348  3.2232
   88SAPS   C34 8499   2.961   5.744   9.930  0.5495  0.1854 -0.3764
   88SAPS   H4X 8500   3.001   5.815   9.853  1.7225 -0.9497 -0.8539
   88SAPS   H4Y 8501   2.959   5.798  10.027 -1.0070 -0.5990  0.0427
   88SAPS   C35 8502   2.808   5.721   9.893  0.0901 -0.0883 -0.2753
   88SAPS   H5X 8503   2.758   5.820   9.894 -0.4089 -0.3426  0.2877
   88SAPS   H5Y 8504   2.756   5.666   9.974  0.1726 -0.4303 -0.4524
   88SAPS   C36 8505   2.772   5.643   9.761 -1.0974 -0.1915  0.4505
   88SAPS   H6X 8506   2.661   5.633   9.754 -0.9269 -2.1335 -0.4054
   88SAPS   H6Y 8507   2.802   5.538   9.784  0.9178  0.5941  1.6083
   88SAPS   C37 8508   2.834   5.689   9.627  0.1562  0.1759 -0.1346
   88SAPS   H7X 8509   2.943   5.697   9.646  0.1090 -1.4100  0.9778
   88SAPS   H7Y 8510   2.792   5.786   9.593  0.7464  0.7592  0.7579
   88SAPS   C38 8511   2.833   5.583   9.514 -0.5589 -0.9688 -0.4193
   88SAPS   H8X 8512   2.729   5.574   9.475 -0.8564  2.7474 -0.8636
   88SAPS   H8Y 8513   2.866   5.491   9.567 -2.9909 -1.0407  1.1425
   88SAPS   C39 8514   2.932   5.615   9.397 -0.7622  0.5486 -0.2205
   88SAPS   H9X 8515   2.966   5.519   9.353 -1.0624 -0.9951  2.7091
   88SAPS   H9Y 8516   3.027   5.660   9.434  0.1378 -1.5427  0.1936
   88SAPS  C310 8517   2.882   5.707   9.290  0.0363  0.3276  0.2834
   88SAPS  H10X 8518   2.853   5.799   9.344  0.1480  0.7232 -0.3197
   88SAPS  H10Y 8519   2.783   5.680   9.248  0.8711 -2.5153 -0.0343
   88SAPS  C311 8520   2.991   5.746   9.180 -0.1485 -0.6529 -0.6062
   88SAPS  H11X 8521   3.089   5.755   9.231 -0.3573  0.3165 -0.3592
   88SAPS  H11Y 8522   2.955   5.837   9.128  0.0890 -0.0747  0.2402
   88SAPS  C312 8523   3.011   5.637   9.070  0.6154 -0.0692 -0.1484
   88SAPS  H12X 8524   2.916   5.580   9.060  0.2602  0.8456 -2.4089
   88SAPS  H12Y 8525   3.096   5.573   9.103  0.0185  0.1842  2.0665
   88SAPS  C313 8526   3.052   5.700   8.936  0.2539  0.4187 -0.1000
   88SAPS  H13X 8527   3.142   5.763   8.951 -0.5396  1.4097  0.6181
   88SAPS  H13Y 8528   2.975   5.777   8.914  0.0910  0.4935  0.6809
   88SAPS  C314 8529   3.068   5.605   8.818  0.2495 -0.5423 -0.6736
   88SAPS  H14X 8530   3.087   5.502   8.853  1.2121 -0.2533 -0.2994
   88SAPS  H14Y 8531   3.165   5.641   8.776  0.9696  2.8458  3.2214
   88SAPS  C315 8532   2.967   5.597   8.706  0.0150  0.7429  0.1974
   88SAPS  H15X 8533   2.865   5.573   8.745  0.0065  1.2345  0.4834
   88SAPS  H15Y 8534   3.000   5.506   8.652 -0.7180 -0.3561  1.5375
   88SAPS  C316 8535   2.958   5.722   8.620  0.4815 -0.0503 -0.1670
   88SAPS  H16X 8536   2.930   5.799   8.696 -0.8871 -0.6014 -0.0841
   88SAPS  H16Y 8537   2.877   5.705   8.546  0.2259  0.0557  0.0879
   88SAPS  C317 8538   3.082   5.756   8.536 -0.4690 -0.4363 -0.2867
   88SAPS  H17X 8539   3.178   5.746   8.591 -0.5698  0.1570 -0.0022
   88SAPS  H17Y 8540   3.069   5.853   8.484 -0.1296 -0.1257  0.2071
   88SAPS  C318 8541   3.092   5.664   8.415 -0.0691 -0.2275  0.2028
   88SAPS  H18X 8542   3.187   5.677   8.360  0.6773  0.8748  1.6818
   88SAPS  H18Y 8543   3.016   5.686   8.337  0.6370  1.8931  0.0452
   88SAPS  H18Z 8544   3.093   5.556   8.444 -0.0133 -0.7015 -1.4659
   89SAPS     N 8545   3.459   2.527  10.758  0.4949  0.2762 -0.1004
   89SAPS   HN1 8546   3.533   2.468  10.714 -0.2218 -3.3626  3.0551
   89SAPS   HN2 8547   3.400   2.566  10.682 -0.0379  0.7448  0.5476
   89SAPS   HN3 8548   3.502   2.603  10.814 -1.2236 -0.4924  2.4372
   89SAPS   C12 8549   3.380   2.437  10.849  0.8300  0.0036  0.7555
   89SAPS  H12A 8550   3.430   2.348  10.882 -0.5301 -0.5465  1.4123
   89SAPS   C13 8551   3.340   2.521  10.973 -0.8644  0.1610 -0.2471
   89SAPS  O13A 8552   3.357   2.649  10.965  0.1079 -0.4209 -0.3150
   89SAPS  O13B 8553   3.284   2.475  11.072 -0.0200 -0.2822 -0.6180
   89SAPS   C11 8554   3.255   2.381  10.773  0.2385  0.8506  0.3229
   89SAPS  H11A 8555   3.179   2.460  10.753 -1.8299 -0.7399  1.4417
   89SAPS  H11B 8556   3.215   2.310  10.849 -2.4217  0.7215 -1.0617
   89SAPS     P 8557   3.181   2.208  10.583  0.0999  0.3550 -0.0054
   89SAPS   O13 8558   3.151   2.104  10.689  0.0049  0.0265  0.3870
   89SAPS   O14 8559   3.064   2.279  10.532  0.4556 -0.0674 -0.0943
   89SAPS   O12 8560   3.289   2.307  10.645  0.2769 -0.7108 -1.0001
   89SAPS   O11 8561   3.265   2.151  10.464 -0.1253  0.4040  0.5128
   89SAPS    C1 8562   3.340   2.222  10.363  0.8910 -0.1042 -0.0992
   89SAPS    HA 8563   3.406   2.303  10.401 -0.0518  0.2244  0.8716
   89SAPS    HB 8564   3.406   2.146  10.316  1.3695  0.1128  0.2154
   89SAPS    C2 8565   3.240   2.276  10.251 -0.2848  0.2381  0.3446
   89SAPS    HS 8566   3.174   2.350  10.301  0.5339  0.4111  1.2193
   89SAPS   O21 8567   3.164   2.169  10.198  0.0165 -0.0415  0.4663
   89SAPS   C21 8568   3.047   2.210  10.145  0.2644  0.8648  0.0554
   89SAPS   O22 8569   3.007   2.322  10.136  0.2635 -0.0229  0.5272
   89SAPS   C22 8570   2.970   2.094  10.082  0.0034  0.5048  0.1230
   89SAPS   H2R 8571   3.028   2.067   9.991  0.5150  1.3521  0.1922
   89SAPS   H2S 8572   2.965   2.007  10.152  1.0918  1.4440  1.4240
   89SAPS    C3 8573   3.324   2.350  10.142  0.5705 -0.4157  0.2492
   89SAPS    HX 8574   3.375   2.255  10.113 -2.3762 -1.6788 -1.1850
   89SAPS    HY 8575   3.401   2.413  10.192 -0.3914 -0.7813  2.2956
   89SAPS   O31 8576   3.251   2.408  10.031  0.8363 -0.6514 -0.3373
   89SAPS   C31 8577   3.229   2.539  10.041  0.5037 -0.2723 -0.6543
   89SAPS   O32 8578   3.257   2.607  10.137 -0.3983 -0.4021 -0.1707
   89SAPS   C32 8579   3.151   2.588   9.923  0.1673  0.1753 -0.0143
   89SAPS   H2X 8580   3.229   2.576   9.844  1.5635 -1.8046  1.5705
   89SAPS   H2Y 8581   3.126   2.696   9.935  1.0428  0.2629  1.1451
   89SAPS   C23 8582   2.825   2.125  10.037 -0.5863  0.2077 -0.5256
   89SAPS   H3R 8583   2.768   2.167  10.124 -1.0959 -0.1759 -0.6675
   89SAPS   H3S 8584   2.793   2.021  10.015  3.6326 -2.0024  2.3917
   89SAPS   C24 8585   2.798   2.204   9.904  0.8365 -0.3369  0.0338
   89SAPS   H4R 8586   2.837   2.307   9.920  1.4227 -0.7032  1.0040
   89SAPS   H4S 8587   2.687   2.212   9.905  0.8709  0.8973  3.0339
   89SAPS   C25 8588   2.856   2.156   9.774 -0.3457 -0.2102  1.8881
   89SAPS   H5R 8589   2.950   2.100   9.787 -1.4812 -2.1166  2.3964
   89SAPS   C26 8590   2.802   2.154   9.652  0.7084 -0.0203  0.1454
   89SAPS   H6R 8591   2.866   2.127   9.566 -0.0564 -0.3869 -0.3159
   89SAPS   C27 8592   2.664   2.211   9.609  0.9292  0.6028 -0.1369
   89SAPS   H7R 8593   2.683   2.277   9.522  1.2334 -0.3293 -0.7943
   89SAPS   H7S 8594   2.609   2.268   9.687  0.3532  0.0300 -0.1172
   89SAPS   C28 8595   2.568   2.100   9.568 -0.6111  0.1375 -0.3669
   89SAPS   H8R 8596   2.526   2.055   9.659 -0.5444  0.8538  0.0246
   89SAPS   C29 8597   2.527   2.056   9.450  0.2350  0.7233 -0.0904
   89SAPS   H9R 8598   2.474   1.960   9.442  3.0511 -0.7857 -3.4107
   89SAPS  C210 8599   2.571   2.120   9.322  0.5423  0.0196  0.3310
   89SAPS  H10R 8600   2.667   2.172   9.342  0.9470 -0.5941  0.0177
   89SAPS  H10S 8601   2.488   2.191   9.304  1.7258  1.4278  0.3132
   89SAPS  C211 8602   2.595   2.028   9.208 -0.5175  0.3259 -0.7135
   89SAPS  H11R 8603   2.613   1.922   9.234 -0.4732  0.6711  0.7865
   89SAPS  C212 8604   2.579   2.051   9.072  0.4133 -0.1605 -0.1196
   89SAPS  H12R 8605   2.590   1.968   9.001 -0.3796  0.2470 -0.7305
   89SAPS  C213 8606   2.547   2.189   9.022  0.3534  0.8198 -0.2872
   89SAPS  H13R 8607   2.567   2.267   9.098 -1.0084  0.8546  0.0685
   89SAPS  H13S 8608   2.436   2.191   9.011  0.4507 -1.1012 -2.2964
   89SAPS  C214 8609   2.602   2.217   8.882 -0.1015  0.0407 -0.5108
   89SAPS  H14R 8610   2.711   2.230   8.874  0.1785 -1.2083  0.9022
   89SAPS  C215 8611   2.530   2.234   8.777 -0.0682  0.5650 -1.2243
   89SAPS  H15R 8612   2.587   2.254   8.685  0.4326 -3.4149 -1.9694
   89SAPS  C216 8613   2.378   2.223   8.766 -0.5371  0.2849 -0.3712
   89SAPS  H16R 8614   2.345   2.327   8.789  0.3517  0.2294  1.3256
   89SAPS  H16S 8615   2.335   2.153   8.842  2.2938  0.2673  1.3466
   89SAPS  C217 8616   2.342   2.190   8.623 -0.3268 -0.2214  0.4517
   89SAPS  H17R 8617   2.231   2.191   8.615 -0.2923  0.2634 -0.0286
   89SAPS  H17S 8618   2.384   2.088   8.609 -0.3188 -0.1804  0.1657
   89SAPS  C218 8619   2.401   2.271   8.502  0.1173 -0.1126  0.3693
   89SAPS  H18R 8620   2.508   2.300   8.497  0.6928 -1.9940  0.8883
   89SAPS  H18S 8621   2.345   2.367   8.506  0.5953  0.1676  0.3198
   89SAPS  C219 8622   2.367   2.211   8.378 -0.4223  0.4270 -0.1510
   89SAPS  H19R 8623   2.400   2.105   8.378 -1.1757  0.1661  1.4737
   89SAPS  H19S 8624   2.422   2.264   8.297  0.2734  1.2160  0.7989
   89SAPS  C220 8625   2.219   2.225   8.343  0.6246 -0.2253  0.2676
   89SAPS  H20R 8626   2.152   2.174   8.415 -0.8607 -1.2848 -1.7505
   89SAPS  H20S 8627   2.186   2.173   8.251 -0.3053 -1.3914  1.2277
   89SAPS  H20T 8628   2.190   2.331   8.321 -0.3958 -0.4154  0.6292
   89SAPS   C33 8629   3.019   2.520   9.894 -0.0381  0.2143 -0.0781
   89SAPS   H3X 8630   2.954   2.531   9.984 -1.7137 -0.3590 -1.1686
   89SAPS   H3Y 8631   3.030   2.410   9.889  1.1281  0.3616 -1.2028
   89SAPS   C34 8632   2.932   2.557   9.766 -1.0541  0.5980 -0.1992
   89SAPS   H4X 8633   2.866   2.644   9.790  0.0910  1.5580 -0.4287
   89SAPS   H4Y 8634   2.859   2.473   9.772  0.6797 -0.8678  4.1787
   89SAPS   C35 8635   3.018   2.569   9.643 -0.1122 -0.0392  0.0099
   89SAPS   H5X 8636   3.096   2.490   9.634 -0.0761 -0.0847  0.6383
   89SAPS   H5Y 8637   3.068   2.668   9.635 -0.4528 -0.0196 -2.3331
   89SAPS   C36 8638   2.926   2.567   9.523  0.9168  0.1521 -0.5697
   89SAPS   H6X 8639   2.843   2.636   9.546  2.2163  1.0874  1.6956
   89SAPS   H6Y 8640   2.884   2.464   9.525  0.2796  0.4134 -0.4807
   89SAPS   C37 8641   2.995   2.593   9.389  0.4705 -0.5698 -0.0258
   89SAPS   H7X 8642   3.090   2.536   9.395  2.5290  2.7492  1.5172
   89SAPS   H7Y 8643   3.027   2.699   9.385 -0.4731 -0.2325  0.8438
   89SAPS   C38 8644   2.907   2.549   9.269 -0.0533  1.0236 -0.1979
   89SAPS   H8X 8645   2.823   2.622   9.272  1.2309  2.5132  1.2647
   89SAPS   H8Y 8646   2.864   2.451   9.299 -0.2606  0.9520 -0.7104
   89SAPS   C39 8647   2.977   2.544   9.134  0.5402  0.5344 -0.3602
   89SAPS   H9X 8648   3.071   2.485   9.141  0.5483  0.7427  3.1028
   89SAPS   H9Y 8649   3.002   2.651   9.114  3.3145 -0.5174 -3.3370
   89SAPS  C310 8650   2.884   2.507   9.022  0.1496 -0.2399  0.3640
   89SAPS  H10X 8651   2.797   2.575   9.013  0.8822  0.5302 -1.2793
   89SAPS  H10Y 8652   2.844   2.406   9.045 -1.2464  0.3147  0.4808
   89SAPS  C311 8653   2.938   2.512   8.881  0.3524 -0.4953 -0.2668
   89SAPS  H11X 8654   3.008   2.425   8.872 -2.7904 -3.3375  0.7538
   89SAPS  H11Y 8655   3.006   2.600   8.877 -0.2869  0.1038  1.1993
   89SAPS  C312 8656   2.828   2.523   8.778 -0.7792 -0.1072  0.1158
   89SAPS  H12X 8657   2.747   2.592   8.810  0.4769  0.1910  2.8623
   89SAPS  H12Y 8658   2.790   2.422   8.748 -1.4891  0.3206 -0.4744
   89SAPS  C313 8659   2.886   2.570   8.636  0.6218  0.0505  0.7950
   89SAPS  H13X 8660   2.965   2.494   8.616 -0.6179 -1.5379  1.6050
   89SAPS  H13Y 8661   2.920   2.675   8.632 -0.4483  0.3761 -1.7966
   89SAPS  C314 8662   2.790   2.556   8.522  0.0859  0.3043 -0.3860
   89SAPS  H14X 8663   2.701   2.621   8.539 -1.4010 -1.6223 -0.4101
   89SAPS  H14Y 8664   2.766   2.450   8.498 -1.6918  0.3414  1.0264
   89SAPS  C315 8665   2.864   2.606   8.394  0.4508  0.1274  0.3601
   89SAPS  H15X 8666   2.960   2.551   8.387  0.2530 -0.6309  2.6879
   89SAPS  H15Y 8667   2.882   2.715   8.395  3.1540 -0.2701  0.2568
   89SAPS  C316 8668   2.787   2.585   8.260 -0.1578  0.4538 -0.4401
   89SAPS  H16X 8669   2.780   2.475   8.242  2.1660  0.5108 -2.0118
   89SAPS  H16Y 8670   2.838   2.639   8.178 -0.7858  1.6272 -0.0809
   89SAPS  C317 8671   2.652   2.654   8.254  0.3251  0.2285 -0.2336
   89SAPS  H17X 8672   2.659   2.759   8.292 -0.7106  0.0149  0.6104
   89SAPS  H17Y 8673   2.586   2.597   8.323  2.3434 -0.6521  1.0313
   89SAPS  C318 8674   2.581   2.652   8.121 -0.0144 -0.2330  0.1812
   89SAPS  H18X 8675   2.556   2.756   8.090  2.7171  0.4172 -0.1072
   89SAPS  H18Y 8676   2.486   2.597   8.139 -1.0461  1.3672 -0.1914
   89SAPS  H18Z 8677   2.639   2.609   8.037  3.0783  0.3835  1.8464
   90SAPS     N 8678   4.320   0.676  11.041  0.2753 -0.2741  0.6706
   90SAPS   HN1 8679   4.341   0.765  11.090  1.8149 -1.1247  1.6422
   90SAPS   HN2 8680   4.405   0.615  11.048  0.9248  0.4425 -0.6341
   90SAPS   HN3 8681   4.298   0.691  10.940  1.1429  1.3633  0.6931
   90SAPS   C12 8682   4.212   0.608  11.105  0.2790  0.5600 -0.1826
   90SAPS  H12A 8683   4.240   0.607  11.210 -0.6434  2.8417  0.1368
   90SAPS   C13 8684   4.074   0.686  11.110 -0.9027 -0.0996 -0.0586
   90SAPS  O13A 8685   4.064   0.799  11.052  0.0668 -0.1457 -0.4822
   90SAPS  O13B 8686   3.981   0.647  11.177  0.2894  0.5767 -0.2077
   90SAPS   C11 8687   4.183   0.478  11.029  0.3395  0.3123 -0.2559
   90SAPS  H11A 8688   4.095   0.434  11.080  1.3636  0.1821  1.4726
   90SAPS  H11B 8689   4.271   0.411  11.040 -0.3636 -0.8891 -1.6420
   90SAPS     P 8690   4.085   0.414  10.794 -0.0815  0.2671 -0.1454
   90SAPS   O13 8691   4.126   0.269  10.813 -0.4708 -0.0601  0.3846
   90SAPS   O14 8692   3.937   0.438  10.798 -0.0769  0.2252  0.1035
   90SAPS   O12 8693   4.162   0.508  10.892 -0.0696  0.1652 -0.1913
   90SAPS   O11 8694   4.148   0.461  10.655 -0.2109 -0.5326 -0.6938
   90SAPS    C1 8695   4.095   0.570  10.592  0.1806  0.1406  0.1686
   90SAPS    HA 8696   3.990   0.538  10.575  0.7489 -1.4007 -0.6103
   90SAPS    HB 8697   4.085   0.660  10.656 -1.6120  0.0858  0.0198
   90SAPS    C2 8698   4.174   0.614  10.462  0.1988 -0.2174 -1.0227
   90SAPS    HS 8699   4.151   0.717  10.428  0.2866  1.4965  3.4515
   90SAPS   O21 8700   4.156   0.506  10.370 -0.7030 -0.0440  0.2537
   90SAPS   C21 8701   4.116   0.547  10.246  0.0919  0.3782 -0.2140
   90SAPS   O22 8702   4.077   0.661  10.219 -0.6232  0.5790  0.4302
   90SAPS   C22 8703   4.126   0.424  10.156 -0.4980  0.0243  0.5563
   90SAPS   H2R 8704   4.191   0.345  10.198 -2.2375 -1.5520  0.4071
   90SAPS   H2S 8705   4.019   0.394  10.160 -0.5290 -0.1976 -1.2504
   90SAPS    C3 8706   4.324   0.636  10.492  0.8675  0.1150  0.1617
   90SAPS    HX 8707   4.355   0.546  10.550  3.2538  0.3710 -0.6010
   90SAPS    HY 8708   4.339   0.730  10.549  0.5556  1.3782 -1.7675
   90SAPS   O31 8709   4.390   0.641  10.361 -1.5719  0.6078 -0.7356
   90SAPS   C31 8710   4.423   0.758  10.308  0.3152  0.4841  0.0334
   90SAPS   O32 8711   4.418   0.866  10.363 -0.0011 -0.4319 -0.1958
   90SAPS   C32 8712   4.472   0.733  10.162 -0.0410 -0.7271  0.9093
   90SAPS   H2X 8713   4.437   0.631  10.135 -0.4225 -1.3391  3.4138
   90SAPS   H2Y 8714   4.581   0.752  10.156  0.6733 -4.0566  1.2358
   90SAPS   C23 8715   4.190   0.462  10.014 -0.0230 -0.3740 -0.1495
   90SAPS   H3R 8716   4.296   0.482  10.041  0.0274 -0.2698 -0.4198
   90SAPS   H3S 8717   4.151   0.562   9.986 -1.5769 -1.0070 -0.3827
   90SAPS   C24 8718   4.184   0.340   9.914  0.3985 -0.1193 -0.2899
   90SAPS   H4R 8719   4.075   0.324   9.900  0.4552 -0.4089 -0.4126
   90SAPS   H4S 8720   4.237   0.256   9.963  1.2010  0.9587  0.7434
   90SAPS   C25 8721   4.257   0.386   9.789 -0.4642 -0.3549  0.0922
   90SAPS   H5R 8722   4.366   0.374   9.779 -0.8124 -2.3110 -2.4618
   90SAPS   C26 8723   4.205   0.456   9.687  0.9997  0.4468  0.8038
   90SAPS   H6R 8724   4.254   0.466   9.589  1.0960 -3.0547  0.3753
   90SAPS   C27 8725   4.058   0.484   9.678  0.4222 -0.4563  0.1689
   90SAPS   H7R 8726   4.057   0.593   9.700  3.6989 -0.4571  0.8395
   90SAPS   H7S 8727   3.993   0.431   9.751 -0.1726 -1.9033 -1.3435
   90SAPS   C28 8728   3.999   0.456   9.540  0.1958  0.1564 -0.5757
   90SAPS   H8R 8729   3.937   0.365   9.547  2.8002 -1.5979  2.2731
   90SAPS   C29 8730   4.019   0.502   9.415 -0.7020  0.3130 -0.6938
   90SAPS   H9R 8731   3.974   0.461   9.323 -1.0509 -0.3509 -0.2359
   90SAPS  C210 8732   4.115   0.621   9.384 -0.3471  0.1727  0.1836
   90SAPS  H10R 8733   4.183   0.638   9.471 -0.2607  1.8727 -0.1755
   90SAPS  H10S 8734   4.052   0.712   9.382  1.3323  1.4282  1.3547
   90SAPS  C211 8735   4.194   0.589   9.261  0.6095  0.3026 -0.0649
   90SAPS  H11R 8736   4.288   0.534   9.276  1.3391  0.3681 -3.5017
   90SAPS  C212 8737   4.170   0.616   9.133  0.2785  0.9876  0.4163
   90SAPS  H12R 8738   4.242   0.576   9.060  0.1785 -2.3622  1.9781
   90SAPS  C213 8739   4.046   0.683   9.078  0.4142  0.6377 -1.3535
   90SAPS  H13R 8740   4.079   0.780   9.034  2.6735 -0.0784 -1.3563
   90SAPS  H13S 8741   3.986   0.722   9.163  0.2603 -0.7766 -0.7859
   90SAPS  C214 8742   3.985   0.579   8.984  0.1390 -0.0352 -0.5438
   90SAPS  H14R 8743   3.971   0.477   9.023  0.7674 -1.0265 -2.7469
   90SAPS  C215 8744   3.948   0.596   8.856 -0.5785 -0.9575  0.3465
   90SAPS  H15R 8745   3.902   0.519   8.792 -1.4255  0.4129 -0.7793
   90SAPS  C216 8746   3.964   0.723   8.767 -0.2490  0.8885  0.2397
   90SAPS  H16R 8747   3.983   0.696   8.661 -0.6540 -1.5271  0.7124
   90SAPS  H16S 8748   4.041   0.793   8.806 -0.0709  0.6398  0.3473
   90SAPS  C217 8749   3.820   0.797   8.762  0.0032  0.8542 -0.3783
   90SAPS  H17R 8750   3.809   0.860   8.853 -1.4769 -0.3688  0.3562
   90SAPS  H17S 8751   3.740   0.721   8.748  2.0054 -1.1581 -1.5621
   90SAPS  C218 8752   3.812   0.896   8.645  0.0803  0.3656 -0.2657
   90SAPS  H18R 8753   3.716   0.949   8.661  0.3531  0.5293  0.8669
   90SAPS  H18S 8754   3.811   0.837   8.551 -1.9297  0.6084 -0.4558
   90SAPS  C219 8755   3.924   0.997   8.656 -0.2089 -0.2538  0.4387
   90SAPS  H19R 8756   4.022   0.945   8.659  0.1887  0.5411  1.4022
   90SAPS  H19S 8757   3.906   1.059   8.746  1.2125 -0.7469  1.0819
   90SAPS  C220 8758   3.924   1.094   8.532 -0.1520 -0.1469 -0.3025
   90SAPS  H20R 8759   3.823   1.138   8.525 -1.0011 -2.1866 -1.9773
   90SAPS  H20S 8760   3.948   1.035   8.441  0.8215 -1.0672  0.5156
   90SAPS  H20T 8761   4.002   1.171   8.550  0.3200 -1.1064  2.1691
   90SAPS   C33 8762   4.406   0.840  10.065  0.1144 -0.2500  0.8469
   90SAPS   H3X 8763   4.447   0.941  10.084 -1.2664  0.4756  0.1886
   90SAPS   H3Y 8764   4.297   0.832  10.086  1.0825 -3.1588  7.0335
   90SAPS   C34 8765   4.436   0.793   9.919 -1.1450  0.8304  0.4058
   90SAPS   H4X 8766   4.403   0.687   9.907  1.9536 -0.6622  3.2409
   90SAPS   H4Y 8767   4.546   0.802   9.906 -1.1935  1.1424  0.2015
   90SAPS   C35 8768   4.356   0.882   9.823  0.3224  0.5587  0.1966
   90SAPS   H5X 8769   4.391   0.986   9.838  1.3257  0.4291 -1.0926
   90SAPS   H5Y 8770   4.246   0.866   9.830  0.4285 -0.3090  0.0768
   90SAPS   C36 8771   4.397   0.846   9.681  0.1038 -0.3001 -0.7035
   90SAPS   H6X 8772   4.383   0.736   9.675  2.7957 -1.1117  3.6656
   90SAPS   H6Y 8773   4.505   0.870   9.664  0.4956  1.8543  3.5223
   90SAPS   C37 8774   4.305   0.927   9.580 -0.2883  0.2233 -0.0684
   90SAPS   H7X 8775   4.312   1.035   9.603 -0.2874 -0.1471  1.7916
   90SAPS   H7Y 8776   4.202   0.885   9.585  0.2880 -1.2322  0.0306
   90SAPS   C38 8777   4.348   0.896   9.435 -0.0155 -0.4671 -0.9513
   90SAPS   H8X 8778   4.359   0.786   9.434 -3.3687 -0.9706  1.7280
   90SAPS   H8Y 8779   4.448   0.944   9.430 -0.1862  0.0026  0.0034
   90SAPS   C39 8780   4.245   0.945   9.323  0.0562 -0.7590  0.0895
   90SAPS   H9X 8781   4.214   1.050   9.338  0.2317 -0.7303  0.2452
   90SAPS   H9Y 8782   4.156   0.879   9.327  0.9888 -2.2098 -1.2545
   90SAPS  C310 8783   4.304   0.939   9.180  0.1299  0.9073 -0.0628
   90SAPS  H10X 8784   4.281   0.837   9.142  1.5274 -1.0388  3.7231
   90SAPS  H10Y 8785   4.414   0.950   9.187  0.3327 -0.2655 -1.1451
   90SAPS  C311 8786   4.244   1.042   9.084 -0.2843  0.6071 -0.7296
   90SAPS  H11X 8787   4.278   1.139   9.127 -1.5225  0.7913 -0.1412
   90SAPS  H11Y 8788   4.134   1.035   9.089 -0.3439  1.1855 -1.2342
   90SAPS  C312 8789   4.301   1.043   8.941  0.2787 -0.5227 -0.0727
   90SAPS  H12X 8790   4.282   0.949   8.885 -0.7666 -1.0176  1.0706
   90SAPS  H12Y 8791   4.408   1.055   8.965 -0.3260  1.5382  1.9362
   90SAPS  C313 8792   4.248   1.166   8.867 -0.3693  0.4040  0.5702
   90SAPS  H13X 8793   4.274   1.259   8.921 -0.1602  0.9674 -0.4730
   90SAPS  H13Y 8794   4.138   1.159   8.848 -0.1822  0.7544 -0.7266
   90SAPS  C314 8795   4.337   1.178   8.733  0.1747 -0.0541 -1.1306
   90SAPS  H14X 8796   4.338   1.077   8.689 -2.0699 -0.1838 -1.0045
   90SAPS  H14Y 8797   4.441   1.199   8.766 -0.6729  1.4696  0.8615
   90SAPS  C315 8798   4.319   1.310   8.653  0.4481 -0.6487  0.0885
   90SAPS  H15X 8799   4.301   1.398   8.718 -1.5447  1.2962 -2.8492
   90SAPS  H15Y 8800   4.243   1.313   8.572  0.5051 -0.3672  0.0425
   90SAPS  C316 8801   4.447   1.364   8.585  0.1919 -0.2922  0.3735
   90SAPS  H16X 8802   4.534   1.339   8.649 -0.0882 -1.8183  0.2000
   90SAPS  H16Y 8803   4.450   1.475   8.574  2.2041 -0.1873  1.4385
   90SAPS  C317 8804   4.476   1.301   8.446 -0.0753 -0.1358  0.3265
   90SAPS  H17X 8805   4.387   1.313   8.380  0.9962  1.2049 -0.9332
   90SAPS  H17Y 8806   4.497   1.193   8.459 -0.1689 -0.3380 -1.0921
   90SAPS  C318 8807   4.584   1.383   8.375 -0.1571  0.3857  0.2707
   90SAPS  H18X 8808   4.608   1.324   8.285 -0.9281 -1.3856  1.1854
   90SAPS  H18Y 8809   4.680   1.391   8.431 -0.0909 -1.1317  0.4045
   90SAPS  H18Z 8810   4.552   1.486   8.348  1.1066  0.7287  0.0434
   91SAPS     N 8811   2.002   5.585   5.726 -0.0681 -0.1829  0.0137
   91SAPS   HN1 8812   2.078   5.616   5.790 -0.2915 -0.4415  0.4020
   91SAPS   HN2 8813   1.917   5.543   5.767 -0.6972  2.1106  1.2470
   91SAPS   HN3 8814   2.033   5.520   5.650 -1.9053 -3.0933  1.5870
   91SAPS   C12 8815   1.952   5.713   5.658  0.4458  0.4777 -0.6025
   91SAPS  H12A 8816   2.035   5.770   5.621  1.7704 -0.5719  0.6313
   91SAPS   C13 8817   1.839   5.701   5.553 -0.4956 -0.0493  0.7519
   91SAPS  O13A 8818   1.797   5.589   5.516  0.2891  0.5619  0.3917
   91SAPS  O13B 8819   1.819   5.806   5.482  0.5417 -0.2521  0.1299
   91SAPS   C11 8820   1.891   5.800   5.772 -0.2330 -0.2613 -0.3637
   91SAPS  H11A 8821   1.847   5.890   5.726 -1.5811 -0.1203  1.1236
   91SAPS  H11B 8822   1.978   5.830   5.835  0.1961 -0.7971 -0.6786
   91SAPS     P 8823   1.717   5.818   5.963 -0.7827  0.2726  0.4646
   91SAPS   O13 8824   1.693   5.958   5.923  0.2708 -0.4230  0.4839
   91SAPS   O14 8825   1.609   5.742   6.023  0.4531  0.0134  0.4517
   91SAPS   O12 8826   1.787   5.726   5.849 -0.4830  0.0646 -0.6498
   91SAPS   O11 8827   1.830   5.820   6.068 -0.2939 -0.0653  0.0100
   91SAPS    C1 8828   1.847   5.716   6.168 -0.0213  0.1815  0.4448
   91SAPS    HA 8829   1.806   5.620   6.130  2.4008 -0.7233 -0.0451
   91SAPS    HB 8830   1.955   5.706   6.191  0.8137  0.4581 -2.8082
   91SAPS    C2 8831   1.771   5.758   6.296 -0.2275  0.2292  0.1655
   91SAPS    HS 8832   1.681   5.811   6.259 -0.0504  0.3363 -0.1154
   91SAPS   O21 8833   1.850   5.841   6.386 -0.1224  0.1985 -0.1847
   91SAPS   C21 8834   1.789   5.949   6.428  0.0445  0.3186  0.5482
   91SAPS   O22 8835   1.672   5.973   6.416  0.2356 -0.8510  0.6390
   91SAPS   C22 8836   1.887   6.050   6.482  0.3506  0.0864 -0.2034
   91SAPS   H2R 8837   1.982   6.000   6.510  0.5131 -0.5675 -1.8376
   91SAPS   H2S 8838   1.910   6.117   6.397 -1.7403  1.2847  0.1012
   91SAPS    C3 8839   1.724   5.637   6.380 -0.8321 -0.1360  0.0455
   91SAPS    HX 8840   1.820   5.585   6.398  1.0621  2.1328 -2.6015
   91SAPS    HY 8841   1.670   5.574   6.305  1.6311 -0.2450 -1.7757
   91SAPS   O31 8842   1.654   5.688   6.495 -0.4955 -0.0663 -0.1137
   91SAPS   C31 8843   1.526   5.684   6.495 -0.3591 -0.0379  0.3010
   91SAPS   O32 8844   1.456   5.647   6.402  0.2485  0.8793 -0.0638
   91SAPS   C32 8845   1.485   5.745   6.630 -0.1553  0.1265 -0.1198
   91SAPS   H2X 8846   1.518   5.850   6.620 -0.0655  0.3476  2.0399
   91SAPS   H2Y 8847   1.538   5.708   6.720 -1.8516  2.5098  2.0021
   91SAPS   C23 8848   1.826   6.145   6.597  0.2938  0.1941  0.6605
   91SAPS   H3R 8849   1.720   6.165   6.567 -0.0355 -1.8485  0.3220
   91SAPS   H3S 8850   1.887   6.238   6.598  2.1706 -0.8746 -2.2216
   91SAPS   C24 8851   1.847   6.094   6.746 -0.2460 -0.5068  0.7197
   91SAPS   H4R 8852   1.838   6.185   6.809  0.0781  0.8258 -1.0937
   91SAPS   H4S 8853   1.954   6.064   6.751  0.4184  1.7350  0.8704
   91SAPS   C25 8854   1.767   5.969   6.793 -0.7289 -0.4282 -0.1650
   91SAPS   H5R 8855   1.762   5.888   6.718  1.1326 -0.3547 -0.4178
   91SAPS   C26 8856   1.700   5.955   6.906 -0.1809 -0.3794  0.3019
   91SAPS   H6R 8857   1.635   5.869   6.926  1.2455 -1.6751 -0.4409
   91SAPS   C27 8858   1.691   6.064   7.008  0.2823 -0.7751 -0.5038
   91SAPS   H7R 8859   1.606   6.134   6.991  1.0183  0.3925  0.4513
   91SAPS   H7S 8860   1.771   6.139   6.994 -0.4384 -0.4459 -3.4648
   91SAPS   C28 8861   1.676   6.019   7.148  0.7512  0.3195 -0.1196
   91SAPS   H8R 8862   1.752   5.945   7.176  1.6952  0.5011 -2.0402
   91SAPS   C29 8863   1.600   6.077   7.242  0.8155  1.5013  0.0483
   91SAPS   H9R 8864   1.589   6.021   7.336 -0.0789 -0.4892 -1.1972
   91SAPS  C210 8865   1.516   6.195   7.229  0.0632  0.8107 -0.2855
   91SAPS  H10R 8866   1.437   6.178   7.152 -0.6591  1.9541  0.1610
   91SAPS  H10S 8867   1.581   6.280   7.199  0.7165  0.7559  0.9150
   91SAPS  C211 8868   1.448   6.245   7.351  0.3657 -1.4528  0.1317
   91SAPS  H11R 8869   1.367   6.173   7.372 -0.0379 -1.2924 -0.8030
   91SAPS  C212 8870   1.476   6.350   7.434 -0.3156 -0.9024 -1.2515
   91SAPS  H12R 8871   1.420   6.367   7.527  0.9751 -0.5520 -0.5138
   91SAPS  C213 8872   1.599   6.438   7.405  0.2426  0.7238  0.7532
   91SAPS  H13R 8873   1.689   6.377   7.382 -0.2827 -0.7068  2.2221
   91SAPS  H13S 8874   1.633   6.499   7.492  0.8798  0.5000  0.6673
   91SAPS  C214 8875   1.559   6.533   7.298 -0.6326  0.2649 -0.1485
   91SAPS  H14R 8876   1.468   6.591   7.318 -1.3714 -1.1089  0.5950
   91SAPS  C215 8877   1.632   6.555   7.181 -0.0491 -0.6568 -0.2446
   91SAPS  H15R 8878   1.587   6.622   7.107 -0.3016  0.0119  0.4984
   91SAPS  C216 8879   1.757   6.489   7.140 -0.7926 -0.4547  0.5906
   91SAPS  H16R 8880   1.777   6.396   7.197 -0.6994 -0.1997  0.9813
   91SAPS  H16S 8881   1.845   6.554   7.158  0.9451 -2.2470 -1.0349
   91SAPS  C217 8882   1.770   6.467   6.989 -0.4131 -0.1546 -0.3912
   91SAPS  H17R 8883   1.690   6.396   6.960  0.3695 -1.0533 -0.3977
   91SAPS  H17S 8884   1.870   6.420   6.974 -0.1341  0.3060 -0.0117
   91SAPS  C218 8885   1.770   6.590   6.900  0.2933 -0.4239  0.3567
   91SAPS  H18R 8886   1.823   6.666   6.960 -0.7569  0.4778  0.1774
   91SAPS  H18S 8887   1.663   6.612   6.880  0.6363  1.0012 -0.0338
   91SAPS  C219 8888   1.836   6.563   6.760 -1.0907  1.3043 -0.0418
   91SAPS  H19R 8889   1.811   6.463   6.721  2.8066 -0.0496  0.4944
   91SAPS  H19S 8890   1.947   6.561   6.764 -0.8087  4.8552 -1.9491
   91SAPS  C220 8891   1.794   6.661   6.652 -0.7468 -0.0443  0.2020
   91SAPS  H20R 8892   1.687   6.655   6.622 -0.1735  1.2767 -2.4869
   91SAPS  H20S 8893   1.848   6.648   6.555 -1.3012  1.2071 -0.3001
   91SAPS  H20T 8894   1.808   6.767   6.682 -0.0135  0.3669 -1.4742
   91SAPS   C33 8895   1.334   5.744   6.648  0.8815  0.1768 -0.9658
   91SAPS   H3X 8896   1.302   5.638   6.653  1.7165 -0.0223  2.0064
   91SAPS   H3Y 8897   1.288   5.771   6.550 -2.7774 -4.4694 -0.9115
   91SAPS   C34 8898   1.293   5.836   6.764 -0.1273  0.3186 -0.4178
   91SAPS   H4X 8899   1.185   5.861   6.761 -0.7180 -1.7015  1.3718
   91SAPS   H4Y 8900   1.357   5.926   6.775  0.1127 -0.0906  2.0724
   91SAPS   C35 8901   1.314   5.753   6.898  0.0544 -1.1335 -0.4217
   91SAPS   H5X 8902   1.416   5.712   6.914  0.9568  1.2554  0.3976
   91SAPS   H5Y 8903   1.227   5.685   6.889 -0.9899  0.2548 -1.1341
   91SAPS   C36 8904   1.295   5.855   7.020  0.4282  0.3837 -0.5386
   91SAPS   H6X 8905   1.194   5.900   7.005  0.4313  0.7332  0.4130
   91SAPS   H6Y 8906   1.372   5.935   7.031  0.6208  0.1994 -0.5526
   91SAPS   C37 8907   1.288   5.784   7.159  0.1981  0.0258 -0.0483
   91SAPS   H7X 8908   1.392   5.749   7.177  0.5478  1.1031  0.0762
   91SAPS   H7Y 8909   1.223   5.695   7.145  3.0046 -1.8856 -2.5029
   91SAPS   C38 8910   1.240   5.876   7.276 -0.3287 -0.5126  0.0276
   91SAPS   H8X 8911   1.134   5.903   7.253 -0.1209 -0.6227 -1.1262
   91SAPS   H8Y 8912   1.310   5.961   7.282  3.2324 -3.1400 -0.8752
   91SAPS   C39 8913   1.267   5.808   7.417 -0.0690  0.3423 -0.0700
   91SAPS   H9X 8914   1.371   5.834   7.444  0.1174  0.3107 -0.7432
   91SAPS   H9Y 8915   1.253   5.698   7.420 -1.0096  0.4640  0.5606
   91SAPS  C310 8916   1.178   5.877   7.527  0.2436  0.9369 -0.3078
   91SAPS  H10X 8917   1.068   5.860   7.526  0.4135 -1.0032  2.4946
   91SAPS  H10Y 8918   1.186   5.988   7.533 -0.6116  0.9803  0.1917
   91SAPS  C311 8919   1.220   5.843   7.671  0.1115 -0.6364  0.2197
   91SAPS  H11X 8920   1.328   5.868   7.678  0.0088 -0.4111  1.0439
   91SAPS  H11Y 8921   1.197   5.739   7.702 -0.2525 -0.1993  1.4796
   91SAPS  C312 8922   1.141   5.936   7.774  0.2176 -0.8091 -0.3977
   91SAPS  H12X 8923   1.036   5.902   7.770 -0.0890  0.0409  0.1605
   91SAPS  H12Y 8924   1.148   6.045   7.753  1.3389 -1.1040 -1.6686
   91SAPS  C313 8925   1.203   5.907   7.915 -0.5020  0.8924 -0.6822
   91SAPS  H13X 8926   1.305   5.952   7.920 -0.8087  1.7020 -1.4452
   91SAPS  H13Y 8927   1.213   5.797   7.919 -1.7581  0.7940  0.3062
   91SAPS  C314 8928   1.116   5.962   8.032  0.2296  0.9134 -0.2819
   91SAPS  H14X 8929   1.017   5.910   8.030  0.8514 -0.3750  0.7451
   91SAPS  H14Y 8930   1.102   6.072   8.021  0.8182  1.1708  1.3078
   91SAPS  C315 8931   1.188   5.934   8.165  0.4541 -0.3031 -0.2146
   91SAPS  H15X 8932   1.286   5.986   8.164 -0.0206  0.6975  1.4603
   91SAPS  H15Y 8933   1.212   5.826   8.173  2.8413  0.2676  1.3602
   91SAPS  C316 8934   1.107   5.984   8.287  0.3411  0.1604 -0.0835
   91SAPS  H16X 8935   1.147   5.952   8.385  0.3624  0.8443  0.1359
   91SAPS  H16Y 8936   1.001   5.950   8.276  0.6278 -0.6299 -0.5018
   91SAPS  C317 8937   1.100   6.137   8.304  0.1366  0.1891  0.2054
   91SAPS  H17X 8938   1.066   6.185   8.210  0.2843  0.0342  0.0743
   91SAPS  H17Y 8939   1.200   6.182   8.324 -0.4937  2.1034 -0.6640
   91SAPS  C318 8940   1.011   6.169   8.417  0.5896 -0.0804 -0.1774
   91SAPS  H18X 8941   1.047   6.147   8.520 -0.3440  2.3058  0.7405
   91SAPS  H18Y 8942   0.914   6.125   8.384  1.4945 -1.0929 -1.5859
   91SAPS  H18Z 8943   0.984   6.277   8.421 -0.8398 -0.4588  2.2657
   92SAPS     N 8944   6.349   4.247   5.864  0.0554 -1.2141  0.2075
   92SAPS   HN1 8945   6.268   4.268   5.803  0.4802 -0.3222 -0.0599
   92SAPS   HN2 8946   6.433   4.252   5.802 -1.4000 -2.1162 -1.9518
   92SAPS   HN3 8947   6.336   4.153   5.908 -3.1769 -0.1362  1.8411
   92SAPS   C12 8948   6.365   4.350   5.965 -0.4933  0.0045 -0.4855
   92SAPS  H12A 8949   6.470   4.344   5.992  0.2483  0.7724 -2.9720
   92SAPS   C13 8950   6.331   4.490   5.908  1.0038 -0.1523  0.2343
   92SAPS  O13A 8951   6.330   4.510   5.787  0.2544 -0.6578  0.7383
   92SAPS  O13B 8952   6.309   4.592   5.982  0.1057  0.0776 -0.0011
   92SAPS   C11 8953   6.268   4.324   6.092 -0.1348  0.2380  0.3338
   92SAPS  H11A 8954   6.161   4.340   6.066 -0.3656  1.4526  1.8953
   92SAPS  H11B 8955   6.288   4.403   6.168  0.2300 -0.4322  0.9534
   92SAPS     P 8956   6.231   4.158   6.289 -0.0295  0.2637  0.2220
   92SAPS   O13 8957   6.223   4.010   6.296  0.2661 -0.3107 -0.2128
   92SAPS   O14 8958   6.317   4.222   6.389 -0.0755 -0.5600 -0.2076
   92SAPS   O12 8959   6.297   4.193   6.146  0.2931 -0.6142 -0.6521
   92SAPS   O11 8960   6.094   4.241   6.282 -0.4980 -0.1804  0.4721
   92SAPS    C1 8961   6.054   4.349   6.366 -0.3863 -0.4344  0.2700
   92SAPS    HA 8962   6.136   4.421   6.388 -0.8015 -0.4020  1.8082
   92SAPS    HB 8963   5.969   4.398   6.314  0.3123  1.1720  0.5861
   92SAPS    C2 8964   5.991   4.299   6.500  0.9670 -0.5043 -0.3037
   92SAPS    HS 8965   5.908   4.371   6.520  0.9163  0.1798 -2.6983
   92SAPS   O21 8966   6.084   4.271   6.610 -0.1243 -0.4932 -0.7788
   92SAPS   C21 8967   6.147   4.376   6.655  0.5370 -0.9671 -0.1088
   92SAPS   O22 8968   6.119   4.492   6.637 -0.1385 -0.2740 -0.0798
   92SAPS   C22 8969   6.256   4.340   6.747  0.2100  0.0802 -0.0521
   92SAPS   H2R 8970   6.252   4.232   6.774  2.4525  0.1686  0.8187
   92SAPS   H2S 8971   6.356   4.373   6.712  0.8617 -0.3047  1.3477
   92SAPS    C3 8972   5.916   4.164   6.493 -0.3151  0.3114 -0.1271
   92SAPS    HX 8973   5.984   4.082   6.462 -1.1261 -0.9531  1.3242
   92SAPS    HY 8974   5.843   4.159   6.409 -2.9704  0.0479  2.0745
   92SAPS   O31 8975   5.848   4.133   6.618  0.5770 -0.2730  0.5941
   92SAPS   C31 8976   5.739   4.197   6.640  0.6948 -0.0687 -0.1686
   92SAPS   O32 8977   5.694   4.295   6.585 -0.2500  0.3938  0.2466
   92SAPS   C32 8978   5.669   4.134   6.760  0.1467  0.5191  0.2452
   92SAPS   H2X 8979   5.665   4.023   6.760 -0.8303  0.4851 -2.7105
   92SAPS   H2Y 8980   5.562   4.163   6.764  0.1710  0.6005  0.3082
   92SAPS   C23 8981   6.220   4.395   6.880 -0.0410  0.2311 -0.0091
   92SAPS   H3R 8982   6.184   4.500   6.873  0.3763  0.3759 -0.0186
   92SAPS   H3S 8983   6.298   4.388   6.958 -1.7880 -0.9101  1.7357
   92SAPS   C24 8984   6.105   4.323   6.948 -0.3617 -0.1704  0.1142
   92SAPS   H4R 8985   6.020   4.318   6.877 -1.5933  0.5934  1.4671
   92SAPS   H4S 8986   6.087   4.383   7.041 -1.8156 -0.6956  0.2039
   92SAPS   C25 8987   6.108   4.175   6.996 -0.0341 -0.5612  0.2840
   92SAPS   H5R 8988   6.104   4.105   6.911  1.3999 -0.1574 -0.1448
   92SAPS   C26 8989   6.101   4.129   7.122 -0.2633  0.2203 -0.1671
   92SAPS   H6R 8990   6.116   4.022   7.142  0.7012  0.4587  0.4478
   92SAPS   C27 8991   6.089   4.201   7.253 -0.7325  0.1616  0.8554
   92SAPS   H7R 8992   6.076   4.124   7.331 -1.0473  1.0803  1.7276
   92SAPS   H7S 8993   5.993   4.258   7.258  0.7347  2.6428  2.4148
   92SAPS   C28 8994   6.202   4.300   7.288  1.2147  0.0863  0.0172
   92SAPS   H8R 8995   6.281   4.322   7.215 -0.3855 -0.5667 -2.0051
   92SAPS   C29 8996   6.210   4.341   7.417 -0.7008 -0.2118  0.8170
   92SAPS   H9R 8997   6.294   4.404   7.450 -0.3873 -1.4851  2.6232
   92SAPS  C210 8998   6.118   4.305   7.531  0.5041 -0.0136 -0.4756
   92SAPS  H10R 8999   6.012   4.294   7.500  0.2099  3.3012 -1.0174
   92SAPS  H10S 9000   6.121   4.389   7.603  0.3167  1.0861 -1.7047
   92SAPS  C211 9001   6.165   4.185   7.608  0.5690 -0.4164  0.6418
   92SAPS  H11R 9002   6.230   4.119   7.549 -1.8189 -0.3294 -2.3626
   92SAPS  C212 9003   6.138   4.159   7.736 -0.1607  0.2069 -0.3997
   92SAPS  H12R 9004   6.181   4.073   7.789  2.8074  0.6223 -1.9103
   92SAPS  C213 9005   6.061   4.256   7.823  0.0794 -0.6262  0.2251
   92SAPS  H13R 9006   5.986   4.317   7.770  0.0225  0.7516  1.7965
   92SAPS  H13S 9007   6.134   4.322   7.875 -1.6683  0.2042  1.7364
   92SAPS  C214 9008   5.979   4.178   7.926 -0.8795  0.8913  0.6656
   92SAPS  H14R 9009   5.891   4.127   7.883 -1.8736  2.0721  1.2396
   92SAPS  C215 9010   6.030   4.153   8.049  0.3193 -0.2262  0.5362
   92SAPS  H15R 9011   5.956   4.107   8.117 -0.5341 -0.5029 -0.5420
   92SAPS  C216 9012   6.157   4.215   8.108  0.2128  0.6323 -0.8639
   92SAPS  H16R 9013   6.171   4.316   8.063 -1.3059  1.5430  0.5968
   92SAPS  H16S 9014   6.240   4.148   8.079 -0.4113 -0.9448  0.8018
   92SAPS  C217 9015   6.164   4.242   8.257  0.3543  0.1465  0.5187
   92SAPS  H17R 9016   6.072   4.281   8.305 -1.4824 -4.3007  1.0864
   92SAPS  H17S 9017   6.233   4.329   8.265 -1.0238  1.1815  1.5705
   92SAPS  C218 9018   6.207   4.117   8.343  0.7205 -0.8242 -0.6177
   92SAPS  H18R 9019   6.286   4.062   8.289 -0.3593 -0.3165 -2.8764
   92SAPS  H18S 9020   6.132   4.035   8.347  1.6916 -1.6893  0.5428
   92SAPS  C219 9021   6.257   4.155   8.480  0.2701  0.5543  0.4098
   92SAPS  H19R 9022   6.178   4.208   8.536 -0.8029 -0.9298  0.3479
   92SAPS  H19S 9023   6.344   4.218   8.452  0.1577 -0.7648 -3.4777
   92SAPS  C220 9024   6.305   4.026   8.555 -0.2441 -0.3168  0.3220
   92SAPS  H20R 9025   6.227   3.947   8.562 -2.3443  1.6374  0.2758
   92SAPS  H20S 9026   6.334   4.055   8.658  0.0321 -0.6543  0.3389
   92SAPS  H20T 9027   6.394   3.979   8.508 -0.1847 -1.4767  1.5536
   92SAPS   C33 9028   5.742   4.182   6.891  0.6842 -0.1400  1.0153
   92SAPS   H3X 9029   5.794   4.280   6.884 -0.6066  0.6493  1.8561
   92SAPS   H3Y 9030   5.828   4.113   6.906  1.9336  1.6034  2.4069
   92SAPS   C34 9031   5.650   4.181   7.015  0.5401 -0.2178  0.3309
   92SAPS   H4X 9032   5.621   4.077   7.042 -0.6603  0.1500  0.5228
   92SAPS   H4Y 9033   5.556   4.237   6.997  1.3817  0.8126 -1.0102
   92SAPS   C35 9034   5.720   4.248   7.124  0.2721  0.4318  0.1242
   92SAPS   H5X 9035   5.735   4.356   7.105 -1.2283  0.1996 -2.9854
   92SAPS   H5Y 9036   5.810   4.189   7.148  0.7702  1.0205 -0.2651
   92SAPS   C36 9037   5.633   4.240   7.246 -0.0296 -0.9770 -0.6873
   92SAPS   H6X 9038   5.555   4.161   7.239  0.1053 -1.1382 -0.3997
   92SAPS   H6Y 9039   5.592   4.343   7.250  1.9871 -0.0789 -1.8769
   92SAPS   C37 9040   5.722   4.208   7.364 -1.2590 -0.1394  0.9978
   92SAPS   H7X 9041   5.786   4.299   7.364 -1.1324 -0.2279  0.7854
   92SAPS   H7Y 9042   5.779   4.114   7.347 -1.2612  0.1252 -0.6163
   92SAPS   C38 9043   5.641   4.209   7.491  0.2649  0.0411  0.5401
   92SAPS   H8X 9044   5.582   4.115   7.490  0.4320 -0.0667 -0.7293
   92SAPS   H8Y 9045   5.567   4.292   7.485 -0.1732 -0.2311  1.7587
   92SAPS   C39 9046   5.727   4.204   7.619 -0.2164 -0.8852  0.2048
   92SAPS   H9X 9047   5.802   4.286   7.611  1.4543 -2.4028 -0.3903
   92SAPS   H9Y 9048   5.784   4.109   7.614 -1.0031 -1.3011 -2.0720
   92SAPS  C310 9049   5.634   4.212   7.745  0.1842 -0.0853  0.8684
   92SAPS  H10X 9050   5.604   4.317   7.764 -0.4397 -0.1174  0.0983
   92SAPS  H10Y 9051   5.703   4.196   7.831  2.8482  1.0974 -0.8886
   92SAPS  C311 9052   5.517   4.109   7.757  0.0082 -0.0411  0.0399
   92SAPS  H11X 9053   5.557   4.008   7.732  2.7784  0.6580  1.2117
   92SAPS  H11Y 9054   5.449   4.136   7.674 -1.7910 -1.8780  0.8519
   92SAPS  C312 9055   5.455   4.112   7.893  1.0455  0.1248 -0.1152
   92SAPS  H12X 9056   5.354   4.066   7.902  1.0606 -0.0285 -0.6984
   92SAPS  H12Y 9057   5.429   4.209   7.942  0.8266 -0.2559  0.5405
   92SAPS  C313 9058   5.544   4.035   7.995 -0.1330 -0.1362 -0.3489
   92SAPS  H13X 9059   5.643   4.084   8.008 -0.0827 -0.7084  1.7053
   92SAPS  H13Y 9060   5.570   3.934   7.957  0.6239 -0.1693  0.2425
   92SAPS  C314 9061   5.490   4.014   8.136  0.7350 -0.0709  0.0632
   92SAPS  H14X 9062   5.421   3.928   8.145 -1.0366  1.0128 -2.1544
   92SAPS  H14Y 9063   5.435   4.105   8.165  0.0895 -0.9602  1.7599
   92SAPS  C315 9064   5.592   3.999   8.251  0.1155  0.1529  0.1816
   92SAPS  H15X 9065   5.673   3.929   8.221  0.8094 -0.3811  2.9715
   92SAPS  H15Y 9066   5.542   3.944   8.334 -0.0781 -1.0402 -0.7085
   92SAPS  C316 9067   5.649   4.122   8.304  0.2601  0.1528 -0.1932
   92SAPS  H16X 9068   5.564   4.191   8.320 -2.3739 -2.2200 -2.6734
   92SAPS  H16Y 9069   5.730   4.162   8.239 -1.9960  0.0452 -3.2929
   92SAPS  C317 9070   5.724   4.094   8.440 -0.3127  0.3454  0.4162
   92SAPS  H17X 9071   5.811   4.029   8.418 -0.3532  0.7366 -0.9792
   92SAPS  H17Y 9072   5.662   4.040   8.515  1.5991 -0.0519  1.7746
   92SAPS  C318 9073   5.777   4.225   8.499  0.0584  0.6204 -0.1518
   92SAPS  H18X 9074   5.850   4.265   8.426  0.7152 -1.4735 -0.6991
   92SAPS  H18Y 9075   5.819   4.209   8.601 -2.7872 -2.6149  0.7134
   92SAPS  H18Z 9076   5.690   4.294   8.500 -0.3674  0.1154 -1.0736
   93SAPS     N 9077   0.536   3.969   6.290  0.3905 -0.4562  0.1924
   93SAPS   HN1 9078   0.538   4.072   6.299  0.2473 -0.4445  0.0930
   93SAPS   HN2 9079   0.461   3.935   6.226 -0.3310  1.4776 -0.0605
   93SAPS   HN3 9080   0.520   3.935   6.387  0.5654  0.5700  0.5928
   93SAPS   C12 9081   0.664   3.918   6.245 -0.0832  0.4133 -0.5658
   93SAPS  H12A 9082   0.654   3.810   6.238 -0.5468  0.4027  0.1524
   93SAPS   C13 9083   0.706   3.971   6.106  0.3080 -0.3505 -0.5499
   93SAPS  O13A 9084   0.639   4.048   6.031 -0.0038  0.0924 -0.0990
   93SAPS  O13B 9085   0.810   3.919   6.064 -0.5719 -0.1756  0.0397
   93SAPS   C11 9086   0.771   3.949   6.353 -0.3065  0.5194 -0.0067
   93SAPS  H11A 9087   0.785   4.058   6.369  3.2642  0.2431 -0.3602
   93SAPS  H11B 9088   0.866   3.904   6.317 -0.5196  2.4067 -3.3566
   93SAPS     P 9089   0.753   3.738   6.507 -0.1550 -0.0056  0.5895
   93SAPS   O13 9090   0.630   3.685   6.451  0.0881  0.4383  0.4707
   93SAPS   O14 9091   0.878   3.689   6.441  0.2789 -0.1303 -0.3263
   93SAPS   O12 9092   0.733   3.894   6.477  0.4243  0.0312 -0.1212
   93SAPS   O11 9093   0.747   3.728   6.663  0.2895  0.2633 -0.0483
   93SAPS    C1 9094   0.782   3.839   6.746  0.1838 -0.5192  0.2377
   93SAPS    HA 9095   0.873   3.895   6.715 -1.5083  2.6028  0.5754
   93SAPS    HB 9096   0.700   3.913   6.735 -0.0407 -0.6896  0.7394
   93SAPS    C2 9097   0.807   3.800   6.891 -0.3656  0.2182 -0.0657
   93SAPS    HS 9098   0.716   3.743   6.918  0.4879 -1.1032  0.1571
   93SAPS   O21 9099   0.819   3.928   6.961 -0.4383  0.0261  0.2662
   93SAPS   C21 9100   0.792   3.932   7.092  0.5941  0.1070 -0.1312
   93SAPS   O22 9101   0.740   3.843   7.158  0.6733 -0.0740  0.0036
   93SAPS   C22 9102   0.830   4.075   7.141  0.3270  0.1957  0.2995
   93SAPS   H2R 9103   0.899   4.121   7.067 -0.1358 -0.7873 -0.7766
   93SAPS   H2S 9104   0.735   4.133   7.143 -0.9299 -1.7229 -0.7813
   93SAPS    C3 9105   0.935   3.712   6.902 -1.0547  0.0699 -0.2878
   93SAPS    HX 9106   1.023   3.779   6.889  0.3512 -1.6139  0.1308
   93SAPS    HY 9107   0.923   3.632   6.826 -0.5566  0.6416 -0.9766
   93SAPS   O31 9108   0.937   3.647   7.038  0.9597  0.3015  0.5232
   93SAPS   C31 9109   0.866   3.536   7.048 -0.6254  0.0613  0.3352
   93SAPS   O32 9110   0.797   3.492   6.953  0.6066 -0.1035 -0.4587
   93SAPS   C32 9111   0.879   3.478   7.186 -0.6079 -0.1502  0.1614
   93SAPS   H2X 9112   0.814   3.533   7.258 -2.4851 -1.5439 -0.3735
   93SAPS   H2Y 9113   0.980   3.507   7.221 -0.1843  0.5627 -1.5301
   93SAPS   C23 9114   0.904   4.082   7.275 -0.0377  0.5632 -0.1143
   93SAPS   H3R 9115   0.854   4.012   7.346 -0.3897 -1.8831 -2.6051
   93SAPS   H3S 9116   0.885   4.186   7.307  0.9076  1.7780 -3.1273
   93SAPS   C24 9117   1.057   4.041   7.258  0.5615  0.7378 -0.0623
   93SAPS   H4R 9118   1.103   4.062   7.357 -0.8399  3.3265  0.1385
   93SAPS   H4S 9119   1.102   4.108   7.182 -0.2667 -0.7759 -1.9766
   93SAPS   C25 9120   1.089   3.902   7.213  0.0604 -0.7344  0.1910
   93SAPS   H5R 9121   1.101   3.884   7.105  0.5884  0.4932  0.0252
   93SAPS   C26 9122   1.109   3.801   7.293  0.1454  0.0453  0.2802
   93SAPS   H6R 9123   1.140   3.702   7.256  0.0995 -0.9754  2.7105
   93SAPS   C27 9124   1.104   3.810   7.441 -0.0763 -0.5052  0.0010
   93SAPS   H7R 9125   1.048   3.724   7.486 -0.9988 -1.1303 -2.2155
   93SAPS   H7S 9126   1.058   3.905   7.474  2.0382  0.6449 -0.2325
   93SAPS   C28 9127   1.243   3.813   7.499  0.0456 -0.5132  0.0919
   93SAPS   H8R 9128   1.289   3.913   7.495 -1.9894  0.5958  1.7465
   93SAPS   C29 9129   1.320   3.708   7.542  0.1771  0.7737  0.4944
   93SAPS   H9R 9130   1.421   3.726   7.580  1.9499 -0.1432 -3.3685
   93SAPS  C210 9131   1.273   3.558   7.541  0.4967  0.0065  0.4707
   93SAPS  H10R 9132   1.309   3.518   7.444  0.3832 -1.4556  1.0144
   93SAPS  H10S 9133   1.164   3.553   7.522  0.5862 -0.6069  0.0983
   93SAPS  C211 9134   1.324   3.480   7.662 -0.8418  0.2316 -0.1617
   93SAPS  H11R 9135   1.423   3.510   7.698 -1.0121 -1.1198  1.6282
   93SAPS  C212 9136   1.263   3.394   7.751 -0.1538  0.2872  0.1853
   93SAPS  H12R 9137   1.315   3.350   7.838  2.3210  1.6404 -0.5201
   93SAPS  C213 9138   1.128   3.341   7.750 -0.0537 -0.6517 -0.2125
   93SAPS  H13R 9139   1.085   3.373   7.653  1.8066 -0.3521 -0.9903
   93SAPS  H13S 9140   1.070   3.391   7.830 -0.4756  0.0906 -0.9655
   93SAPS  C214 9141   1.098   3.191   7.759 -0.3721 -0.8273 -0.0333
   93SAPS  H14R 9142   1.086   3.144   7.660  2.1844 -2.4131  0.3212
   93SAPS  C215 9143   1.083   3.120   7.869  0.5148  0.3936  0.3727
   93SAPS  H15R 9144   1.089   3.010   7.858  0.8134  0.6161 -2.7991
   93SAPS  C216 9145   1.087   3.174   8.009 -0.1736  0.0827 -0.1836
   93SAPS  H16R 9146   1.010   3.255   8.013  0.3455  0.5548  0.6562
   93SAPS  H16S 9147   1.180   3.232   8.029 -1.4690  1.8359  1.1187
   93SAPS  C217 9148   1.077   3.061   8.115  0.5452  0.2493  0.3817
   93SAPS  H17R 9149   1.090   3.103   8.217 -1.7023  0.0876  0.7841
   93SAPS  H17S 9150   1.151   2.979   8.103 -0.7346 -1.1565  1.6468
   93SAPS  C218 9151   0.941   2.994   8.136 -0.4343 -0.8260  0.0928
   93SAPS  H18R 9152   0.911   2.936   8.046 -2.4854 -1.1765  0.9391
   93SAPS  H18S 9153   0.865   3.074   8.149 -0.1268 -0.5029 -0.0715
   93SAPS  C219 9154   0.944   2.913   8.264  0.1544  0.3577  0.3190
   93SAPS  H19R 9155   1.048   2.874   8.268 -0.0853 -0.6833 -1.9253
   93SAPS  H19S 9156   0.880   2.822   8.260  2.2136 -1.1436 -1.7632
   93SAPS  C220 9157   0.908   2.997   8.388 -0.7610 -0.1449  0.3629
   93SAPS  H20R 9158   0.910   2.939   8.483 -0.4264  0.2082  0.5730
   93SAPS  H20S 9159   0.808   3.044   8.372 -1.1845  0.0388  2.9883
   93SAPS  H20T 9160   0.967   3.090   8.398  1.1484 -1.2382 -0.2187
   93SAPS   C33 9161   0.845   3.324   7.189  0.2609 -0.3618  0.3389
   93SAPS   H3X 9162   0.898   3.270   7.107 -1.7045  0.0863 -1.3015
   93SAPS   H3Y 9163   0.737   3.320   7.163  0.4360 -1.2482 -0.2832
   93SAPS   C34 9164   0.868   3.269   7.329  0.1348 -0.1652  0.2859
   93SAPS   H4X 9165   0.824   3.343   7.399 -0.3148 -0.1860  0.0289
   93SAPS   H4Y 9166   0.977   3.274   7.350 -0.4129  1.8389  3.1913
   93SAPS   C35 9167   0.806   3.124   7.355 -0.1542  0.1092 -0.7848
   93SAPS   H5X 9168   0.857   3.055   7.284 -0.5142 -1.4855  0.4379
   93SAPS   H5Y 9169   0.699   3.133   7.328 -0.6829  0.1141  1.1973
   93SAPS   C36 9170   0.838   3.091   7.505  1.2562  1.0376 -0.2764
   93SAPS   H6X 9171   0.801   3.168   7.576  0.6129  1.9151 -1.5257
   93SAPS   H6Y 9172   0.949   3.093   7.492  1.5662 -0.6900  1.5993
   93SAPS   C37 9173   0.795   2.948   7.548 -0.4556 -0.1208 -0.3695
   93SAPS   H7X 9174   0.809   2.892   7.453 -0.5411 -0.5675 -0.1187
   93SAPS   H7Y 9175   0.692   2.938   7.589 -0.0534  0.1232  0.7470
   93SAPS   C38 9176   0.900   2.889   7.636 -0.9269  0.2236  0.0351
   93SAPS   H8X 9177   0.890   2.948   7.730  0.7636  0.7304 -0.0667
   93SAPS   H8Y 9178   1.002   2.899   7.593 -1.7244  0.4839 -1.9012
   93SAPS   C39 9179   0.868   2.744   7.654  0.3691 -0.4334 -0.4171
   93SAPS   H9X 9180   0.853   2.703   7.552  0.9722  0.6278 -0.9391
   93SAPS   H9Y 9181   0.774   2.747   7.713  1.0352 -0.5826  0.6763
   93SAPS  C310 9182   0.979   2.646   7.699  0.3869 -0.3388 -0.0386
   93SAPS  H10X 9183   1.070   2.680   7.645  0.0555 -1.0355 -1.0710
   93SAPS  H10Y 9184   0.962   2.537   7.681 -1.4549 -0.2399  0.8872
   93SAPS  C311 9185   1.005   2.656   7.846 -1.3478 -0.1923 -1.0262
   93SAPS  H11X 9186   0.915   2.641   7.909  0.3801  0.4683  1.7654
   93SAPS  H11Y 9187   1.038   2.760   7.867 -0.1142 -0.3822 -1.9504
   93SAPS  C312 9188   1.121   2.571   7.903  1.1832 -0.0678  0.2942
   93SAPS  H12X 9189   1.222   2.611   7.882  0.3809  3.3151  2.1143
   93SAPS  H12Y 9190   1.112   2.464   7.873  1.9720 -0.4226  1.2405
   93SAPS  C313 9191   1.111   2.576   8.057  0.5404  0.4030  0.0033
   93SAPS  H13X 9192   1.005   2.603   8.076  0.6084  0.7260 -0.0693
   93SAPS  H13Y 9193   1.193   2.639   8.098  0.9304  0.7595 -1.2708
   93SAPS  C314 9194   1.140   2.435   8.112 -0.1415  0.2054  0.1726
   93SAPS  H14X 9195   1.225   2.384   8.063 -0.5172  1.6775 -2.1505
   93SAPS  H14Y 9196   1.052   2.374   8.083  0.5918 -0.4510 -0.7287
   93SAPS  C315 9197   1.156   2.433   8.265 -0.0976  0.6092  0.7391
   93SAPS  H15X 9198   1.140   2.332   8.308 -2.2663  1.5158  2.2755
   93SAPS  H15Y 9199   1.074   2.492   8.313  0.3116 -0.3339  2.7110
   93SAPS  C316 9200   1.296   2.478   8.321 -0.1543  0.0719 -0.0625
   93SAPS  H16X 9201   1.299   2.497   8.430  0.4366  0.6002 -0.1644
   93SAPS  H16Y 9202   1.312   2.575   8.268 -1.4822  1.0917  1.3176
   93SAPS  C317 9203   1.411   2.376   8.298  0.6786 -0.4126 -0.1442
   93SAPS  H17X 9204   1.417   2.344   8.192  1.0506 -0.1191 -0.2119
   93SAPS  H17Y 9205   1.393   2.276   8.344  2.3795 -2.3884 -3.3675
   93SAPS  C318 9206   1.546   2.428   8.336 -0.0247  0.0822 -0.3289
   93SAPS  H18X 9207   1.637   2.381   8.295  0.2038  2.1026 -2.3217
   93SAPS  H18Y 9208   1.560   2.436   8.446  1.1631  0.4135 -0.4878
   93SAPS  H18Z 9209   1.559   2.533   8.301  2.1072 -0.0235  0.0665
   94SAPS     N 9210   0.471   4.683   6.238 -0.6686 -0.3435 -0.5148
   94SAPS   HN1 9211   0.460   4.593   6.289 -0.1641 -0.5291 -0.7270
   94SAPS   HN2 9212   0.439   4.766   6.291 -1.9900  0.5450 -2.6266
   94SAPS   HN3 9213   0.410   4.691   6.155 -2.8415  1.5382  1.1271
   94SAPS   C12 9214   0.609   4.704   6.183  0.5753  0.9129 -0.1306
   94SAPS  H12A 9215   0.679   4.726   6.262  2.6460  0.0453 -1.6515
   94SAPS   C13 9216   0.661   4.577   6.112 -0.5795 -0.1716 -0.3191
   94SAPS  O13A 9217   0.585   4.498   6.056  0.6984 -0.5318 -0.0059
   94SAPS  O13B 9218   0.782   4.561   6.103 -0.0546  0.1993  0.5155
   94SAPS   C11 9219   0.602   4.822   6.083  0.2958  0.3878 -0.4371
   94SAPS  H11A 9220   0.518   4.802   6.013  1.1201  1.8668 -1.9266
   94SAPS  H11B 9221   0.699   4.825   6.028  0.3925 -2.3970 -0.5743
   94SAPS     P 9222   0.601   5.082   6.100  0.2426  0.3499 -0.1083
   94SAPS   O13 9223   0.579   5.087   5.951 -0.0685 -0.1896 -0.8890
   94SAPS   O14 9224   0.536   5.190   6.178 -0.4756  0.4677 -0.2019
   94SAPS   O12 9225   0.566   4.945   6.158 -0.2939  0.5771 -0.3270
   94SAPS   O11 9226   0.759   5.085   6.129  0.1482 -0.3011  0.3514
   94SAPS    C1 9227   0.810   5.032   6.248 -0.3360 -0.0976  0.2099
   94SAPS    HA 9228   0.748   4.949   6.288  0.0095 -0.2532  0.4236
   94SAPS    HB 9229   0.899   4.970   6.227  1.4007  0.3835  4.8869
   94SAPS    C2 9230   0.858   5.144   6.340  0.6415 -0.1645 -0.2315
   94SAPS    HS 9231   0.916   5.102   6.425 -0.4613  0.1663  0.7136
   94SAPS   O21 9232   0.749   5.230   6.386 -0.3017 -0.6145  0.1495
   94SAPS   C21 9233   0.652   5.169   6.462 -0.3292 -0.8287  0.1868
   94SAPS   O22 9234   0.660   5.060   6.508 -0.1559  0.4177 -0.5996
   94SAPS   C22 9235   0.545   5.273   6.506 -0.0918 -0.6313  0.2084
   94SAPS   H2R 9236   0.521   5.337   6.418  0.1195 -1.1369 -0.2228
   94SAPS   H2S 9237   0.462   5.215   6.551 -1.0182 -0.2111 -0.9237
   94SAPS    C3 9238   0.971   5.233   6.273 -0.3991  0.5701  0.3320
   94SAPS    HX 9239   0.937   5.294   6.186 -0.8332 -0.9814 -0.6109
   94SAPS    HY 9240   1.038   5.160   6.224 -2.0348  0.1979 -1.4590
   94SAPS   O31 9241   1.050   5.303   6.370 -0.7900  0.5382 -0.0461
   94SAPS   C31 9242   0.991   5.402   6.426  0.3091  0.6626 -0.5446
   94SAPS   O32 9243   0.899   5.465   6.383  0.6865 -0.1264  0.1989
   94SAPS   C32 9244   1.056   5.432   6.566 -0.3220  0.1706  0.7025
   94SAPS   H2X 9245   1.050   5.539   6.593  0.7814  0.4875 -0.2561
   94SAPS   H2Y 9246   1.163   5.401   6.572 -0.4165 -0.2787  0.0837
   94SAPS   C23 9247   0.603   5.368   6.606 -0.0972  0.1932 -0.3090
   94SAPS   H3R 9248   0.667   5.446   6.560 -2.2415  0.3752 -3.2968
   94SAPS   H3S 9249   0.654   5.310   6.685  0.7504  1.2919 -0.0169
   94SAPS   C24 9250   0.484   5.422   6.683 -0.2638 -0.3911 -0.1891
   94SAPS   H4R 9251   0.431   5.333   6.722 -1.2771 -0.0374 -0.7406
   94SAPS   H4S 9252   0.415   5.471   6.612 -1.5235  1.1796  1.9920
   94SAPS   C25 9253   0.522   5.538   6.775  0.5089 -0.1327 -0.0442
   94SAPS   H5R 9254   0.551   5.633   6.727 -3.4465 -0.1267 -3.0089
   94SAPS   C26 9255   0.523   5.527   6.908 -0.0080 -0.1929 -0.5748
   94SAPS   H6R 9256   0.558   5.609   6.972 -2.6159 -1.7631  3.2030
   94SAPS   C27 9257   0.477   5.409   6.992 -0.2542  0.3740 -0.8346
   94SAPS   H7R 9258   0.484   5.314   6.935 -1.2327 -2.1960  2.9739
   94SAPS   H7S 9259   0.367   5.401   7.010 -0.1104 -1.6002 -0.6724
   94SAPS   C28 9260   0.565   5.399   7.116  0.5209  0.2482 -0.7456
   94SAPS   H8R 9261   0.659   5.343   7.113  0.8002  0.5973  0.6255
   94SAPS   C29 9262   0.534   5.462   7.233  0.6966  0.4024  0.5974
   94SAPS   H9R 9263   0.596   5.448   7.322 -0.4435 -0.2026  1.3274
   94SAPS  C210 9264   0.407   5.545   7.256 -0.3223  0.0279 -0.4369
   94SAPS  H10R 9265   0.389   5.604   7.164  1.0657  0.9273 -0.1695
   94SAPS  H10S 9266   0.434   5.615   7.338 -1.0716 -0.7985  0.5455
   94SAPS  C211 9267   0.283   5.464   7.277 -0.3842 -0.0250  0.0976
   94SAPS  H11R 9268   0.230   5.438   7.183  0.7576 -0.1256 -0.5373
   94SAPS  C212 9269   0.233   5.408   7.393 -0.2032  0.1221  0.0233
   94SAPS  H12R 9270   0.133   5.362   7.397  0.7865 -2.1036  0.4299
   94SAPS  C213 9271   0.294   5.438   7.527  0.4597  0.2320 -0.2226
   94SAPS  H13R 9272   0.262   5.541   7.554 -0.6827  0.0446 -0.7990
   94SAPS  H13S 9273   0.404   5.431   7.533  0.3402 -0.7714  1.6851
   94SAPS  C214 9274   0.238   5.349   7.639  0.5174 -0.4383  0.5510
   94SAPS  H14R 9275   0.174   5.268   7.601 -1.8810  2.2262 -1.4450
   94SAPS  C215 9276   0.257   5.359   7.774 -0.0027  0.1900 -0.4401
   94SAPS  H15R 9277   0.218   5.274   7.832 -1.1631 -0.4321 -2.0361
   94SAPS  C216 9278   0.326   5.464   7.853 -0.0659 -0.9410 -1.2623
   94SAPS  H16R 9279   0.369   5.537   7.782 -0.8103 -0.8719 -1.6528
   94SAPS  H16S 9280   0.417   5.419   7.899 -0.2949 -0.4265 -0.2812
   94SAPS  C217 9281   0.233   5.532   7.961 -0.2893 -0.6194  0.7559
   94SAPS  H17R 9282   0.151   5.591   7.915 -2.7725 -3.4663  1.2295
   94SAPS  H17S 9283   0.300   5.603   8.015  1.4175 -2.4334  1.1427
   94SAPS  C218 9284   0.180   5.439   8.068 -0.1264 -0.3003  0.5266
   94SAPS  H18R 9285   0.113   5.359   8.028  2.2718 -1.8335 -0.6639
   94SAPS  H18S 9286   0.117   5.498   8.138 -0.6998  2.1789 -1.9199
   94SAPS  C219 9287   0.282   5.388   8.171  0.2618 -0.3682 -0.3161
   94SAPS  H19R 9288   0.336   5.478   8.209  0.7783 -0.9966  0.4563
   94SAPS  H19S 9289   0.350   5.326   8.109  2.5422  1.1669  0.4941
   94SAPS  C220 9290   0.231   5.300   8.280  0.3450  0.0054  0.0570
   94SAPS  H20R 9291   0.146   5.347   8.333 -0.4922  0.2147 -1.4031
   94SAPS  H20S 9292   0.314   5.269   8.347 -1.1369  0.0482  1.9940
   94SAPS  H20T 9293   0.196   5.206   8.231 -0.5033  0.4311 -0.1685
   94SAPS   C33 9294   0.969   5.355   6.666  0.1218  0.0481  0.7736
   94SAPS   H3X 9295   0.943   5.254   6.627 -0.7705  0.6145 -0.1500
   94SAPS   H3Y 9296   0.876   5.414   6.682  0.5116  0.5136  1.3335
   94SAPS   C34 9297   1.050   5.332   6.798  0.3396 -0.3759 -0.4986
   94SAPS   H4X 9298   1.109   5.421   6.831  1.0456 -1.2444  0.6321
   94SAPS   H4Y 9299   1.128   5.255   6.781 -1.6508 -2.2694 -1.5215
   94SAPS   C35 9300   0.957   5.302   6.907 -0.1710 -0.0662  0.1580
   94SAPS   H5X 9301   0.922   5.197   6.897 -0.5993  0.1303 -0.4910
   94SAPS   H5Y 9302   0.867   5.366   6.893  1.9791  3.3275  0.6585
   94SAPS   C36 9303   1.017   5.321   7.045 -0.0629 -0.5696  0.5818
   94SAPS   H6X 9304   1.120   5.280   7.041 -0.5801 -1.8528 -2.7091
   94SAPS   H6Y 9305   0.962   5.252   7.113 -1.7679  2.8381  2.9506
   94SAPS   C37 9306   1.016   5.457   7.116 -0.1240 -0.4026 -0.0960
   94SAPS   H7X 9307   0.913   5.498   7.116  0.7638  1.9604  0.2484
   94SAPS   H7Y 9308   1.080   5.531   7.064 -0.8133  0.2149 -0.0829
   94SAPS   C38 9309   1.042   5.457   7.265 -0.4318 -0.0649 -0.3261
   94SAPS   H8X 9310   1.082   5.559   7.283 -2.0593  0.4372  0.5710
   94SAPS   H8Y 9311   1.125   5.385   7.283 -0.4799 -0.0209  0.0633
   94SAPS   C39 9312   0.928   5.426   7.360  0.1582  0.3256  0.2322
   94SAPS   H9X 9313   0.919   5.319   7.334 -0.3440  1.0984 -3.4634
   94SAPS   H9Y 9314   0.837   5.485   7.338 -0.7208 -0.8249  0.7315
   94SAPS  C310 9315   0.969   5.460   7.502 -0.8208  0.2654  0.5291
   94SAPS  H10X 9316   0.993   5.568   7.507  1.2515 -0.1579  0.4645
   94SAPS  H10Y 9317   1.063   5.406   7.529 -1.4827 -1.4198 -0.3407
   94SAPS  C311 9318   0.868   5.418   7.605  0.4888  0.5091  0.1110
   94SAPS  H11X 9319   0.872   5.310   7.633  0.3435  1.1087  2.7319
   94SAPS  H11Y 9320   0.770   5.440   7.559  1.3265  2.8225 -0.6803
   94SAPS  C312 9321   0.894   5.496   7.737 -0.4398 -0.1740 -0.0531
   94SAPS  H12X 9322   0.928   5.598   7.713 -1.3856  0.5992  1.6579
   94SAPS  H12Y 9323   0.976   5.449   7.795 -1.1509 -0.4103  0.7913
   94SAPS  C313 9324   0.767   5.504   7.830  0.2433  0.0115 -0.5244
   94SAPS  H13X 9325   0.721   5.403   7.826 -0.9896  0.4305  1.5576
   94SAPS  H13Y 9326   0.687   5.572   7.794 -1.6593 -2.3528 -0.9856
   94SAPS  C314 9327   0.798   5.542   7.977  0.2533 -0.6765 -0.0799
   94SAPS  H14X 9328   0.856   5.637   7.979 -1.5078  0.4397  0.7168
   94SAPS  H14Y 9329   0.863   5.462   8.016  2.4338  0.8860 -0.2932
   94SAPS  C315 9330   0.666   5.555   8.062 -0.1088  0.4819 -0.0011
   94SAPS  H15X 9331   0.609   5.459   8.064 -0.6247  0.7902  1.9568
   94SAPS  H15Y 9332   0.592   5.633   8.035 -0.2909  0.4709  0.4587
   94SAPS  C316 9333   0.715   5.584   8.202  0.6029 -0.2974  0.3657
   94SAPS  H16X 9334   0.764   5.684   8.202  3.1255 -1.4762 -0.3656
   94SAPS  H16Y 9335   0.793   5.508   8.224  0.9868  0.1947  0.7276
   94SAPS  C317 9336   0.602   5.590   8.310 -0.1341  0.6543  0.4972
   94SAPS  H17X 9337   0.543   5.498   8.288  1.4899 -0.2761 -0.2242
   94SAPS  H17Y 9338   0.539   5.677   8.284  2.1506  2.0665 -0.6715
   94SAPS  C318 9339   0.653   5.608   8.444  0.1799  0.1919  0.2705
   94SAPS  H18X 9340   0.735   5.535   8.459  1.4002  0.8654 -2.5150
   94SAPS  H18Y 9341   0.570   5.591   8.516 -0.0586  3.0784  0.7912
   94SAPS  H18Z 9342   0.691   5.712   8.456  1.7771 -0.0654 -1.8971
   95SAPS     N 9343   2.393   2.931   6.175 -0.5866  0.1986 -0.1367
   95SAPS   HN1 9344   2.330   2.856   6.140 -2.1206  1.6932 -0.6948
   95SAPS   HN2 9345   2.406   2.925   6.278 -2.5579 -2.1232  0.0752
   95SAPS   HN3 9346   2.332   3.012   6.154 -2.9137 -1.1908  0.8560
   95SAPS   C12 9347   2.525   2.940   6.096  0.4653 -0.1804 -0.8456
   95SAPS  H12A 9348   2.607   2.886   6.140  1.0140 -0.2084 -1.8806
   95SAPS   C13 9349   2.503   2.899   5.948 -0.1575  1.1469  0.4512
   95SAPS  O13A 9350   2.388   2.863   5.912  0.2256 -0.0931  0.2482
   95SAPS  O13B 9351   2.598   2.884   5.869 -0.3447  0.1291 -0.4030
   95SAPS   C11 9352   2.568   3.085   6.094  0.1477 -1.3462  0.4590
   95SAPS  H11A 9353   2.511   3.155   6.029  2.3572 -0.3266 -0.4930
   95SAPS  H11B 9354   2.661   3.095   6.034  0.4363  2.2721  1.3038
   95SAPS     P 9355   2.742   3.166   6.274 -0.0688 -0.1161  0.1486
   95SAPS   O13 9356   2.805   3.033   6.283 -0.0315  0.1603  0.2609
   95SAPS   O14 9357   2.812   3.266   6.186  0.1454  0.6065 -0.9111
   95SAPS   O12 9358   2.594   3.146   6.217 -0.2159  1.0446 -0.0339
   95SAPS   O11 9359   2.718   3.234   6.414  0.0413 -0.1305  0.3737
   95SAPS    C1 9360   2.626   3.171   6.499 -0.1089  0.3026 -0.4582
   95SAPS    HA 9361   2.562   3.250   6.542  2.4586  1.0676  2.2601
   95SAPS    HB 9362   2.539   3.121   6.450 -0.1990 -2.0146  1.8382
   95SAPS    C2 9363   2.685   3.078   6.611 -0.8832 -0.2024  0.3963
   95SAPS    HS 9364   2.769   3.020   6.566  0.2279  0.8009  1.0995
   95SAPS   O21 9365   2.585   2.990   6.654  0.3389  0.2024  0.4645
   95SAPS   C21 9366   2.634   2.893   6.726 -0.0981  0.0600 -0.6015
   95SAPS   O22 9367   2.753   2.858   6.731 -0.0442  0.1797  0.5399
   95SAPS   C22 9368   2.515   2.837   6.811 -0.2334  0.3047  1.1070
   95SAPS   H2R 9369   2.438   2.823   6.732  0.6943 -2.0202  0.5402
   95SAPS   H2S 9370   2.530   2.738   6.858 -1.3273  0.1717  1.2034
   95SAPS    C3 9371   2.735   3.163   6.724  0.1370 -0.5848 -0.1369
   95SAPS    HX 9372   2.780   3.094   6.798  0.3754 -0.4243 -0.1307
   95SAPS    HY 9373   2.641   3.210   6.759 -0.5189 -0.8819 -1.4191
   95SAPS   O31 9374   2.832   3.259   6.684 -0.5675  0.3336 -0.4594
   95SAPS   C31 9375   2.867   3.349   6.771 -0.2487 -0.4665  0.0921
   95SAPS   O32 9376   2.805   3.373   6.873 -0.7600 -0.2319  0.3782
   95SAPS   C32 9377   2.992   3.429   6.724  0.2924 -0.2615  0.3748
   95SAPS   H2X 9378   2.968   3.491   6.635  1.1994  2.0847  1.6708
   95SAPS   H2Y 9379   3.070   3.351   6.706  0.6295  0.0034  0.6809
   95SAPS   C23 9380   2.482   2.938   6.915  0.3361  0.1400 -0.8963
   95SAPS   H3R 9381   2.382   2.918   6.957  0.2991  2.3906  0.2650
   95SAPS   H3S 9382   2.479   3.040   6.869 -0.0410  0.6222  0.1765
   95SAPS   C24 9383   2.563   2.936   7.051  0.2691  0.0253 -0.4699
   95SAPS   H4R 9384   2.573   2.827   7.072 -1.8891 -0.4008 -1.3377
   95SAPS   H4S 9385   2.504   2.962   7.141 -0.6563  0.7271 -1.2523
   95SAPS   C25 9386   2.696   3.008   7.054  0.0476  0.3860 -0.0206
   95SAPS   H5R 9387   2.779   2.945   7.017  0.1214 -0.8407  2.0500
   95SAPS   C26 9388   2.720   3.125   7.103  0.0252  0.3652 -0.0643
   95SAPS   H6R 9389   2.821   3.166   7.089  0.5257  0.5262  3.1657
   95SAPS   C27 9390   2.619   3.214   7.178 -0.1608  0.2029  0.9357
   95SAPS   H7R 9391   2.605   3.170   7.279  1.1920 -1.8572  0.2980
   95SAPS   H7S 9392   2.516   3.213   7.135 -0.1040  0.5666  0.7891
   95SAPS   C28 9393   2.667   3.361   7.177  0.2928 -0.2410  0.2230
   95SAPS   H8R 9394   2.693   3.410   7.082 -1.3708  0.6594  0.1912
   95SAPS   C29 9395   2.704   3.425   7.292 -0.1807  0.9823 -0.0487
   95SAPS   H9R 9396   2.707   3.534   7.278 -0.8060  1.0067 -0.0028
   95SAPS  C210 9397   2.696   3.366   7.434 -0.0687 -0.0651  0.0332
   95SAPS  H10R 9398   2.694   3.255   7.426  2.8533 -0.1918 -0.0465
   95SAPS  H10S 9399   2.598   3.399   7.474  0.5345  3.2732 -0.8767
   95SAPS  C211 9400   2.792   3.402   7.545 -0.4972 -0.0433 -0.2163
   95SAPS  H11R 9401   2.897   3.375   7.529 -0.4202  0.7520 -1.2211
   95SAPS  C212 9402   2.775   3.473   7.662  0.0735  0.1431 -0.2741
   95SAPS  H12R 9403   2.862   3.477   7.730 -0.6424 -0.5337  0.7141
   95SAPS  C213 9404   2.658   3.555   7.708 -0.4025  0.5567  0.7475
   95SAPS  H13R 9405   2.590   3.576   7.623 -0.6610  2.2855  1.3252
   95SAPS  H13S 9406   2.692   3.657   7.737 -0.4295  1.5600 -2.3648
   95SAPS  C214 9407   2.574   3.471   7.805 -0.1988  0.0917  0.5609
   95SAPS  H14R 9408   2.511   3.391   7.764 -1.4077  0.6889  1.2074
   95SAPS  C215 9409   2.582   3.491   7.938  0.0291  0.5536  0.0512
   95SAPS  H15R 9410   2.506   3.439   7.998 -2.0079 -1.1179 -3.6796
   95SAPS  C216 9411   2.674   3.586   8.015  0.2307 -0.1598 -0.4411
   95SAPS  H16R 9412   2.734   3.649   7.946 -1.5604  2.4683  0.2294
   95SAPS  H16S 9413   2.759   3.544   8.073  0.1392  1.3123  0.8149
   95SAPS  C217 9414   2.588   3.673   8.105  0.1278  0.1208 -1.1490
   95SAPS  H17R 9415   2.500   3.711   8.049 -0.3608 -0.0215 -0.4953
   95SAPS  H17S 9416   2.651   3.757   8.141  0.5811 -0.9212  0.5775
   95SAPS  C218 9417   2.542   3.606   8.236 -0.2028 -0.5337 -0.4348
   95SAPS  H18R 9418   2.628   3.584   8.302  0.0223 -0.1624 -0.6014
   95SAPS  H18S 9419   2.488   3.511   8.216  0.3815 -1.1883  0.9627
   95SAPS  C219 9420   2.451   3.701   8.321 -0.1023  0.4398  0.2838
   95SAPS  H19R 9421   2.365   3.734   8.259 -0.6052  0.3801  0.9298
   95SAPS  H19S 9422   2.511   3.790   8.351  0.8817  0.7059 -2.2879
   95SAPS  C220 9423   2.375   3.639   8.441 -0.2094  0.0824 -0.0837
   95SAPS  H20R 9424   2.456   3.608   8.510 -0.0869 -0.8197 -0.6217
   95SAPS  H20S 9425   2.307   3.559   8.406 -0.7780  1.0182 -1.1843
   95SAPS  H20T 9426   2.317   3.723   8.486 -3.3747 -2.4585  0.9753
   95SAPS   C33 9427   3.051   3.510   6.842  0.6903 -0.2773 -0.1380
   95SAPS   H3X 9428   2.975   3.582   6.881  0.4874 -0.5767  0.0223
   95SAPS   H3Y 9429   3.129   3.577   6.799  0.1461  0.4516 -0.0276
   95SAPS   C34 9430   3.118   3.418   6.951  0.4798 -0.1403  0.3604
   95SAPS   H4X 9431   3.204   3.369   6.900 -0.1834 -2.2350  1.1430
   95SAPS   H4Y 9432   3.045   3.343   6.989  1.8751 -1.2453  0.9917
   95SAPS   C35 9433   3.166   3.509   7.062 -0.3013  0.3566  0.5111
   95SAPS   H5X 9434   3.079   3.557   7.112 -0.2173  0.9237  0.1349
   95SAPS   H5Y 9435   3.233   3.592   7.029 -0.8271  0.6379  0.1149
   95SAPS   C36 9436   3.241   3.424   7.167  0.2983 -0.6863  0.7393
   95SAPS   H6X 9437   3.347   3.418   7.135  0.5152 -2.2130  1.6457
   95SAPS   H6Y 9438   3.201   3.322   7.150 -0.0816 -0.4670  0.2806
   95SAPS   C37 9439   3.232   3.477   7.311  0.0393  1.0698 -0.0837
   95SAPS   H7X 9440   3.127   3.496   7.341  0.0617  0.0628  0.7124
   95SAPS   H7Y 9441   3.286   3.573   7.318  1.2063  0.4389 -0.1514
   95SAPS   C38 9442   3.288   3.371   7.410  0.1884  0.4595 -0.4918
   95SAPS   H8X 9443   3.397   3.347   7.408 -0.2489 -1.7255 -0.4129
   95SAPS   H8Y 9444   3.224   3.281   7.399 -1.3463  1.7031 -2.4529
   95SAPS   C39 9445   3.267   3.405   7.568  0.3644  0.2149  0.6245
   95SAPS   H9X 9446   3.170   3.458   7.574  0.7906  1.1599 -0.4250
   95SAPS   H9Y 9447   3.347   3.473   7.602 -1.1918  1.5832  1.7101
   95SAPS  C310 9448   3.274   3.281   7.653 -0.8258  0.0242 -0.7073
   95SAPS  H10X 9449   3.376   3.240   7.671 -1.1207  0.2080  1.6042
   95SAPS  H10Y 9450   3.208   3.204   7.608  0.1012  0.3207 -2.6849
   95SAPS  C311 9451   3.207   3.303   7.791  0.3650 -0.3220 -0.1497
   95SAPS  H11X 9452   3.107   3.339   7.760  1.1337  0.3762 -1.9981
   95SAPS  H11Y 9453   3.258   3.374   7.859  0.3365  0.0901 -0.5524
   95SAPS  C312 9454   3.201   3.172   7.872  0.0075 -0.4505 -0.1242
   95SAPS  H12X 9455   3.300   3.123   7.884  0.1485 -0.1545 -0.0667
   95SAPS  H12Y 9456   3.133   3.099   7.823 -1.4184  2.3333 -2.6266
   95SAPS  C313 9457   3.129   3.204   8.004 -0.3193 -0.1516 -0.5649
   95SAPS  H13X 9458   3.019   3.212   7.992 -0.8971 -1.5272  2.6018
   95SAPS  H13Y 9459   3.165   3.298   8.053 -1.8167  0.0051  0.2885
   95SAPS  C314 9460   3.141   3.089   8.102 -0.0040 -0.1699 -0.1670
   95SAPS  H14X 9461   3.247   3.062   8.123  0.3592  2.2102  1.3859
   95SAPS  H14Y 9462   3.087   2.998   8.069  1.6864 -1.7659  1.2354
   95SAPS  C315 9463   3.069   3.119   8.242  0.5714  0.1470 -0.4781
   95SAPS  H15X 9464   2.963   3.149   8.229 -0.0731 -1.6726  0.2381
   95SAPS  H15Y 9465   3.108   3.205   8.300 -0.8083 -0.0255  0.7651
   95SAPS  C316 9466   3.061   2.987   8.315 -0.1339  0.2684 -0.7453
   95SAPS  H16X 9467   3.165   2.964   8.347 -0.8518 -0.4682  1.2138
   95SAPS  H16Y 9468   3.031   2.897   8.256 -0.6214  0.6651 -1.1078
   95SAPS  C317 9469   2.983   2.999   8.447 -0.2710 -0.4522 -0.4736
   95SAPS  H17X 9470   3.030   3.080   8.508  0.3593 -1.5694  0.5736
   95SAPS  H17Y 9471   2.996   2.912   8.514  1.0413  1.3088  1.6964
   95SAPS  C318 9472   2.831   3.018   8.425  0.3285  0.7153 -0.2545
   95SAPS  H18X 9473   2.789   3.038   8.526  1.5153  0.8417  0.2226
   95SAPS  H18Y 9474   2.789   2.922   8.387  0.1597 -0.4422  2.5872
   95SAPS  H18Z 9475   2.792   3.102   8.365 -3.4058 -0.3244  0.4662
   96SAPS     N 9476   5.505   5.980   6.218 -0.1856 -0.2833 -0.1956
   96SAPS   HN1 9477   5.562   5.993   6.304  3.5983 -2.5040 -2.1294
   96SAPS   HN2 9478   5.559   6.023   6.140  0.6294  0.5173  0.7898
   96SAPS   HN3 9479   5.417   6.035   6.224 -0.6072 -0.9891  0.2267
   96SAPS   C12 9480   5.465   5.840   6.191  0.1041 -0.8981 -0.5558
   96SAPS  H12A 9481   5.407   5.803   6.274 -1.6957 -1.1492 -1.8605
   96SAPS   C13 9482   5.387   5.820   6.055  0.4591 -0.0038  0.0552
   96SAPS  O13A 9483   5.359   5.920   5.982  0.4720 -0.3578  0.3770
   96SAPS  O13B 9484   5.349   5.705   6.029  0.2296  0.4860  0.1285
   96SAPS   C11 9485   5.601   5.759   6.194  0.0684 -0.7147 -0.0476
   96SAPS  H11A 9486   5.669   5.792   6.113  1.0208  0.1315  1.0509
   96SAPS  H11B 9487   5.570   5.654   6.178  0.5155 -1.4207  3.0191
   96SAPS     P 9488   5.760   5.670   6.386  0.0423 -0.0128 -0.0306
   96SAPS   O13 9489   5.883   5.668   6.309 -0.6740 -0.4980 -0.1357
   96SAPS   O14 9490   5.769   5.703   6.532  0.0107  0.6467  0.0881
   96SAPS   O12 9491   5.664   5.779   6.316 -0.1773  0.6880  0.3645
   96SAPS   O11 9492   5.700   5.523   6.364 -0.8190 -0.0613  0.2589
   96SAPS    C1 9493   5.580   5.491   6.427  0.4886  1.0373  0.0542
   96SAPS    HA 9494   5.517   5.577   6.456 -2.7353 -1.8569  2.4340
   96SAPS    HB 9495   5.513   5.428   6.364 -1.2312  1.2045  1.6411
   96SAPS    C2 9496   5.600   5.389   6.547 -0.0017  0.2635  0.0160
   96SAPS    HS 9497   5.502   5.352   6.585  0.2302  0.3760  0.7244
   96SAPS   O21 9498   5.665   5.454   6.660  0.2566  0.0239  0.6030
   96SAPS   C21 9499   5.598   5.551   6.720  0.1120  0.4220 -0.1586
   96SAPS   O22 9500   5.486   5.599   6.691  0.0999 -0.0879 -0.1328
   96SAPS   C22 9501   5.668   5.597   6.851  0.2799 -0.5018 -0.1568
   96SAPS   H2R 9502   5.767   5.639   6.825  0.3379 -1.1059 -0.9207
   96SAPS   H2S 9503   5.607   5.671   6.907 -1.4670 -0.5394 -1.9102
   96SAPS    C3 9504   5.695   5.275   6.501  0.1326  0.4393 -0.2108
   96SAPS    HX 9505   5.785   5.308   6.445  0.2991 -0.6541 -0.6181
   96SAPS    HY 9506   5.659   5.238   6.403  0.5483 -1.0992  0.1909
   96SAPS   O31 9507   5.717   5.170   6.595 -0.0315  0.2124 -0.2981
   96SAPS   C31 9508   5.839   5.199   6.666  0.3124  0.1397  0.1095
   96SAPS   O32 9509   5.905   5.292   6.646 -0.8642 -0.0407 -0.3831
   96SAPS   C32 9510   5.848   5.105   6.790  0.0376 -0.1517 -0.6578
   96SAPS   H2X 9511   5.949   5.059   6.783 -0.0063 -1.0478  2.6816
   96SAPS   H2Y 9512   5.780   5.017   6.785 -1.3651  0.7831  0.8284
   96SAPS   C23 9513   5.699   5.473   6.940 -0.7615 -1.1592 -0.8815
   96SAPS   H3R 9514   5.762   5.493   7.029 -2.5503 -1.5065  0.5098
   96SAPS   H3S 9515   5.762   5.401   6.883 -0.7303 -1.4463 -0.4858
   96SAPS   C24 9516   5.573   5.402   6.989 -0.3057 -0.2349 -0.6404
   96SAPS   H4R 9517   5.592   5.300   7.028  1.4519  0.7083  1.1470
   96SAPS   H4S 9518   5.499   5.408   6.907 -0.0896  0.6360 -0.7871
   96SAPS   C25 9519   5.496   5.481   7.101  0.2598  0.8844 -0.4279
   96SAPS   H5R 9520   5.438   5.559   7.051 -0.4188  1.1476  0.7382
   96SAPS   C26 9521   5.499   5.471   7.239 -0.7374 -0.4782  0.7883
   96SAPS   H6R 9522   5.439   5.546   7.292 -0.1993  0.5777 -0.0797
   96SAPS   C27 9523   5.576   5.368   7.319 -0.2674  0.6523 -0.9061
   96SAPS   H7R 9524   5.643   5.307   7.255  1.4175 -0.6065  1.8684
   96SAPS   H7S 9525   5.507   5.297   7.369  1.1506  0.9766  1.7088
   96SAPS   C28 9526   5.670   5.427   7.427  0.1988 -0.1564  0.0774
   96SAPS   H8R 9527   5.769   5.448   7.385  0.1240 -0.7518 -0.4037
   96SAPS   C29 9528   5.643   5.446   7.560  0.8545  0.0075  0.1406
   96SAPS   H9R 9529   5.729   5.475   7.622  1.2818 -1.1462  0.1261
   96SAPS  C210 9530   5.519   5.401   7.627 -0.1240 -0.4010 -0.0169
   96SAPS  H10R 9531   5.419   5.416   7.581 -0.5216 -0.2359  0.8774
   96SAPS  H10S 9532   5.513   5.474   7.711  1.6895  2.4962 -2.2170
   96SAPS  C211 9533   5.538   5.257   7.679  0.3742 -0.1607 -0.3503
   96SAPS  H11R 9534   5.580   5.185   7.607 -0.6139 -0.1623 -0.9479
   96SAPS  C212 9535   5.527   5.210   7.806  0.5771  0.0058 -0.3659
   96SAPS  H12R 9536   5.556   5.109   7.838  1.1809 -0.0843 -1.1437
   96SAPS  C213 9537   5.487   5.287   7.936  0.1271 -0.1216  0.0359
   96SAPS  H13R 9538   5.386   5.254   7.967  0.5771  0.8421  2.8246
   96SAPS  H13S 9539   5.464   5.393   7.913  1.0135  0.1888  0.5071
   96SAPS  C214 9540   5.586   5.265   8.044 -0.5873 -0.3553  0.2256
   96SAPS  H14R 9541   5.689   5.278   8.007 -1.1414 -0.0248 -1.2613
   96SAPS  C215 9542   5.563   5.230   8.167  0.5246  0.0831 -0.7855
   96SAPS  H15R 9543   5.646   5.232   8.239 -0.5060  1.1307  0.4010
   96SAPS  C216 9544   5.425   5.212   8.233 -0.0668 -0.4284  0.8816
   96SAPS  H16R 9545   5.387   5.107   8.228 -1.9785  0.2740 -0.2261
   96SAPS  H16S 9546   5.349   5.275   8.182  0.4137 -1.3706 -1.1074
   96SAPS  C217 9547   5.425   5.260   8.375  0.2173  1.4269 -0.6364
   96SAPS  H17R 9548   5.503   5.219   8.444 -0.3643  0.4705 -0.5368
   96SAPS  H17S 9549   5.326   5.223   8.406  1.4427 -1.4597  0.1790
   96SAPS  C218 9550   5.437   5.412   8.392  1.0365 -0.0370 -0.4867
   96SAPS  H18R 9551   5.378   5.458   8.309  0.0337 -0.8758 -0.2563
   96SAPS  H18S 9552   5.544   5.443   8.391  1.4341 -1.3570 -1.2412
   96SAPS  C219 9553   5.377   5.480   8.516  0.5712  0.2972 -0.2420
   96SAPS  H19R 9554   5.450   5.451   8.595 -1.2359 -1.5371  0.8406
   96SAPS  H19S 9555   5.281   5.432   8.544  1.2266 -0.0669  1.4920
   96SAPS  C220 9556   5.357   5.629   8.509  0.3447 -0.5803  0.6475
   96SAPS  H20R 9557   5.305   5.663   8.601  0.3016 -0.2005  0.4841
   96SAPS  H20S 9558   5.296   5.662   8.423  1.9011  1.8994  0.4191
   96SAPS  H20T 9559   5.456   5.677   8.495  0.7077 -1.5666 -0.3461
   96SAPS   C33 9560   5.841   5.169   6.925 -0.3085  0.9774  0.0653
   96SAPS   H3X 9561   5.734   5.199   6.927 -1.0735 -1.5445 -0.0169
   96SAPS   H3Y 9562   5.911   5.255   6.928  0.0096  0.7047  0.5707
   96SAPS   C34 9563   5.872   5.056   7.023 -0.5872  0.1129  0.2377
   96SAPS   H4X 9564   5.980   5.039   7.003 -0.4312  0.9601  0.3300
   96SAPS   H4Y 9565   5.806   4.970   7.001 -0.7017  0.5030 -1.0756
   96SAPS   C35 9566   5.862   5.111   7.168  0.3366  0.0730 -0.5830
   96SAPS   H5X 9567   5.754   5.133   7.180  0.2408 -1.2834  1.4904
   96SAPS   H5Y 9568   5.910   5.211   7.172  0.3814  0.0429 -0.3645
   96SAPS   C36 9569   5.905   5.027   7.283 -0.8963 -0.0409  1.0923
   96SAPS   H6X 9570   6.016   5.028   7.286 -0.9088  1.2510  3.2036
   96SAPS   H6Y 9571   5.866   4.923   7.273 -2.3945 -0.0779  5.3810
   96SAPS   C37 9572   5.868   5.079   7.420 -0.4631 -0.4466  0.3453
   96SAPS   H7X 9573   5.757   5.076   7.421 -0.4997 -0.1371 -0.8057
   96SAPS   H7Y 9574   5.903   5.184   7.427 -1.5068  0.0474 -1.3561
   96SAPS   C38 9575   5.927   5.011   7.541  0.6932  0.3938 -0.7199
   96SAPS   H8X 9576   6.035   5.031   7.558  0.5160  0.1028  0.9391
   96SAPS   H8Y 9577   5.911   4.902   7.526 -1.0731  0.3866  0.8658
   96SAPS   C39 9578   5.864   5.053   7.669 -0.0371  0.4198  0.0189
   96SAPS   H9X 9579   5.757   5.029   7.651  0.2687  0.1151 -1.5340
   96SAPS   H9Y 9580   5.856   5.164   7.672 -0.5732  0.3610  1.1797
   96SAPS  C310 9581   5.916   4.987   7.794 -0.0524 -0.5215  0.0558
   96SAPS  H10X 9582   6.009   5.040   7.826 -0.2123 -0.4008  0.3265
   96SAPS  H10Y 9583   5.946   4.885   7.764  2.1136  0.8944 -3.1212
   96SAPS  C311 9584   5.821   4.984   7.914  0.3738 -0.9110  0.0600
   96SAPS  H11X 9585   5.743   4.907   7.896  0.0036 -1.0967  2.1452
   96SAPS  H11Y 9586   5.779   5.083   7.944  0.4495 -0.8028 -0.1873
   96SAPS  C312 9587   5.903   4.933   8.031 -0.3621  0.2604 -0.9295
   96SAPS  H12X 9588   5.979   5.008   8.058 -2.3180  1.4443  1.7266
   96SAPS  H12Y 9589   5.968   4.848   8.001  0.6825 -0.2065  2.3178
   96SAPS  C313 9590   5.825   4.907   8.160 -0.3427  0.1204 -0.2654
   96SAPS  H13X 9591   5.750   4.830   8.132  1.9561 -3.1069  1.7665
   96SAPS  H13Y 9592   5.753   4.987   8.189 -1.9067 -1.7094  1.2157
   96SAPS  C314 9593   5.912   4.865   8.278  0.4803  0.6262 -0.2365
   96SAPS  H14X 9594   5.988   4.945   8.294 -0.3544  1.1661  1.2035
   96SAPS  H14Y 9595   5.973   4.775   8.254  1.0228  1.6666 -3.2152
   96SAPS  C315 9596   5.836   4.833   8.405  0.0000  0.3875  0.4294
   96SAPS  H15X 9597   5.910   4.805   8.482  2.1859 -1.0047 -2.0137
   96SAPS  H15Y 9598   5.772   4.746   8.380  0.7035 -0.1231  0.3852
   96SAPS  C316 9599   5.754   4.954   8.452 -0.0197  0.0105  0.2533
   96SAPS  H16X 9600   5.658   4.944   8.397  0.1488  3.5299 -0.9222
   96SAPS  H16Y 9601   5.812   5.043   8.419 -1.8887  1.0362 -0.3793
   96SAPS  C317 9602   5.734   4.952   8.605 -0.1043  0.2250 -0.0377
   96SAPS  H17X 9603   5.827   4.937   8.662 -0.3107  0.1702  0.2849
   96SAPS  H17Y 9604   5.673   4.862   8.630 -0.5627  0.4756 -0.2304
   96SAPS  C318 9605   5.653   5.071   8.668  0.2189  0.4554 -0.8517
   96SAPS  H18X 9606   5.552   5.069   8.624  0.4435 -1.9898 -1.3723
   96SAPS  H18Y 9607   5.701   5.169   8.646  1.9805 -0.1420  0.0973
   96SAPS  H18Z 9608   5.647   5.061   8.779 -2.0992  0.3315 -0.9597
   97SAPS     N 9609   6.037   2.391   5.978 -0.4770 -0.1786 -0.6677
   97SAPS   HN1 9610   5.988   2.301   5.997  0.9000 -0.8275 -0.0220
   97SAPS   HN2 9611   6.123   2.375   5.922 -0.5159 -0.5749 -0.6174
   97SAPS   HN3 9612   6.073   2.429   6.068  1.8011 -0.3928 -1.4316
   97SAPS   C12 9613   5.946   2.476   5.909 -0.4687 -0.6396 -0.5502
   97SAPS  H12A 9614   6.002   2.564   5.881 -0.1460 -0.4045  0.7821
   97SAPS   C13 9615   5.890   2.416   5.775 -0.0708  0.7457 -0.8039
   97SAPS  O13A 9616   5.926   2.304   5.737 -0.3108 -0.4726  0.1528
   97SAPS  O13B 9617   5.805   2.477   5.711 -0.1350 -0.0800  0.2367
   97SAPS   C11 9618   5.830   2.511   6.008  0.3584  0.1337 -0.2187
   97SAPS  H11A 9619   5.795   2.416   6.052  1.4979 -0.2903 -0.1892
   97SAPS  H11B 9620   5.743   2.564   5.964  0.9326  2.6866  1.4659
   97SAPS     P 9621   5.793   2.723   6.166  0.5159 -0.6789 -0.0542
   97SAPS   O13 9622   5.847   2.772   6.294 -0.5844  0.9977 -0.3620
   97SAPS   O14 9623   5.790   2.814   6.056  0.3606 -0.1890  0.1312
   97SAPS   O12 9624   5.876   2.587   6.119  0.5741 -0.0050 -0.5419
   97SAPS   O11 9625   5.650   2.667   6.193  0.4740 -0.6578 -0.5072
   97SAPS    C1 9626   5.628   2.541   6.261 -0.0168  0.1639  0.5022
   97SAPS    HA 9627   5.600   2.459   6.191  1.9718  0.2299 -0.4235
   97SAPS    HB 9628   5.720   2.503   6.309 -0.6525 -2.8891 -0.4241
   97SAPS    C2 9629   5.520   2.548   6.364 -0.1103 -0.6164 -0.0376
   97SAPS    HS 9630   5.434   2.607   6.328  0.8756  0.6126 -0.4435
   97SAPS   O21 9631   5.572   2.612   6.487 -0.3842 -0.0382  0.1033
   97SAPS   C21 9632   5.551   2.736   6.502  0.2788  0.2846 -0.3456
   97SAPS   O22 9633   5.486   2.808   6.427 -0.4888 -0.4630  0.1158
   97SAPS   C22 9634   5.604   2.785   6.640  0.1422 -0.2223 -0.0590
   97SAPS   H2R 9635   5.541   2.860   6.692  1.6564 -0.3564  2.0990
   97SAPS   H2S 9636   5.613   2.689   6.696  1.0117  0.3013  0.7107
   97SAPS    C3 9637   5.475   2.402   6.404  0.1152 -0.2021  0.4746
   97SAPS    HX 9638   5.572   2.357   6.433  1.3136  1.6439 -0.4771
   97SAPS    HY 9639   5.442   2.346   6.314 -0.0799 -0.5401  0.7552
   97SAPS   O31 9640   5.382   2.396   6.520 -0.4940 -0.1693 -0.5681
   97SAPS   C31 9641   5.265   2.443   6.476 -0.0474  0.2605 -0.0467
   97SAPS   O32 9642   5.235   2.478   6.362 -0.8859  0.2353 -0.8742
   97SAPS   C32 9643   5.177   2.471   6.596 -0.1082 -0.3945 -0.9391
   97SAPS   H2X 9644   5.129   2.375   6.625 -0.5090 -0.5609 -2.1116
   97SAPS   H2Y 9645   5.099   2.542   6.560 -2.7289 -1.0432  2.7909
   97SAPS   C23 9646   5.735   2.859   6.612  0.6592  0.2894 -0.2200
   97SAPS   H3R 9647   5.706   2.956   6.566 -0.9179  0.2696  0.6652
   97SAPS   H3S 9648   5.795   2.797   6.542 -0.7759 -2.1661  0.5948
   97SAPS   C24 9649   5.810   2.878   6.738 -0.3414 -0.4927  0.2623
   97SAPS   H4R 9650   5.735   2.924   6.805 -0.5528  1.1569 -1.0440
   97SAPS   H4S 9651   5.897   2.946   6.728 -0.1240 -0.9517 -1.2252
   97SAPS   C25 9652   5.852   2.737   6.777 -0.0724  0.5486 -0.8359
   97SAPS   H5R 9653   5.903   2.681   6.698 -0.0810  0.6075 -0.8832
   97SAPS   C26 9654   5.845   2.684   6.900 -0.4105  0.3353  0.2668
   97SAPS   H6R 9655   5.876   2.579   6.909  1.6103  0.7898 -0.8512
   97SAPS   C27 9656   5.789   2.758   7.015 -0.1206 -0.0470  0.5827
   97SAPS   H7R 9657   5.817   2.865   7.029 -0.6406 -0.0780  2.0066
   97SAPS   H7S 9658   5.841   2.715   7.103  0.5420  0.6460  0.5420
   97SAPS   C28 9659   5.640   2.742   7.035  0.4991 -0.1879  0.0669
   97SAPS   H8R 9660   5.577   2.704   6.953  3.6961 -1.5508 -1.9624
   97SAPS   C29 9661   5.581   2.758   7.161  0.2686 -0.3189  0.0301
   97SAPS   H9R 9662   5.478   2.722   7.178  0.2838  0.1134  1.1355
   97SAPS  C210 9663   5.649   2.794   7.292  0.2115 -0.6042  0.0252
   97SAPS  H10R 9664   5.663   2.904   7.303 -0.0573 -0.5606 -0.0648
   97SAPS  H10S 9665   5.758   2.770   7.292  0.4852  0.5617  0.5947
   97SAPS  C211 9666   5.584   2.724   7.408 -0.5824  0.5795 -0.3839
   97SAPS  H11R 9667   5.523   2.636   7.382  1.1251 -0.3366 -1.4586
   97SAPS  C212 9668   5.606   2.759   7.538  0.0115 -0.1779  0.3884
   97SAPS  H12R 9669   5.566   2.694   7.617  1.6819 -0.7963  0.7835
   97SAPS  C213 9670   5.691   2.877   7.593 -0.3143 -0.5653 -0.0604
   97SAPS  H13R 9671   5.725   2.945   7.511  2.0525  1.4695  2.4153
   97SAPS  H13S 9672   5.779   2.832   7.643  0.9320  0.8764 -0.8269
   97SAPS  C214 9673   5.611   2.973   7.688 -0.2278  0.1326 -0.4885
   97SAPS  H14R 9674   5.547   3.046   7.637  0.6171  2.9457  2.1841
   97SAPS  C215 9675   5.615   2.973   7.827  0.2025 -0.3880  0.8039
   97SAPS  H15R 9676   5.558   3.048   7.884  1.9950 -0.1583  2.3668
   97SAPS  C216 9677   5.690   2.872   7.909  0.9278  0.1101 -0.2031
   97SAPS  H16R 9678   5.747   2.801   7.845 -1.8356 -0.0106 -2.7499
   97SAPS  H16S 9679   5.608   2.814   7.955  0.7269  0.1694 -0.4814
   97SAPS  C217 9680   5.774   2.927   8.022 -0.2154  0.2940  0.3909
   97SAPS  H17R 9681   5.720   3.013   8.066 -0.2909  0.7858 -0.6359
   97SAPS  H17S 9682   5.867   2.964   7.973 -0.5419  0.5352 -0.0479
   97SAPS  C218 9683   5.799   2.827   8.133 -0.1752  0.1581 -0.4200
   97SAPS  H18R 9684   5.862   2.740   8.102 -1.5888 -1.3953  0.8609
   97SAPS  H18S 9685   5.709   2.777   8.175  0.8766 -0.9665  0.5696
   97SAPS  C219 9686   5.869   2.892   8.261 -0.0098  0.3817  0.4877
   97SAPS  H19R 9687   5.789   2.956   8.304  0.1741  1.0629 -0.1649
   97SAPS  H19S 9688   5.948   2.963   8.229  0.8433 -1.3082 -1.3982
   97SAPS  C220 9689   5.925   2.797   8.367 -1.2100  0.3602  0.2091
   97SAPS  H20R 9690   5.935   2.826   8.474 -1.9125  1.2108  0.0478
   97SAPS  H20S 9691   6.032   2.780   8.342 -1.5311  2.1575 -2.9537
   97SAPS  H20T 9692   5.884   2.694   8.355  1.2851 -0.6730 -0.0978
   97SAPS   C33 9693   5.249   2.522   6.725  0.2261 -0.1243  0.4278
   97SAPS   H3X 9694   5.253   2.631   6.703 -2.5386 -0.1952 -0.8765
   97SAPS   H3Y 9695   5.347   2.471   6.734 -0.1069 -0.7417  0.6054
   97SAPS   C34 9696   5.176   2.494   6.854 -0.2702 -0.0394  0.0600
   97SAPS   H4X 9697   5.151   2.386   6.849  0.0173 -0.0586 -1.3366
   97SAPS   H4Y 9698   5.079   2.548   6.864 -0.9347 -0.7595 -1.9841
   97SAPS   C35 9699   5.262   2.512   6.988  0.1268 -0.2420  0.1249
   97SAPS   H5X 9700   5.293   2.618   7.001 -1.7400  0.5119 -1.0875
   97SAPS   H5Y 9701   5.352   2.449   6.976  0.3070 -0.0509  0.4867
   97SAPS   C36 9702   5.178   2.469   7.108  0.2377 -0.0178 -1.2150
   97SAPS   H6X 9703   5.157   2.360   7.102  2.5325 -0.5271 -1.0113
   97SAPS   H6Y 9704   5.087   2.532   7.113  2.0073  2.5541  1.7643
   97SAPS   C37 9705   5.253   2.503   7.239 -0.1172  1.0006 -0.9335
   97SAPS   H7X 9706   5.266   2.614   7.242 -1.5732  1.1561  0.5465
   97SAPS   H7Y 9707   5.354   2.458   7.248  0.2477  1.5560 -1.9965
   97SAPS   C38 9708   5.178   2.474   7.372 -0.0516 -0.2838  0.0032
   97SAPS   H8X 9709   5.148   2.368   7.385  1.2064 -0.8319 -1.2737
   97SAPS   H8Y 9710   5.090   2.541   7.385  0.3204  0.1598  0.2786
   97SAPS   C39 9711   5.272   2.511   7.487  1.0774 -0.2279  0.2599
   97SAPS   H9X 9712   5.312   2.615   7.482 -1.4684  0.8188  0.0312
   97SAPS   H9Y 9713   5.345   2.429   7.474  1.1330 -0.1871  0.3194
   97SAPS  C310 9714   5.212   2.486   7.627  0.4246 -0.1031 -0.1004
   97SAPS  H10X 9715   5.155   2.391   7.624  0.5391 -0.1726 -0.0981
   97SAPS  H10Y 9716   5.141   2.562   7.665 -0.0563 -1.0513  0.9473
   97SAPS  C311 9717   5.325   2.456   7.734 -0.2021  0.1622 -0.3493
   97SAPS  H11X 9718   5.378   2.552   7.751  0.3366 -0.1061 -0.4915
   97SAPS  H11Y 9719   5.412   2.401   7.691  0.4068  2.1316 -1.7880
   97SAPS  C312 9720   5.281   2.386   7.863  0.0134  0.5232  0.1310
   97SAPS  H12X 9721   5.365   2.330   7.910 -1.1127 -0.6687  0.7608
   97SAPS  H12Y 9722   5.220   2.301   7.829  1.5177 -0.9281  0.8956
   97SAPS  C313 9723   5.220   2.471   7.976  0.4727  0.1874 -0.2704
   97SAPS  H13X 9724   5.125   2.515   7.938 -0.3564  0.5681  2.0853
   97SAPS  H13Y 9725   5.280   2.565   7.976 -0.5213  0.8741  1.3174
   97SAPS  C314 9726   5.212   2.416   8.120  0.1341 -0.4086  0.1189
   97SAPS  H14X 9727   5.312   2.376   8.149  1.0881 -0.2417 -2.6701
   97SAPS  H14Y 9728   5.137   2.334   8.113  0.0282 -0.5963  2.6084
   97SAPS  C315 9729   5.152   2.511   8.227 -0.5092 -0.4231 -0.1310
   97SAPS  H15X 9730   5.065   2.567   8.185  0.8065  1.4283 -0.5459
   97SAPS  H15Y 9731   5.227   2.590   8.249  2.3329 -2.7725 -0.8196
   97SAPS  C316 9732   5.113   2.447   8.355 -0.4997 -0.2424 -0.8324
   97SAPS  H16X 9733   5.201   2.394   8.398 -1.1715 -0.2386  0.6130
   97SAPS  H16Y 9734   5.036   2.373   8.325  0.1363 -1.2034 -0.1498
   97SAPS  C317 9735   5.074   2.548   8.466 -0.5737  0.0351  0.1259
   97SAPS  H17X 9736   4.995   2.613   8.421 -1.7528 -0.9984  0.6393
   97SAPS  H17Y 9737   5.164   2.610   8.486 -0.1031 -0.6456  0.1353
   97SAPS  C318 9738   5.015   2.488   8.596  0.4419 -0.4382 -0.0007
   97SAPS  H18X 9739   4.922   2.431   8.579 -0.0566  0.2752  0.3138
   97SAPS  H18Y 9740   4.990   2.574   8.662  2.1548 -0.3961  0.6708
   97SAPS  H18Z 9741   5.085   2.421   8.651  1.5478  0.1673 -0.6385
   98SAPS     N 9742   3.068   2.925   6.256 -0.0403 -0.1438 -0.0261
   98SAPS   HN1 9743   2.967   2.938   6.278 -0.3630  0.7563 -1.8291
   98SAPS   HN2 9744   3.128   2.993   6.307  3.4098 -1.2090 -2.2918
   98SAPS   HN3 9745   3.075   2.954   6.157  1.6230 -3.4277 -1.0361
   98SAPS   C12 9746   3.096   2.784   6.273 -0.6416 -0.2652  0.1750
   98SAPS  H12A 9747   3.083   2.764   6.378  1.9249  0.4385  0.7133
   98SAPS   C13 9748   3.000   2.696   6.185 -0.8615  0.1803 -0.3996
   98SAPS  O13A 9749   2.923   2.746   6.096  0.4185 -0.3233  0.3851
   98SAPS  O13B 9750   2.995   2.572   6.212  0.1076 -0.2054  0.4336
   98SAPS   C11 9751   3.246   2.761   6.232  0.0820 -0.4374  1.3004
   98SAPS  H11A 9752   3.251   2.779   6.123 -3.5923  1.0367  1.2513
   98SAPS  H11B 9753   3.259   2.651   6.242  1.2753 -0.2841  1.5731
   98SAPS     P 9754   3.488   2.863   6.259 -0.2692  0.0089 -0.0929
   98SAPS   O13 9755   3.506   2.829   6.118  0.3420 -0.6370 -0.3231
   98SAPS   O14 9756   3.519   3.005   6.290  0.6473 -0.0797  0.0683
   98SAPS   O12 9757   3.342   2.826   6.315  0.0535  0.0707  0.6881
   98SAPS   O11 9758   3.584   2.773   6.345  0.3775  0.5352  0.2178
   98SAPS    C1 9759   3.602   2.632   6.320  0.2063 -0.7668 -0.0853
   98SAPS    HA 9760   3.510   2.584   6.279  1.3099 -2.5908 -0.5338
   98SAPS    HB 9761   3.693   2.617   6.258 -0.0140 -1.6136 -0.2100
   98SAPS    C2 9762   3.640   2.555   6.450 -0.3517 -0.1332 -0.0828
   98SAPS    HS 9763   3.634   2.446   6.429 -2.1472  0.0004 -0.3468
   98SAPS   O21 9764   3.550   2.595   6.554 -0.8140  0.1647  0.4493
   98SAPS   C21 9765   3.423   2.558   6.534 -0.4142  0.5792 -0.3875
   98SAPS   O22 9766   3.386   2.479   6.449 -0.0842  0.5978  0.0821
   98SAPS   C22 9767   3.321   2.627   6.634 -0.3433 -0.0866  0.0565
   98SAPS   H2R 9768   3.366   2.729   6.642 -0.2978  0.1675 -2.5100
   98SAPS   H2S 9769   3.223   2.640   6.584 -0.1648 -1.3852 -0.6889
   98SAPS    C3 9770   3.790   2.587   6.493 -0.6158 -0.3852 -0.0830
   98SAPS    HX 9771   3.785   2.697   6.509  0.6838 -0.1300 -1.1942
   98SAPS    HY 9772   3.859   2.570   6.407 -0.0579  1.1298  0.0416
   98SAPS   O31 9773   3.815   2.500   6.609  0.2407  0.1810 -0.6907
   98SAPS   C31 9774   3.901   2.542   6.704  1.0282 -0.2075 -0.5365
   98SAPS   O32 9775   3.993   2.624   6.691  0.1803 -0.0320 -0.2741
   98SAPS   C32 9776   3.864   2.468   6.836 -0.7942  0.4179  0.0259
   98SAPS   H2X 9777   3.910   2.367   6.841 -1.0030  0.3354  0.2849
   98SAPS   H2Y 9778   3.753   2.467   6.831 -0.8747 -0.9458  1.4403
   98SAPS   C23 9779   3.303   2.540   6.765 -0.6443  0.1773  0.1172
   98SAPS   H3R 9780   3.312   2.431   6.747  0.5907  0.5050 -1.4818
   98SAPS   H3S 9781   3.203   2.562   6.807 -0.6620  4.1263 -1.5068
   98SAPS   C24 9782   3.405   2.582   6.873  0.1685 -0.1310 -0.4887
   98SAPS   H4R 9783   3.374   2.685   6.899  0.1860 -0.0111 -0.9403
   98SAPS   H4S 9784   3.502   2.592   6.820  2.6024 -0.1042  3.5210
   98SAPS   C25 9785   3.412   2.503   7.000 -0.9583 -0.4564 -0.2936
   98SAPS   H5R 9786   3.409   2.394   6.995  0.4011 -0.4873 -0.7821
   98SAPS   C26 9787   3.418   2.561   7.128 -0.0833 -0.8969  0.2824
   98SAPS   H6R 9788   3.389   2.507   7.219 -1.1715  2.0594  1.8256
   98SAPS   C27 9789   3.414   2.711   7.158 -0.2320 -0.3743  0.0162
   98SAPS   H7R 9790   3.313   2.746   7.185 -0.1176  0.0147 -0.0558
   98SAPS   H7S 9791   3.440   2.761   7.062 -1.7018 -2.7191 -1.7045
   98SAPS   C28 9792   3.513   2.753   7.273  0.0922  0.5137  0.6862
   98SAPS   H8R 9793   3.620   2.738   7.254  0.1081  0.3846  0.8771
   98SAPS   C29 9794   3.483   2.778   7.403  0.5921  0.4037  1.2215
   98SAPS   H9R 9795   3.564   2.812   7.470  2.3543 -0.5206 -0.3192
   98SAPS  C210 9796   3.341   2.779   7.466 -0.1371 -0.1932  0.0671
   98SAPS  H10R 9797   3.266   2.723   7.405  0.2186 -1.6433  0.8961
   98SAPS  H10S 9798   3.312   2.886   7.462  3.6516  0.9451 -2.6762
   98SAPS  C211 9799   3.335   2.726   7.607 -0.0548  0.4161 -0.0985
   98SAPS  H11R 9800   3.283   2.629   7.612  0.2083  0.2794  0.0285
   98SAPS  C212 9801   3.388   2.779   7.719 -0.1383  0.8282  0.4481
   98SAPS  H12R 9802   3.379   2.721   7.812 -2.1429 -0.9925 -0.7868
   98SAPS  C213 9803   3.468   2.908   7.733  0.5064 -0.2527  0.4314
   98SAPS  H13R 9804   3.428   2.960   7.822  2.9508  1.3595  0.6915
   98SAPS  H13S 9805   3.441   2.974   7.648  0.4813  0.6268  1.1122
   98SAPS  C214 9806   3.620   2.887   7.736  0.2930 -0.2152  0.1649
   98SAPS  H14R 9807   3.656   2.793   7.782  3.5662  1.3488  1.0800
   98SAPS  C215 9808   3.721   2.966   7.694  0.2986 -0.3478  0.5031
   98SAPS  H15R 9809   3.825   2.930   7.696  0.9774  1.5342  2.4175
   98SAPS  C216 9810   3.711   3.102   7.628 -0.3063  0.3925  0.1649
   98SAPS  H16R 9811   3.805   3.161   7.627  0.7817 -1.2664  0.4915
   98SAPS  H16S 9812   3.635   3.162   7.683  0.8252  3.8445 -1.7615
   98SAPS  C217 9813   3.658   3.089   7.483  0.1444 -0.4318  0.3484
   98SAPS  H17R 9814   3.552   3.061   7.497  0.0726  0.2714  1.2269
   98SAPS  H17S 9815   3.710   3.004   7.433  0.3984 -1.2606  1.9339
   98SAPS  C218 9816   3.690   3.221   7.400  0.1501 -0.1962 -0.1257
   98SAPS  H18R 9817   3.801   3.232   7.401  0.0624  0.8081  1.1649
   98SAPS  H18S 9818   3.646   3.307   7.453  0.6754 -0.8805  1.4820
   98SAPS  C219 9819   3.626   3.215   7.256  0.4229  0.0098 -1.1012
   98SAPS  H19R 9820   3.685   3.296   7.207  1.3185 -0.0624 -0.1835
   98SAPS  H19S 9821   3.516   3.232   7.254  0.5604  0.9113 -1.2531
   98SAPS  C220 9822   3.656   3.084   7.189 -0.0808 -0.3663  0.4776
   98SAPS  H20R 9823   3.638   3.088   7.079 -0.3818  0.1709  0.5440
   98SAPS  H20S 9824   3.599   2.995   7.222  2.3056 -2.0543  0.3091
   98SAPS  H20T 9825   3.766   3.069   7.202 -0.1478 -0.5820  0.7853
   98SAPS   C33 9826   3.916   2.559   6.949 -0.6377 -0.0021 -0.7153
   98SAPS   H3X 9827   3.854   2.651   6.946 -0.7487 -0.0656 -0.3940
   98SAPS   H3Y 9828   4.022   2.590   6.943 -0.1992 -1.1307  0.5530
   98SAPS   C34 9829   3.903   2.487   7.085 -0.9910 -1.0472  0.0130
   98SAPS   H4X 9830   3.915   2.568   7.159 -0.5239 -2.3006  1.3679
   98SAPS   H4Y 9831   3.994   2.423   7.092 -0.9137 -0.9227  0.1414
   98SAPS   C35 9832   3.773   2.415   7.118 -0.0766  0.4381  0.5612
   98SAPS   H5X 9833   3.751   2.341   7.038  0.9822  2.2232 -1.4934
   98SAPS   H5Y 9834   3.690   2.488   7.112  0.5282  1.2915  1.9199
   98SAPS   C36 9835   3.763   2.358   7.259  0.2948  0.1369  0.2981
   98SAPS   H6X 9836   3.840   2.282   7.283 -0.1861 -0.5391 -0.2744
   98SAPS   H6Y 9837   3.665   2.312   7.284  0.6323  0.1195  1.7290
   98SAPS   C37 9838   3.791   2.464   7.371  0.4802  0.3169 -0.4346
   98SAPS   H7X 9839   3.715   2.544   7.362  0.6309  0.4388 -0.6122
   98SAPS   H7Y 9840   3.886   2.520   7.358 -0.0897  0.7613 -3.4209
   98SAPS   C38 9841   3.772   2.392   7.508  0.4231  0.2991  0.2475
   98SAPS   H8X 9842   3.867   2.341   7.536  0.6898  1.4899  1.6747
   98SAPS   H8Y 9843   3.701   2.310   7.488  1.3125 -0.4049 -0.0760
   98SAPS   C39 9844   3.729   2.480   7.625 -0.3193 -0.5411  0.3070
   98SAPS   H9X 9845   3.623   2.509   7.605  0.1132  0.7828 -0.1422
   98SAPS   H9Y 9846   3.796   2.568   7.632 -1.1862  0.4602 -2.6436
   98SAPS  C310 9847   3.740   2.405   7.760  0.4204 -0.2831  0.7234
   98SAPS  H10X 9848   3.849   2.386   7.773  0.4638  0.5561  1.7055
   98SAPS  H10Y 9849   3.688   2.308   7.768 -0.3114 -0.1163 -1.3734
   98SAPS  C311 9850   3.693   2.479   7.880 -0.1398  0.3118 -0.2313
   98SAPS  H11X 9851   3.665   2.406   7.959  2.6607 -0.0991  0.5191
   98SAPS  H11Y 9852   3.599   2.533   7.859 -0.1497  1.1293  1.6867
   98SAPS  C312 9853   3.804   2.575   7.939 -0.1131  0.1767  0.1375
   98SAPS  H12X 9854   3.826   2.641   7.852 -1.9748 -0.1585 -0.6496
   98SAPS  H12Y 9855   3.893   2.514   7.964  1.1463  0.1357 -3.7575
   98SAPS  C313 9856   3.767   2.667   8.055 -0.2499  0.5260  0.1241
   98SAPS  H13X 9857   3.739   2.593   8.133  1.6879 -0.1028  0.2842
   98SAPS  H13Y 9858   3.682   2.732   8.024  1.6009  2.4734 -1.1668
   98SAPS  C314 9859   3.877   2.766   8.088  1.0832  0.1934 -0.4446
   98SAPS  H14X 9860   3.867   2.848   8.013 -0.3086  0.4300 -0.0220
   98SAPS  H14Y 9861   3.976   2.719   8.070  0.2939 -1.2740 -1.1626
   98SAPS  C315 9862   3.869   2.823   8.229  0.0986 -0.5441 -0.9412
   98SAPS  H15X 9863   3.878   2.743   8.305  1.1756 -1.3741 -1.9236
   98SAPS  H15Y 9864   3.775   2.875   8.258  2.0913  3.1682 -0.5815
   98SAPS  C316 9865   3.974   2.936   8.268  0.5976  0.1339 -0.7158
   98SAPS  H16X 9866   3.968   3.023   8.198 -1.0180  0.2862 -0.4143
   98SAPS  H16Y 9867   4.075   2.893   8.249  0.5555  0.6332 -2.1969
   98SAPS  C317 9868   3.977   2.972   8.415  0.0933 -0.0082 -0.0435
   98SAPS  H17X 9869   3.941   2.885   8.475  1.0248 -0.0874  0.4082
   98SAPS  H17Y 9870   3.905   3.056   8.411  1.3260  1.0789 -0.0604
   98SAPS  C318 9871   4.105   3.039   8.445 -0.1020 -0.6781 -0.4648
   98SAPS  H18X 9872   4.119   3.137   8.394  1.3932 -1.2449 -1.1812
   98SAPS  H18Y 9873   4.189   2.979   8.405 -0.1150  0.1293 -1.7475
   98SAPS  H18Z 9874   4.126   3.058   8.553  0.9666  2.9532 -1.1571
   99SAPS     N 9875   1.615   0.798   6.172 -0.0147  0.1735 -0.7851
   99SAPS   HN1 9876   1.636   0.842   6.264 -0.6357  1.9829 -1.4502
   99SAPS   HN2 9877   1.537   0.729   6.171 -0.4293  0.4969  1.9254
   99SAPS   HN3 9878   1.705   0.755   6.146  0.5709 -0.7671  2.3343
   99SAPS   C12 9879   1.570   0.905   6.075 -0.1754  0.3397 -0.3064
   99SAPS  H12A 9880   1.611   0.885   5.977 -1.1730 -0.8682 -0.5119
   99SAPS   C13 9881   1.416   0.913   6.046  0.0052 -0.8218 -0.5364
   99SAPS  O13A 9882   1.343   0.822   6.085  0.4188  0.5633 -0.5607
   99SAPS  O13B 9883   1.363   1.008   5.980 -1.5441  0.2171  0.6592
   99SAPS   C11 9884   1.604   1.048   6.126  0.0653  0.8515  0.0152
   99SAPS  H11A 9885   1.557   1.049   6.227  0.9509 -2.6622  0.6216
   99SAPS  H11B 9886   1.552   1.121   6.061  1.0155  0.3182 -1.3952
   99SAPS     P 9887   1.822   1.200   6.141 -0.2213  0.4211 -0.2742
   99SAPS   O13 9888   1.971   1.172   6.147  0.6111 -0.2927 -0.4096
   99SAPS   O14 9889   1.754   1.288   6.042  0.3369  0.0583 -0.0925
   99SAPS   O12 9890   1.746   1.057   6.144  0.3318  0.0139 -0.0545
   99SAPS   O11 9891   1.770   1.251   6.284  0.0047 -0.0440  0.0209
   99SAPS    C1 9892   1.784   1.169   6.401  0.3035  0.1544 -0.0501
   99SAPS    HA 9893   1.698   1.188   6.468  0.4739 -1.4256  0.6628
   99SAPS    HB 9894   1.789   1.060   6.382 -0.5520 -0.2900  1.9815
   99SAPS    C2 9895   1.910   1.206   6.483 -0.7831  1.6096  0.0262
   99SAPS    HS 9896   1.998   1.166   6.429 -1.7255 -1.6682  0.7198
   99SAPS   O21 9897   1.884   1.131   6.610 -0.1293  0.0065  0.2981
   99SAPS   C21 9898   1.926   1.009   6.613 -0.0073  0.1230 -0.4937
   99SAPS   O22 9899   1.977   0.945   6.522  0.3110 -0.4113 -0.2948
   99SAPS   C22 9900   1.887   0.964   6.753  0.3566 -0.8069  0.9724
   99SAPS   H2R 9901   1.961   0.893   6.796 -0.0396 -1.3524  0.7750
   99SAPS   H2S 9902   1.884   1.050   6.823  0.2815  0.0691 -0.0837
   99SAPS    C3 9903   1.910   1.351   6.516  0.2374 -0.6991  0.1699
   99SAPS    HX 9904   1.818   1.383   6.570  0.2243  0.3476 -0.4464
   99SAPS    HY 9905   1.893   1.405   6.420 -0.0381 -0.5005  0.3285
   99SAPS   O31 9906   2.033   1.398   6.581  0.5941  0.1241 -0.8290
   99SAPS   C31 9907   2.123   1.448   6.502 -0.2445  1.0443 -0.2350
   99SAPS   O32 9908   2.115   1.471   6.383  0.4215  1.1483 -0.0868
   99SAPS   C32 9909   2.247   1.470   6.589  0.0769  0.3666 -0.7524
   99SAPS   H2X 9910   2.333   1.439   6.526  1.4954  0.4501  1.0681
   99SAPS   H2Y 9911   2.251   1.395   6.670  0.7987  0.3296 -0.8219
   99SAPS   C23 9912   1.758   0.880   6.761 -0.0358  0.1571  0.0751
   99SAPS   H3R 9913   1.778   0.779   6.719  0.8860 -0.7335  2.4816
   99SAPS   H3S 9914   1.671   0.930   6.713  0.2250  1.7458  1.1944
   99SAPS   C24 9915   1.715   0.853   6.906 -0.0417  0.0726  0.1867
   99SAPS   H4R 9916   1.617   0.799   6.900 -0.1467  0.2009  0.7289
   99SAPS   H4S 9917   1.696   0.953   6.949 -2.1888  0.6527 -1.8709
   99SAPS   C25 9918   1.806   0.767   6.983 -0.0313 -0.1346  0.3166
   99SAPS   H5R 9919   1.835   0.673   6.934 -0.6867 -1.1982  1.8872
   99SAPS   C26 9920   1.876   0.814   7.092  0.9776 -0.6452  0.9290
   99SAPS   H6R 9921   1.954   0.747   7.131  1.4494 -1.0750 -0.6812
   99SAPS   C27 9922   1.860   0.954   7.150  0.0728  0.1556 -0.7192
   99SAPS   H7R 9923   1.884   1.034   7.077 -0.9981  0.5865 -0.6207
   99SAPS   H7S 9924   1.945   0.964   7.222 -0.9642 -0.4353  0.6337
   99SAPS   C28 9925   1.735   0.980   7.229  0.8456 -0.2518 -0.4173
   99SAPS   H8R 9926   1.648   0.931   7.183  0.2488 -0.4292  0.8652
   99SAPS   C29 9927   1.724   1.070   7.331  0.1915 -0.3841 -0.0628
   99SAPS   H9R 9928   1.626   1.080   7.380  0.6813  2.4482  0.5149
   99SAPS  C210 9929   1.829   1.152   7.391 -0.7007 -0.1778 -0.0275
   99SAPS  H10R 9930   1.842   1.240   7.324 -2.7243  2.7127  3.0702
   99SAPS  H10S 9931   1.924   1.096   7.399 -0.0894  0.3873 -2.4663
   99SAPS  C211 9932   1.800   1.212   7.523 -0.1577 -0.0248 -0.5121
   99SAPS  H11R 9933   1.703   1.199   7.573 -0.7391  0.0115 -1.6037
   99SAPS  C212 9934   1.885   1.285   7.602 -0.6671  0.0241  0.1967
   99SAPS  H12R 9935   1.844   1.330   7.693 -1.2436 -1.2024  0.5648
   99SAPS  C213 9936   2.027   1.319   7.552  0.4172  0.3358  0.0827
   99SAPS  H13R 9937   2.035   1.297   7.444  1.4144 -0.5995  0.3409
   99SAPS  H13S 9938   2.094   1.254   7.612 -0.5301 -0.7191  0.0343
   99SAPS  C214 9939   2.068   1.463   7.564 -0.1600  0.2667  0.4795
   99SAPS  H14R 9940   2.025   1.534   7.493 -0.0889 -0.1446  0.0185
   99SAPS  C215 9941   2.149   1.515   7.662  0.2742  0.3776  0.2342
   99SAPS  H15R 9942   2.177   1.620   7.647 -0.9420  0.5172 -1.3385
   99SAPS  C216 9943   2.223   1.437   7.776  0.0084 -0.3559  0.2450
   99SAPS  H16R 9944   2.333   1.450   7.770  0.1979 -1.2155  1.4831
   99SAPS  H16S 9945   2.194   1.330   7.784 -1.1477  0.0397  2.0930
   99SAPS  C217 9946   2.188   1.476   7.915  0.2382 -0.9193 -0.2089
   99SAPS  H17R 9947   2.078   1.471   7.931  0.1157 -1.8250 -1.2595
   99SAPS  H17S 9948   2.211   1.583   7.935 -2.3227 -0.5652  1.3035
   99SAPS  C218 9949   2.265   1.398   8.021  0.1489  0.9949 -0.3637
   99SAPS  H18R 9950   2.297   1.302   7.975 -0.0482  0.0802  1.3224
   99SAPS  H18S 9951   2.197   1.362   8.101 -0.9418 -1.5348 -2.2860
   99SAPS  C219 9952   2.390   1.463   8.080  0.4856  0.2836 -0.4351
   99SAPS  H19R 9953   2.366   1.556   8.136  1.8659 -0.1170  0.9116
   99SAPS  H19S 9954   2.449   1.483   7.988  0.3692 -0.4348 -0.6757
   99SAPS  C220 9955   2.470   1.376   8.183 -0.0273  0.0481 -0.1602
   99SAPS  H20R 9956   2.476   1.272   8.147 -1.1340  0.2031 -0.8278
   99SAPS  H20S 9957   2.427   1.388   8.285 -2.2094  4.3194 -1.3462
   99SAPS  H20T 9958   2.572   1.419   8.188  0.2115 -0.0812 -2.6887
   99SAPS   C33 9959   2.259   1.616   6.630  0.5357 -1.0184  0.0372
   99SAPS   H3X 9960   2.190   1.641   6.713  0.6090 -0.8730  0.0549
   99SAPS   H3Y 9961   2.260   1.681   6.540 -0.7162 -1.4400 -0.3084
   99SAPS   C34 9962   2.400   1.633   6.693 -0.3305 -0.4190 -0.0967
   99SAPS   H4X 9963   2.476   1.596   6.621  0.6431  0.6653  0.3372
   99SAPS   H4Y 9964   2.404   1.569   6.784  0.2770 -0.5985 -0.2403
   99SAPS   C35 9965   2.435   1.776   6.716 -0.0240  0.2795  0.3697
   99SAPS   H5X 9966   2.366   1.815   6.794 -0.2332 -0.3219  0.4966
   99SAPS   H5Y 9967   2.408   1.832   6.623 -1.6046  1.2765  1.3748
   99SAPS   C36 9968   2.582   1.805   6.736  0.5134 -0.5292  0.1356
   99SAPS   H6X 9969   2.634   1.752   6.654 -2.5661 -1.0735 -1.5999
   99SAPS   H6Y 9970   2.616   1.778   6.838  0.4633 -2.9810 -0.4484
   99SAPS   C37 9971   2.620   1.959   6.715  0.0149 -0.1916  0.2331
   99SAPS   H7X 9972   2.564   1.993   6.626 -1.2300 -0.8285  0.7386
   99SAPS   H7Y 9973   2.729   1.973   6.701  0.1424 -0.5868  0.7811
   99SAPS   C38 9974   2.574   2.059   6.826 -0.3721 -0.8076 -0.1215
   99SAPS   H8X 9975   2.468   2.032   6.847 -0.0818 -0.3942  2.2177
   99SAPS   H8Y 9976   2.586   2.165   6.796  1.4335 -0.5978  1.1729
   99SAPS   C39 9977   2.648   2.043   6.956 -0.3568  0.9859 -0.1667
   99SAPS   H9X 9978   2.746   2.094   6.949 -0.8945  2.2230  0.9926
   99SAPS   H9Y 9979   2.662   1.933   6.965 -3.1190  0.5699 -0.0228
   99SAPS  C310 9980   2.568   2.088   7.078  0.2281 -0.0842 -0.5131
   99SAPS  H10X 9981   2.464   2.048   7.082 -1.5864  4.0798 -0.8327
   99SAPS  H10Y 9982   2.552   2.198   7.076 -2.2468 -0.3888 -1.3770
   99SAPS  C311 9983   2.654   2.057   7.201  0.4442  0.0380  0.3135
   99SAPS  H11X 9984   2.757   2.096   7.191  1.6679 -2.6705  1.4294
   99SAPS  H11Y 9985   2.668   1.947   7.212 -3.5081 -0.8363 -1.4684
   99SAPS  C312 9986   2.585   2.098   7.335  0.8355  0.3186  1.2333
   99SAPS  H12X 9987   2.494   2.035   7.341  0.6178  0.4266 -0.4547
   99SAPS  H12Y 9988   2.552   2.203   7.322  1.7243  0.4487 -0.2406
   99SAPS  C313 9989   2.673   2.072   7.453  0.1872  0.7754 -0.0137
   99SAPS  H13X 9990   2.778   2.105   7.435  0.3512  0.4809  0.4015
   99SAPS  H13Y 9991   2.675   1.962   7.470  0.1723  0.6611 -0.7168
   99SAPS  C314 9992   2.625   2.137   7.582  0.1903  0.3190  0.2825
   99SAPS  H14X 9993   2.531   2.086   7.611 -0.0906  0.2398 -0.7152
   99SAPS  H14Y 9994   2.599   2.244   7.565 -0.5063  0.3233  1.2677
   99SAPS  C315 9995   2.723   2.128   7.690  0.2651  0.6262 -0.5589
   99SAPS  H15X 9996   2.824   2.164   7.660  2.1767 -0.9990  3.1754
   99SAPS  H15Y 9997   2.732   2.020   7.717  2.7996  0.4271 -1.9018
   99SAPS  C316 9998   2.683   2.209   7.821  0.1153  0.6920  0.6850
   99SAPS  H16X 9999   2.607   2.144   7.870  1.0994 -0.5805  0.5787
   99SAPS  H16Y10000   2.633   2.306   7.798 -2.8364 -1.3156 -2.3534
   99SAPS  C31710001   2.797   2.215   7.927  0.3352  0.0625  0.6485
   99SAPS  H17X10002   2.877   2.282   7.888  0.7943  0.1873  1.7773
   99SAPS  H17Y10003   2.829   2.110   7.945  0.8968 -0.0123 -0.6443
   99SAPS  C31810004   2.767   2.295   8.053  0.2723  0.4450  0.4529
   99SAPS  H18X10005   2.681   2.256   8.112 -1.4488  1.6249 -1.1733
   99SAPS  H18Y10006   2.751   2.402   8.031  1.2205  0.5848  0.3971
   99SAPS  H18Z10007   2.860   2.290   8.114 -0.1092  1.9668  1.1981
  100SAPS     N10008   6.580   2.561   5.940 -0.0309  0.2651  0.2745
  100SAPS   HN110009   6.655   2.555   6.012  0.3291 -1.7068 -0.2052
  100SAPS   HN210010   6.619   2.551   5.844 -1.0169  0.1780 -0.1321
  100SAPS   HN310011   6.529   2.650   5.957  1.2979  0.9250  0.9909
  100SAPS   C1210012   6.483   2.452   5.949  0.1784 -0.8341 -0.5763
  100SAPS  H12A10013   6.430   2.458   6.043 -1.0439  0.3616 -1.3008
  100SAPS   C1310014   6.363   2.460   5.840 -1.4753  0.2682  0.2333
  100SAPS  O13A10015   6.360   2.553   5.757  0.3835  0.4970  0.2388
  100SAPS  O13B10016   6.281   2.367   5.836 -0.3965 -0.5043 -0.6601
  100SAPS   C1110017   6.551   2.312   5.942 -0.0578  0.3872  0.5039
  100SAPS  H11A10018   6.565   2.279   5.837  1.8165  0.7690  0.6047
  100SAPS  H11B10019   6.486   2.237   5.993  0.0428  0.5068  0.8148
  100SAPS     P10020   6.727   2.193   6.095  0.5748  0.1546  0.2687
  100SAPS   O1310021   6.701   2.067   6.024 -0.6724  0.4217 -0.8607
  100SAPS   O1410022   6.865   2.224   6.139 -0.0217 -0.3108  0.3837
  100SAPS   O1210023   6.680   2.321   6.008  0.5025 -0.6870  0.2022
  100SAPS   O1110024   6.642   2.190   6.232 -0.4619 -0.8069 -0.0008
  100SAPS    C110025   6.586   2.316   6.286 -0.4396 -0.3659  0.4266
  100SAPS    HA10026   6.647   2.400   6.246 -2.9960  1.8192  0.7971
  100SAPS    HB10027   6.487   2.335   6.239  0.1154 -0.4315 -0.8139
  100SAPS    C210028   6.567   2.309   6.441  0.6089  0.1170 -0.1054
  100SAPS    HS10029   6.500   2.393   6.467 -0.7785 -1.5541  2.0399
  100SAPS   O2110030   6.700   2.324   6.511  0.0543  0.6862  0.0705
  100SAPS   C2110031   6.713   2.438   6.571  0.4739  0.6585 -0.1170
  100SAPS   O2210032   6.632   2.528   6.571  0.1869 -0.3896 -0.3539
  100SAPS   C2210033   6.850   2.432   6.650 -0.2481 -0.3133 -0.1000
  100SAPS   H2R10034   6.910   2.348   6.610  1.2083  1.0871 -0.9758
  100SAPS   H2S10035   6.907   2.523   6.620  0.8091 -1.0005 -0.1956
  100SAPS    C310036   6.479   2.181   6.478  0.6028  0.1690  0.4952
  100SAPS    HX10037   6.516   2.091   6.425 -1.5664 -1.1229  1.0428
  100SAPS    HY10038   6.376   2.200   6.443  0.5441 -0.4441  0.3219
  100SAPS   O3110039   6.488   2.165   6.617 -0.1078 -0.1367  0.6336
  100SAPS   C3110040   6.409   2.237   6.694  0.0184  0.5512 -0.3332
  100SAPS   O3210041   6.337   2.331   6.659 -0.0797  0.1597 -0.2783
  100SAPS   C3210042   6.426   2.203   6.843  0.2556 -0.0152 -0.4352
  100SAPS   H2X10043   6.516   2.140   6.858 -0.7202 -1.4179 -0.2361
  100SAPS   H2Y10044   6.339   2.138   6.867 -0.5539  0.0282 -2.8860
  100SAPS   C2310045   6.832   2.451   6.804  0.4297 -0.5093  0.2384
  100SAPS   H3R10046   6.736   2.500   6.832 -0.7060 -2.7356  0.4615
  100SAPS   H3S10047   6.916   2.509   6.846 -0.4686  0.4115  0.8306
  100SAPS   C2410048   6.830   2.320   6.884  0.1371  0.5384 -0.0430
  100SAPS   H4R10049   6.753   2.252   6.843 -0.5094  0.5585  1.1142
  100SAPS   H4S10050   6.799   2.339   6.989 -2.3210  2.3943 -1.0125
  100SAPS   C2510051   6.967   2.247   6.882 -0.1774 -0.5321  0.4697
  100SAPS   H5R10052   7.006   2.243   6.779 -1.5775 -1.0366 -0.0802
  100SAPS   C2610053   7.042   2.212   6.984  0.3128  0.0424  0.6756
  100SAPS   H6R10054   7.134   2.157   6.959 -0.6722 -2.4833  2.1646
  100SAPS   C2710055   7.005   2.208   7.132 -0.4140  0.4215 -0.3860
  100SAPS   H7R10056   7.039   2.111   7.175 -0.5339  0.9433  0.9443
  100SAPS   H7S10057   6.897   2.228   7.151 -0.7840 -2.4181  1.1338
  100SAPS   C2810058   7.071   2.315   7.216  0.2246 -0.3099 -0.1595
  100SAPS   H8R10059   7.108   2.403   7.163 -0.9602  0.3513  0.0821
  100SAPS   C2910060   7.080   2.319   7.348  0.1536  1.2637 -0.4797
  100SAPS   H9R10061   7.139   2.400   7.393  0.6902  1.7257 -1.9552
  100SAPS  C21010062   7.017   2.216   7.435  0.1601  0.9808 -0.4232
  100SAPS  H10R10063   7.060   2.116   7.412  1.2527  1.6315 -1.2873
  100SAPS  H10S10064   6.911   2.191   7.412 -0.0633  0.6925  0.8375
  100SAPS  C21110065   7.027   2.251   7.587  0.3461  0.0118  0.2184
  100SAPS  H11R10066   6.960   2.335   7.610  1.9072  1.3761 -0.0146
  100SAPS  C21210067   7.107   2.209   7.685 -1.0351  1.1191  0.0696
  100SAPS  H12R10068   7.088   2.241   7.789 -0.6397 -0.2307  0.5866
  100SAPS  C21310069   7.205   2.093   7.664  0.4759  0.4096  0.2113
  100SAPS  H13R10070   7.304   2.127   7.700  0.3146  0.2356  0.8443
  100SAPS  H13S10071   7.227   2.079   7.556  0.2707  1.0699  0.0814
  100SAPS  C21410072   7.160   1.962   7.725  0.3223 -0.5185  0.3918
  100SAPS  H14R10073   7.106   1.897   7.656  1.7652  0.0395 -1.3518
  100SAPS  C21510074   7.182   1.919   7.854  0.1081  0.0717  0.8929
  100SAPS  H15R10075   7.141   1.819   7.874 -0.7257 -0.2750 -1.9983
  100SAPS  C21610076   7.248   1.990   7.964 -0.1181  0.1021 -0.1914
  100SAPS  H16R10077   7.297   2.084   7.931  0.0366  0.0590 -0.0856
  100SAPS  H16S10078   7.328   1.930   8.011  0.0021 -0.2662 -0.8628
  100SAPS  C21710079   7.156   2.024   8.078  0.2113 -0.1204  0.6509
  100SAPS  H17R10080   7.118   1.939   8.139 -0.5524  1.3630  2.3474
  100SAPS  H17S10081   7.075   2.085   8.033  0.7001 -0.7994 -1.2418
  100SAPS  C21810082   7.232   2.106   8.186 -0.4120  0.0455 -1.1162
  100SAPS  H18R10083   7.281   2.192   8.136  2.4433  0.3273  1.8856
  100SAPS  H18S10084   7.322   2.050   8.218  0.7864  1.4244 -1.9287
  100SAPS  C21910085   7.162   2.161   8.312 -0.1098 -0.2148  0.1286
  100SAPS  H19R10086   7.077   2.100   8.350 -2.2824  3.1485  1.0857
  100SAPS  H19S10087   7.111   2.256   8.285 -0.5160 -0.1717  1.0079
  100SAPS  C22010088   7.254   2.189   8.428  0.0636  0.1796 -0.3067
  100SAPS  H20R10089   7.204   2.236   8.516 -0.0640  1.6149 -1.1185
  100SAPS  H20S10090   7.336   2.261   8.405  0.4487  0.4277  1.6121
  100SAPS  H20T10091   7.294   2.093   8.467  0.0196  0.3597  0.1918
  100SAPS   C3310092   6.410   2.317   6.944 -0.7097 -0.1335 -0.3105
  100SAPS   H3X10093   6.317   2.374   6.922 -1.0667 -1.0326 -1.1930
  100SAPS   H3Y10094   6.498   2.386   6.936  1.2660 -2.6686 -2.2805
  100SAPS   C3410095   6.411   2.261   7.094 -0.4971 -0.2746 -0.0342
  100SAPS   H4X10096   6.348   2.169   7.095  1.6029 -1.7945  1.4992
  100SAPS   H4Y10097   6.367   2.338   7.161  1.8444  1.1082  0.0265
  100SAPS   C3510098   6.548   2.238   7.157  0.5963  0.0270  0.0299
  100SAPS   H5X10099   6.609   2.324   7.121  1.0785 -0.1813  0.3398
  100SAPS   H5Y10100   6.587   2.146   7.107  1.0343  0.6229 -0.7415
  100SAPS   C3610101   6.553   2.215   7.312 -0.1021  0.2363  0.1205
  100SAPS   H6X10102   6.659   2.216   7.346  0.2635  1.5452 -0.9429
  100SAPS   H6Y10103   6.518   2.113   7.338  0.6816 -0.3508 -1.0270
  100SAPS   C3710104   6.466   2.308   7.404 -0.8769 -0.4820 -0.5162
  100SAPS   H7X10105   6.357   2.290   7.398 -0.9246  0.2228 -3.4630
  100SAPS   H7Y10106   6.492   2.413   7.380 -2.2196 -0.4825 -2.1275
  100SAPS   C3810107   6.506   2.294   7.556 -0.3763 -0.5488  0.4583
  100SAPS   H8X10108   6.449   2.373   7.608  0.4732  0.9263 -0.7767
  100SAPS   H8Y10109   6.616   2.309   7.567 -0.1575  0.6671 -2.3771
  100SAPS   C3910110   6.455   2.170   7.627  0.1765 -0.8333 -0.4324
  100SAPS   H9X10111   6.475   2.083   7.562 -0.3102  0.5727 -2.5960
  100SAPS   H9Y10112   6.344   2.170   7.636  0.2046 -0.0753  0.0457
  100SAPS  C31010113   6.523   2.160   7.767  0.3371  0.1003 -0.4485
  100SAPS  H10X10114   6.633   2.144   7.764  0.1342 -1.9592  1.0215
  100SAPS  H10Y10115   6.490   2.064   7.812  1.6753 -0.7294 -1.1809
  100SAPS  C31110116   6.485   2.274   7.869  0.5135 -0.3196  0.9576
  100SAPS  H11X10117   6.380   2.288   7.901  0.4887 -1.3881  1.3838
  100SAPS  H11Y10118   6.520   2.376   7.841 -0.8240 -0.2893 -0.7436
  100SAPS  C31210119   6.547   2.253   8.008  0.0496  0.2059  0.3592
  100SAPS  H12X10120   6.538   2.336   8.081  1.4209 -2.9563  4.4748
  100SAPS  H12Y10121   6.653   2.235   7.980  0.8749  1.7492  2.2942
  100SAPS  C31310122   6.498   2.127   8.080  0.2247 -0.2362 -0.3311
  100SAPS  H13X10123   6.531   2.033   8.031  0.1919 -0.0180 -0.7792
  100SAPS  H13Y10124   6.388   2.110   8.077  0.3235 -1.1057  0.6271
  100SAPS  C31410125   6.546   2.121   8.223  0.3611 -0.0580  0.3965
  100SAPS  H14X10126   6.513   2.020   8.255 -2.1004 -0.3105 -2.4252
  100SAPS  H14Y10127   6.500   2.206   8.278 -2.2130 -0.3200 -1.1650
  100SAPS  C31510128   6.696   2.126   8.245 -0.1075  0.3564 -0.2991
  100SAPS  H15X10129   6.739   2.206   8.181 -0.8214 -1.5737 -3.3932
  100SAPS  H15Y10130   6.742   2.032   8.206  1.3164 -0.1195  2.3097
  100SAPS  C31610131   6.750   2.150   8.383  0.1048  0.3551  0.1825
  100SAPS  H16X10132   6.846   2.102   8.412 -0.0721  1.6473  3.2843
  100SAPS  H16Y10133   6.688   2.103   8.462  3.2351 -3.0841  0.8680
  100SAPS  C31710134   6.780   2.298   8.395  0.3567 -0.2197 -0.4797
  100SAPS  H17X10135   6.683   2.352   8.407 -0.0428 -1.4026  2.2115
  100SAPS  H17Y10136   6.830   2.336   8.303  1.0861 -2.4921 -1.0816
  100SAPS  C31810137   6.878   2.324   8.512 -0.3932 -0.4568  0.5697
  100SAPS  H18X10138   6.895   2.434   8.512 -0.4940 -0.4390  0.9499
  100SAPS  H18Y10139   6.973   2.273   8.487  0.3520  1.2103 -0.1109
  100SAPS  H18Z10140   6.841   2.283   8.608 -4.1572  0.1763 -0.4452
  101OSM      N10141   5.900   2.329  10.684  0.1651 -0.7843 -0.1792
  101OSM    C1510142   5.823   2.405  10.794 -0.6188 -0.5336 -0.1628
  101OSM   H15A10143   5.719   2.380  10.782 -0.6726 -1.2126  1.4507
  101OSM   H15B10144   5.835   2.511  10.778  0.5148 -0.3849  1.4188
  101OSM   H15C10145   5.867   2.377  10.888  2.0557  2.0049 -0.5096
  101OSM    C1410146   5.912   2.182  10.712 -0.3819  0.4102 -0.1537
  101OSM   H14A10147   5.964   2.135  10.630 -1.6819  0.9521 -1.3152
  101OSM   H14B10148   5.822   2.124  10.721 -1.0937  1.2222 -1.7554
  101OSM   H14C10149   5.977   2.170  10.798  0.0230  0.0124 -0.5085
  101OSM    C1310150   5.837   2.364  10.551  0.0108 -0.1438 -0.4460
  101OSM   H13A10151   5.888   2.337  10.460 -1.8449 -1.6876 -1.1108
  101OSM   H13B10152   5.817   2.470  10.560 -0.5108 -0.3006  0.4148
  101OSM   H13C10153   5.736   2.325  10.544  0.8615 -2.4322 -0.6985
  101OSM    C1210154   6.041   2.391  10.686 -0.3178  0.2695  0.3657
  101OSM   H12A10155   6.078   2.401  10.787  1.7597 -1.3806 -0.1550
  101OSM   H12B10156   6.042   2.497  10.663  0.4322  0.7204  2.3112
  101OSM    C1110157   6.145   2.318  10.599 -0.4300  0.3770  0.1720
  101OSM   H11A10158   6.116   2.307  10.493 -0.3558  0.9646  0.0844
  101OSM   H11B10159   6.169   2.215  10.632  2.4906  0.2901 -1.8351
  101OSM      P10160   6.291   2.529  10.522  0.1217  0.0705  0.3832
  101OSM    O1310161   6.329   2.625  10.629 -0.4966 -0.0628 -0.2296
  101OSM    O1410162   6.389   2.526  10.416 -0.3236  0.3055  0.3993
  101OSM    O1110163   6.153   2.574  10.467 -0.0462 -0.0482  0.8551
  101OSM    O1210164   6.269   2.385  10.597 -0.0550  0.5210 -0.0859
  101OSM    C1S10165   6.108   2.708  10.434  0.0453  0.2557 -0.2149
  101OSM    H1S10166   6.156   2.781  10.502  1.1706 -2.4121  2.0671
  101OSM    H1T10167   5.998   2.716  10.446 -0.1373 -2.2468  0.3548
  101OSM     NF10168   6.141   2.886  10.259 -0.0189  0.3057 -0.5051
  101OSM    HNF10169   6.057   2.932  10.229  0.0277  1.4649  1.0051
  101OSM    C2S10170   6.130   2.739  10.285  0.5244 -0.0420 -0.0367
  101OSM    H2S10171   6.230   2.707  10.248  1.6820  0.1723  2.7296
  101OSM    C3S10172   6.028   2.660  10.198  0.3457  0.3105 -0.1793
  101OSM    H3S10173   5.921   2.678  10.221  0.1907 -0.0513 -0.5892
  101OSM     O310174   6.043   2.521  10.217  0.3661  0.3797 -0.2454
  101OSM    HO310175   6.114   2.524  10.282  0.0839 -1.1237  0.1826
  101OSM    C4S10176   6.045   2.694  10.052 -0.7544  0.8045  0.4335
  101OSM    H4S10177   6.139   2.650  10.015 -1.0007  0.8474 -0.2676
  101OSM    C5S10178   5.971   2.770   9.969 -0.2056 -0.2125 -0.2838
  101OSM    H5S10179   5.886   2.825  10.011  0.1807 -0.2933  0.6227
  101OSM    C6S10180   5.999   2.798   9.822 -0.0031  0.2258 -0.1572
  101OSM    H6S10181   6.015   2.908   9.808  1.8333  0.0258  0.0487
  101OSM    H6T10182   5.910   2.784   9.758  0.7684 -0.1398 -1.1818
  101OSM    C7S10183   6.121   2.730   9.762  0.4990  0.4469  0.3722
  101OSM    H7S10184   6.097   2.625   9.735 -0.5299  0.2529  1.9391
  101OSM    H7T10185   6.211   2.727   9.826  0.5069  0.3122  0.3564
  101OSM    C8S10186   6.166   2.795   9.628 -0.2416  1.0271 -0.2802
  101OSM    H8S10187   6.254   2.735   9.595 -0.6039 -0.1530  0.8285
  101OSM    H8T10188   6.200   2.898   9.651  0.0554  0.8428  0.1115
  101OSM    C9S10189   6.069   2.798   9.512 -0.1772 -0.1396  0.5663
  101OSM    H9S10190   6.129   2.804   9.418 -1.1068 -1.1964 -0.1299
  101OSM    H9T10191   6.012   2.892   9.523  0.0872  0.1822 -0.6427
  101OSM   C10S10192   5.987   2.670   9.486  0.8135 -0.4920 -0.0125
  101OSM   H10S10193   5.912   2.650   9.565  1.0916 -0.3605  0.2864
  101OSM   H10T10194   6.046   2.576   9.484  2.1873  0.3484 -1.2393
  101OSM   C11S10195   5.910   2.691   9.351  0.4035 -0.1179 -0.5786
  101OSM   H11S10196   5.866   2.793   9.352 -1.3817 -0.8409 -1.2009
  101OSM   H11T10197   5.819   2.628   9.356  0.4590 -0.1052  1.7393
  101OSM   C12S10198   5.993   2.664   9.222 -0.2581  0.3173  0.1637
  101OSM   H12S10199   6.045   2.566   9.225 -0.2800  0.3171  0.5772
  101OSM   H12T10200   6.072   2.742   9.223 -0.4067  0.4731 -0.2657
  101OSM   C13S10201   5.919   2.698   9.097  0.3392 -0.4555 -0.7862
  101OSM   H13S10202   5.899   2.807   9.091 -0.7244 -0.6628 -1.2728
  101OSM   H13T10203   5.820   2.649   9.105  1.6158 -3.0116  0.4377
  101OSM   C14S10204   5.979   2.646   8.970 -0.4502 -0.0879 -0.6272
  101OSM   H14S10205   5.984   2.536   8.957  1.9622 -0.2723  1.1786
  101OSM   H14T10206   6.086   2.674   8.977 -0.4195 -0.3455 -0.0278
  101OSM   C15S10207   5.925   2.712   8.846 -0.0960 -0.3594 -0.4267
  101OSM   H15S10208   6.001   2.743   8.771 -0.2461  2.3604  0.4059
  101OSM   H15T10209   5.884   2.809   8.883  0.8129 -0.1210 -0.0062
  101OSM   C16S10210   5.814   2.631   8.766 -0.4426  0.4653 -0.6698
  101OSM   H16S10211   5.751   2.703   8.709  0.6827  1.4916 -0.6756
  101OSM   H16T10212   5.751   2.596   8.850 -1.9673  3.7436 -0.3114
  101OSM   C17S10213   5.867   2.530   8.662  0.0656 -0.5024 -0.0746
  101OSM   H17S10214   5.941   2.472   8.721  0.3678  1.2331  1.3380
  101OSM   H17T10215   5.924   2.591   8.588  1.5072  0.8221  2.0256
  101OSM   C18S10216   5.772   2.421   8.597 -0.0756  0.2939 -0.3870
  101OSM   H18S10217   5.822   2.361   8.518 -0.7621  0.2285 -0.7766
  101OSM   H18T10218   5.690   2.472   8.542  0.0602  0.1722 -0.7009
  101OSM   H18U10219   5.715   2.363   8.673 -2.3282  2.6407 -0.1581
  101OSM    C1F10220   6.242   2.966  10.293  0.2436  0.2581  0.1171
  101OSM     OF10221   6.334   2.933  10.363 -0.0349 -1.0244  0.3009
  101OSM    C2F10222   6.240   3.106  10.228 -0.1863  0.6820 -0.3765
  101OSM    H2F10223   6.270   3.177  10.308 -2.2548  0.9409  0.2023
  101OSM    H2G10224   6.136   3.123  10.194 -0.7095 -0.1823  0.7332
  101OSM    C3F10225   6.326   3.116  10.097 -0.5636  0.2973  0.0347
  101OSM    H3F10226   6.280   3.045  10.025 -1.7950  1.2240 -0.1378
  101OSM    H3G10227   6.425   3.086  10.137 -0.7170  1.5825  1.5008
  101OSM    C4F10228   6.337   3.261  10.045 -0.2159 -0.0225 -0.6526
  101OSM    H4F10229   6.408   3.316  10.110  1.1970  0.8924 -2.8423
  101OSM    H4G10230   6.232   3.296  10.052 -0.8057 -1.3343 -2.2460
  101OSM    C5F10231   6.381   3.280   9.899 -0.2207  0.0199  0.0025
  101OSM    H5F10232   6.482   3.243   9.871 -0.2202  0.1835 -0.2160
  101OSM    H5G10233   6.378   3.389   9.880 -2.9338 -0.2461 -1.7558
  101OSM    C6F10234   6.273   3.220   9.799  0.3393  0.4915 -0.2757
  101OSM    H6F10235   6.170   3.261   9.809  0.0711 -0.2242 -0.0545
  101OSM    H6G10236   6.270   3.111   9.821 -0.1727  0.6492  0.4439
  101OSM    C7F10237   6.317   3.243   9.655  0.5212 -0.7668 -0.2128
  101OSM    H7F10238   6.287   3.151   9.602  0.3078 -1.4413  1.0299
  101OSM    H7G10239   6.427   3.251   9.642  0.7333  0.4036  1.8658
  101OSM    C8F10240   6.232   3.348   9.585  0.2643 -0.6346 -0.1077
  101OSM    H8F10241   6.128   3.347   9.624  0.5440 -1.3621  0.6544
  101OSM    H8G10242   6.227   3.321   9.477  1.1670 -3.5455  0.4812
  101OSM    C9F10243   6.288   3.485   9.599 -0.2907  0.2769 -0.3166
  101OSM    H9F10244   6.260   3.529   9.696  0.6227  1.2432 -0.4756
  101OSM   C10F10245   6.374   3.546   9.512 -0.2505  0.0786 -0.1635
  101OSM   H10F10246   6.398   3.652   9.528  0.4870 -0.2623  1.1334
  101OSM   C11F10247   6.425   3.489   9.379  0.5735  0.8613  0.5206
  101OSM   H11F10248   6.439   3.379   9.378 -2.4536  0.3023 -3.1460
  101OSM   H11G10249   6.523   3.532   9.349 -0.5671  2.4185 -1.1216
  101OSM   C12F10250   6.329   3.505   9.258  0.0213 -0.2501 -0.6602
  101OSM   H12F10251   6.319   3.615   9.248  0.7595 -0.3049 -2.2739
  101OSM   H12G10252   6.228   3.465   9.281  0.2907 -1.1984 -1.0749
  101OSM   C13F10253   6.383   3.444   9.129 -1.3968  0.1073 -0.1445
  101OSM   H13F10254   6.398   3.335   9.142  2.1365  0.2903 -1.6268
  101OSM   H13G10255   6.480   3.492   9.107 -1.0204  0.3674  1.8687
  101OSM   C14F10256   6.286   3.465   9.011  0.4023  0.2645 -0.0526
  101OSM   H14F10257   6.270   3.573   8.992  2.4750  0.9984  1.9569
  101OSM   H14G10258   6.189   3.420   9.042  1.8769 -1.5017  2.4127
  101OSM   C15F10259   6.347   3.410   8.884  0.2520  0.5540 -0.5192
  101OSM   H15F10260   6.271   3.420   8.803  1.1915  2.4805 -1.2175
  101OSM   H15G10261   6.369   3.302   8.896 -1.0100  0.0896 -1.9753
  101OSM   C16F10262   6.458   3.502   8.834  0.1988  0.8677  0.3318
  101OSM   H16F10263   6.548   3.482   8.896  1.1842 -1.1501 -1.6023
  101OSM   H16G10264   6.426   3.608   8.824  1.2120  1.2392  0.8201
  101OSM   C17F10265   6.495   3.462   8.692 -0.3658 -0.0985  0.5627
  101OSM   H17F10266   6.413   3.463   8.617 -1.5330  1.1061  1.7801
  101OSM   H17G10267   6.527   3.357   8.704 -0.3211 -0.1664 -0.1194
  101OSM   C18F10268   6.600   3.551   8.636 -0.7100 -0.9173  0.0513
  101OSM   H18F10269   6.680   3.569   8.711 -1.4991  1.2554  0.4478
  101OSM   H18G10270   6.555   3.649   8.606  0.8112 -0.4710 -0.8654
  101OSM   H18H10271   6.655   3.504   8.552 -1.3800 -1.6174 -0.0113
  102OSM      N10272   6.362   1.235  10.767  0.4330 -0.4888  0.3794
  102OSM    C1510273   6.313   1.362  10.833 -0.5873  1.0278  0.3514
  102OSM   H15A10274   6.282   1.346  10.935  0.0656 -0.1000  0.3953
  102OSM   H15B10275   6.246   1.425  10.776 -2.0431  0.2158  1.1172
  102OSM   H15C10276   6.399   1.427  10.845  0.0606  0.8293 -2.5649
  102OSM    C1410277   6.448   1.276  10.646 -0.5182  0.4960 -0.3728
  102OSM   H14A10278   6.489   1.195  10.588  0.3875  1.4279 -1.0682
  102OSM   H14B10279   6.520   1.343  10.689 -0.0204 -0.7996  0.9184
  102OSM   H14C10280   6.395   1.330  10.569  1.1735  0.9180 -1.2844
  102OSM    C1310281   6.448   1.146  10.856 -1.1150  0.0066 -0.3316
  102OSM   H13A10282   6.542   1.198  10.872  1.4882 -3.8482 -1.7594
  102OSM   H13B10283   6.473   1.052  10.809  1.0172 -0.0941  0.8838
  102OSM   H13C10284   6.397   1.128  10.949  0.4475  1.1034  0.7982
  102OSM    C1210285   6.246   1.149  10.718  0.6342 -0.2050 -0.2740
  102OSM   H12A10286   6.188   1.123  10.805 -0.5078 -0.2475 -1.0200
  102OSM   H12B10287   6.277   1.056  10.672  0.2419  0.1657 -1.3306
  102OSM    C1110288   6.155   1.213  10.610 -0.3817 -0.3443 -0.5357
  102OSM   H11A10289   6.080   1.138  10.577 -1.0493  0.4102 -0.7694
  102OSM   H11B10290   6.217   1.241  10.523 -0.8994 -0.8867 -1.0926
  102OSM      P10291   5.956   1.337  10.728  0.0575 -0.2166  0.7106
  102OSM    O1310292   5.941   1.215  10.816  0.3948 -0.1916 -0.5777
  102OSM    O1410293   5.949   1.463  10.808  0.0904  0.3750  0.6039
  102OSM    O1110294   5.845   1.350  10.614 -0.2421  0.5897  0.0855
  102OSM    O1210295   6.090   1.338  10.651 -0.7071  0.2480 -1.1035
  102OSM    C1S10296   5.870   1.425  10.495  0.3926  0.2841 -0.3013
  102OSM    H1S10297   5.932   1.513  10.522  0.0839 -0.1607  2.1665
  102OSM    H1T10298   5.767   1.460  10.472 -0.4798 -1.7970  0.1789
  102OSM     NF10299   5.947   1.411  10.251 -0.2454 -0.2153 -0.3157
  102OSM    HNF10300   5.888   1.401  10.172 -1.6376  2.4685  0.2577
  102OSM    C2S10301   5.913   1.339  10.373  0.3409  0.2988 -0.8096
  102OSM    H2S10302   6.008   1.285  10.395  1.3341  1.7388 -1.4026
  102OSM    C3S10303   5.806   1.230  10.339  0.5275 -0.6784  0.2691
  102OSM    H3S10304   5.702   1.271  10.337  0.1768 -1.5408  0.2601
  102OSM     O310305   5.796   1.131  10.438 -0.1465 -0.3796 -0.3913
  102OSM    HO310306   5.849   1.164  10.512 -0.1078 -0.3110 -0.4488
  102OSM    C4S10307   5.848   1.149  10.220 -0.4376  0.7712  0.2980
  102OSM    H4S10308   5.915   1.064  10.237 -1.0246  0.8879  4.2382
  102OSM    C5S10309   5.816   1.161  10.092 -0.3070 -0.1924 -0.0367
  102OSM    H5S10310   5.726   1.217  10.062 -0.4450 -1.0296 -1.2501
  102OSM    C6S10311   5.870   1.075   9.978 -0.3495  0.0525  0.9127
  102OSM    H6S10312   5.786   1.014   9.940  0.0858  0.7727 -1.3469
  102OSM    H6T10313   5.963   1.019   9.999 -1.0461 -1.1510  0.8358
  102OSM    C7S10314   5.917   1.168   9.860  0.0994 -0.6488 -0.2425
  102OSM    H7S10315   5.999   1.231   9.900 -0.5905 -0.0473  0.2509
  102OSM    H7T10316   5.830   1.224   9.819 -0.6706 -2.4781 -1.2418
  102OSM    C8S10317   5.983   1.084   9.747  0.6015 -1.0671 -0.0163
  102OSM    H8S10318   5.902   1.013   9.718  2.0383 -1.9007 -2.2148
  102OSM    H8T10319   6.067   1.021   9.784  0.2824 -1.4941 -0.0110
  102OSM    C9S10320   5.991   1.182   9.624 -0.1212 -0.1554 -0.8137
  102OSM    H9S10321   6.053   1.270   9.651 -2.9763  0.5824  5.2319
  102OSM    H9T10322   5.892   1.232   9.618 -0.4904 -0.8388 -0.5464
  102OSM   C10S10323   6.024   1.104   9.499 -0.4475  0.3972 -0.7728
  102OSM   H10S10324   5.982   1.001   9.507  2.3789 -0.7436  1.0764
  102OSM   H10T10325   6.134   1.093   9.509 -0.4919 -0.1909 -0.9012
  102OSM   C11S10326   5.978   1.177   9.370 -0.4991  0.4851  0.2310
  102OSM   H11S10327   6.034   1.267   9.338 -1.2279  0.5319 -0.9635
  102OSM   H11T10328   5.877   1.216   9.394 -1.3652 -1.4246 -0.1265
  102OSM   C12S10329   5.967   1.075   9.256 -0.3571 -0.1316  0.2016
  102OSM   H12S10330   5.914   0.984   9.292 -0.9415  0.5734  1.1765
  102OSM   H12T10331   6.074   1.044   9.250  0.8083  3.2299  1.3576
  102OSM   C13S10332   5.903   1.131   9.134 -1.0082  0.3511  0.5668
  102OSM   H13S10333   5.950   1.230   9.112  0.3574 -0.3063  0.4265
  102OSM   H13T10334   5.796   1.154   9.154 -1.4135  1.0284 -2.0290
  102OSM   C14S10335   5.923   1.053   9.008 -0.1918  0.4502  0.6091
  102OSM   H14S10336   5.840   1.070   8.936 -0.9251  0.5847  1.4772
  102OSM   H14T10337   5.909   0.949   9.047 -0.5065 -0.3130 -1.4039
  102OSM   C15S10338   6.064   1.072   8.954 -0.6122  0.2137  0.2593
  102OSM   H15S10339   6.133   1.029   9.030 -0.2366 -0.8901 -0.6729
  102OSM   H15T10340   6.092   1.178   8.937  0.8549 -0.3908 -1.4068
  102OSM   C16S10341   6.069   0.990   8.816  0.1209 -0.3872 -0.0992
  102OSM   H16S10342   5.991   1.045   8.759 -1.9809 -1.9158  1.1493
  102OSM   H16T10343   6.033   0.886   8.825 -1.0612  0.0948  1.0799
  102OSM   C17S10344   6.204   1.004   8.747  0.0366 -0.0044  0.0450
  102OSM   H17S10345   6.294   0.978   8.806 -0.6222 -0.2098  0.9818
  102OSM   H17T10346   6.220   1.112   8.726 -1.0108  0.5482  1.8541
  102OSM   C18S10347   6.223   0.928   8.615  0.0869  0.2698  0.1160
  102OSM   H18S10348   6.202   0.823   8.644 -1.5431  1.0775  2.1096
  102OSM   H18T10349   6.328   0.924   8.581 -0.7347 -1.0254 -2.5643
  102OSM   H18U10350   6.160   0.956   8.528 -1.5350 -2.8671  0.1368
  102OSM    C1F10351   6.046   1.497  10.240 -0.5109 -0.5101  0.2159
  102OSM     OF10352   6.117   1.510  10.336  0.4717 -0.2001 -0.0931
  102OSM    C2F10353   6.066   1.557  10.103 -0.6295 -0.1532  0.5492
  102OSM    H2F10354   5.997   1.642  10.086  2.7754  2.6561 -0.2523
  102OSM    H2G10355   6.042   1.477  10.029  0.7939 -0.1461  0.0473
  102OSM    C3F10356   6.211   1.585  10.062 -0.2468 -0.0729 -0.1196
  102OSM    H3F10357   6.277   1.497  10.079 -0.1421 -0.1512 -0.8856
  102OSM    H3G10358   6.242   1.665  10.132  2.7528  0.1205 -1.5259
  102OSM    C4F10359   6.226   1.647   9.920  0.1880  0.3902  0.0732
  102OSM    H4F10360   6.324   1.698   9.911  1.0014 -1.0498  0.4863
  102OSM    H4G10361   6.141   1.719   9.917 -0.8490 -0.8319 -1.1021
  102OSM    C5F10362   6.211   1.560   9.798 -0.1646  0.2302  0.8544
  102OSM    H5F10363   6.123   1.493   9.810  1.5107 -2.1130  0.4735
  102OSM    H5G10364   6.295   1.489   9.795 -1.0716 -1.1528  4.0367
  102OSM    C6F10365   6.202   1.646   9.677 -0.2428 -0.1962 -0.2282
  102OSM    H6F10366   6.293   1.705   9.652  1.3068 -1.5905  1.8690
  102OSM    H6G10367   6.111   1.709   9.689 -0.5241 -0.5941 -0.2770
  102OSM    C7F10368   6.167   1.555   9.557  0.2520 -0.1412  0.7646
  102OSM    H7F10369   6.071   1.503   9.581 -0.9916  0.7928 -1.7145
  102OSM    H7G10370   6.248   1.479   9.549  0.3242  0.0966 -1.9132
  102OSM    C8F10371   6.158   1.616   9.417  0.2274 -0.7203 -0.3570
  102OSM    H8F10372   6.079   1.694   9.417  1.9598  1.1775  1.7792
  102OSM    H8G10373   6.117   1.541   9.345  0.4375 -0.1925 -1.0376
  102OSM    C9F10374   6.279   1.680   9.367 -0.9577  0.0477 -0.1175
  102OSM    H9F10375   6.354   1.715   9.439  0.7000 -0.4939 -1.5303
  102OSM   C10F10376   6.305   1.702   9.239  0.3877  0.4334  0.4910
  102OSM   H10F10377   6.391   1.759   9.202  0.0259 -0.1191 -1.3192
  102OSM   C11F10378   6.213   1.669   9.117 -0.3527 -0.2905  0.3682
  102OSM   H11F10379   6.212   1.756   9.048 -0.3040 -0.4658  0.1458
  102OSM   H11G10380   6.112   1.646   9.158  0.0214 -2.0758  0.3992
  102OSM   C12F10381   6.266   1.553   9.040  0.6044 -0.0546  0.9827
  102OSM   H12F10382   6.201   1.550   8.951  1.7916 -1.1536  0.1142
  102OSM   H12G10383   6.253   1.456   9.094  0.6630  0.0127  1.1185
  102OSM   C13F10384   6.407   1.573   8.986 -0.8690  0.1237 -0.3261
  102OSM   H13F10385   6.479   1.575   9.070 -1.3223  0.5704  0.0612
  102OSM   H13G10386   6.402   1.666   8.926 -3.6377 -0.0260 -0.4991
  102OSM   C14F10387   6.457   1.456   8.904 -0.0226  0.2839  0.1971
  102OSM   H14F10388   6.384   1.408   8.835  1.3130 -0.1911 -0.9341
  102OSM   H14G10389   6.503   1.381   8.971 -0.2482 -1.0830 -1.1105
  102OSM   C15F10390   6.563   1.504   8.801  0.0484 -0.0041  0.3558
  102OSM   H15F10391   6.519   1.588   8.742  2.0089 -1.2215 -3.1227
  102OSM   H15G10392   6.570   1.426   8.723 -1.5204  0.0108  0.1640
  102OSM   C16F10393   6.700   1.526   8.851 -0.2507 -0.1634 -0.2486
  102OSM   H16F10394   6.738   1.423   8.867  1.1366  0.5832  1.6407
  102OSM   H16G10395   6.692   1.580   8.947 -2.3147 -0.3463 -0.2728
  102OSM   C17F10396   6.783   1.598   8.747 -0.1320  0.1651  0.0775
  102OSM   H17F10397   6.726   1.686   8.711 -1.2860  0.1170  1.6940
  102OSM   H17G10398   6.788   1.528   8.661 -1.3372 -2.0862  1.7232
  102OSM   C18F10399   6.921   1.640   8.794  0.3157  0.4997 -0.7647
  102OSM   H18F10400   6.984   1.548   8.798 -1.9282 -1.1008 -0.6613
  102OSM   H18G10401   6.918   1.682   8.897  1.2480  1.0616 -0.9522
  102OSM   H18H10402   6.962   1.722   8.732  0.0869 -0.2152 -1.8786
  103OSM      N10403   6.587   5.331  10.861 -1.8380  0.3614 -0.0768
  103OSM    C1510404   6.597   5.198  10.798 -0.1039  0.0229 -0.1689
  103OSM   H15A10405   6.585   5.117  10.868 -1.9627 -0.9459 -1.5234
  103OSM   H15B10406   6.692   5.184  10.749 -0.1677 -1.7089  0.1472
  103OSM   H15C10407   6.517   5.181  10.728 -2.2118  0.8513  1.8994
  103OSM    C1410408   6.461   5.349  10.937  0.0335  0.9046 -0.1684
  103OSM   H14A10409   6.466   5.436  11.001  1.4894 -1.1338  2.7389
  103OSM   H14B10410   6.432   5.274  11.009 -1.2949  0.2668 -1.3316
  103OSM   H14C10411   6.378   5.345  10.868 -0.5059 -2.1921  0.5080
  103OSM    C1310412   6.712   5.341  10.957  0.1421  0.6988 -0.0938
  103OSM   H13A10413   6.809   5.335  10.911  0.4933 -0.5828  0.7530
  103OSM   H13B10414   6.695   5.262  11.029  2.4385  1.2181  1.1020
  103OSM   H13C10415   6.717   5.435  11.009 -0.5847 -0.5699  2.4631
  103OSM    C1210416   6.595   5.438  10.763  0.4001  0.3402 -0.3600
  103OSM   H12A10417   6.603   5.532  10.815  0.7944 -0.2881  0.7377
  103OSM   H12B10418   6.500   5.437  10.710 -0.7524  1.3602  1.5960
  103OSM    C1110419   6.709   5.431  10.655  0.0206  0.0471 -0.3042
  103OSM   H11A10420   6.693   5.512  10.581 -0.4689  1.2641  1.0933
  103OSM   H11B10421   6.685   5.335  10.604 -0.7997  0.0166  0.1135
  103OSM      P10422   6.965   5.427  10.613  0.0250  0.2958 -0.4826
  103OSM    O1310423   7.076   5.505  10.681  0.0169  0.0714  0.0855
  103OSM    O1410424   6.985   5.283  10.573  0.1172 -0.3227 -0.1372
  103OSM    O1110425   6.915   5.513  10.489 -0.0624 -0.0956 -0.1796
  103OSM    O1210426   6.843   5.437  10.708  0.3981  0.0506  0.0374
  103OSM    C1S10427   7.008   5.561  10.392 -0.5877  0.1030  0.1356
  103OSM    H1S10428   7.081   5.618  10.454  0.7450 -1.5537  0.1591
  103OSM    H1T10429   6.962   5.641  10.330 -0.2070 -0.2382 -0.6029
  103OSM     NF10430   7.193   5.510  10.234  0.2609 -0.1216 -0.5908
  103OSM    HNF10431   7.212   5.492  10.138 -0.6950  1.0215 -1.0144
  103OSM    C2S10432   7.076   5.451  10.308 -0.4640 -0.2664  0.0892
  103OSM    H2S10433   7.109   5.374  10.381 -1.8677 -1.0923 -0.1234
  103OSM    C3S10434   6.981   5.388  10.203 -0.6757  0.5174 -0.1099
  103OSM    H3S10435   6.938   5.464  10.134 -0.5539 -0.8752 -1.7844
  103OSM     O310436   6.864   5.331  10.270 -0.0300  0.1478  0.3617
  103OSM    HO310437   6.857   5.367  10.358 -1.2371  0.6101  0.0889
  103OSM    C4S10438   7.052   5.281  10.117  0.4678  0.3883  0.5281
  103OSM    H4S10439   7.059   5.310  10.011  0.4370 -1.3465  0.0098
  103OSM    C5S10440   7.100   5.158  10.156  0.3193 -0.3443 -0.3748
  103OSM    H5S10441   7.086   5.132  10.263 -1.3035 -2.3847 -1.0165
  103OSM    C6S10442   7.173   5.058  10.068 -0.0183  0.0010 -0.8084
  103OSM    H6S10443   7.149   4.956  10.105  1.9383  0.4458  2.0672
  103OSM    H6T10444   7.282   5.069  10.089 -0.4211 -1.1148  2.4263
  103OSM    C7S10445   7.148   5.090   9.922  0.0733  0.6637  0.3895
  103OSM    H7S10446   7.189   5.188   9.888  0.3056  0.3495 -0.2430
  103OSM    H7T10447   7.039   5.093   9.898  0.0353  0.7906  0.5701
  103OSM    C8S10448   7.205   4.985   9.826 -0.7789 -0.1114 -0.5116
  103OSM    H8S10449   7.157   4.885   9.835 -1.3944  0.1180 -1.1815
  103OSM    H8T10450   7.314   4.972   9.841 -0.7653  1.0737  0.5202
  103OSM    C9S10451   7.181   5.028   9.682  0.6525 -0.0292  0.1762
  103OSM    H9S10452   7.218   5.130   9.662  1.8762 -0.4560  0.1690
  103OSM    H9T10453   7.070   5.037   9.684  0.7762  2.2731 -0.4752
  103OSM   C10S10454   7.212   4.934   9.565 -0.4648 -0.4316  0.7376
  103OSM   H10S10455   7.153   4.952   9.473  0.5384  1.9041  0.4756
  103OSM   H10T10456   7.185   4.835   9.608 -0.3518 -0.9927 -0.4516
  103OSM   C11S10457   7.358   4.939   9.529  0.0315  0.5833 -0.5397
  103OSM   H11S10458   7.411   4.919   9.624 -0.5945 -1.1497 -0.5219
  103OSM   H11T10459   7.381   5.042   9.494 -1.2064  0.4488 -1.8363
  103OSM   C12S10460   7.404   4.847   9.416 -0.8028  0.6607  0.2476
  103OSM   H12S10461   7.387   4.743   9.450 -2.8555  0.6487 -0.6497
  103OSM   H12T10462   7.510   4.874   9.396 -0.5964 -0.6931 -0.6262
  103OSM   C13S10463   7.321   4.874   9.287  0.1547  0.2860 -0.1504
  103OSM   H13S10464   7.218   4.834   9.299 -0.0521  0.6057 -0.7877
  103OSM   H13T10465   7.359   4.815   9.200 -1.2800  0.8513 -1.2031
  103OSM   C14S10466   7.320   5.018   9.235  0.1133 -0.0303 -0.3802
  103OSM   H14S10467   7.424   5.043   9.206  0.6524 -1.6154  0.0881
  103OSM   H14T10468   7.284   5.084   9.316  2.3222  0.6790  0.0811
  103OSM   C15S10469   7.228   5.047   9.117  0.0058 -0.0455 -0.0954
  103OSM   H15S10470   7.120   5.045   9.145 -0.6877 -1.3174 -2.5065
  103OSM   H15T10471   7.235   4.971   9.036  0.8161  1.4376 -1.4620
  103OSM   C16S10472   7.264   5.177   9.054 -0.7188 -0.3401  0.3049
  103OSM   H16S10473   7.368   5.168   9.015 -0.8135 -1.4853  0.2984
  103OSM   H16T10474   7.258   5.252   9.136  0.4164  1.9723 -1.5811
  103OSM   C17S10475   7.171   5.218   8.933  0.6181  0.1138  0.0946
  103OSM   H17S10476   7.193   5.325   8.911  0.9235  0.3031  1.2220
  103OSM   H17T10477   7.063   5.214   8.957  0.6089  0.3947  0.0975
  103OSM   C18S10478   7.196   5.137   8.806  0.7141  0.1253 -0.2096
  103OSM   H18S10479   7.147   5.038   8.814  0.4272  0.1036 -1.9181
  103OSM   H18T10480   7.302   5.126   8.774  0.0097 -1.3709 -2.2224
  103OSM   H18U10481   7.153   5.178   8.712  2.0837  0.2950 -0.7955
  103OSM    C1F10482   7.294   5.558  10.304  0.1927 -0.7183 -0.5783
  103OSM     OF10483   7.306   5.532  10.422 -0.3163 -0.3448 -0.0813
  103OSM    C2F10484   7.395   5.643  10.235 -0.1090  0.1286  0.7967
  103OSM    H2F10485   7.359   5.657  10.131 -1.0024 -1.5027  0.8659
  103OSM    H2G10486   7.487   5.582  10.230 -0.3086 -0.1699  0.7358
  103OSM    C3F10487   7.410   5.782  10.303 -0.3445 -0.8296  0.0151
  103OSM    H3F10488   7.471   5.757  10.393 -0.6883 -0.6405  0.3049
  103OSM    H3G10489   7.314   5.832  10.328 -1.2338 -2.5626  0.2160
  103OSM    C4F10490   7.515   5.875  10.230 -0.0927 -0.6899 -0.2760
  103OSM    H4F10491   7.599   5.817  10.187 -1.6621 -2.5673 -0.9521
  103OSM    H4G10492   7.551   5.947  10.306  0.7042 -0.9434 -0.4052
  103OSM    C5F10493   7.443   5.945  10.115  0.0479  0.1220  0.3334
  103OSM    H5F10494   7.386   6.030  10.159 -2.6694 -0.7875 -1.1534
  103OSM    H5G10495   7.374   5.878  10.059  1.7878  0.2913 -2.1720
  103OSM    C6F10496   7.538   5.994  10.003 -0.2196 -0.0404  0.6520
  103OSM    H6F10497   7.585   5.912   9.944 -1.9883 -0.0480 -0.8400
  103OSM    H6G10498   7.620   6.057  10.044  1.5618 -0.1832 -2.3821
  103OSM    C7F10499   7.471   6.074   9.879  0.1286  0.6638 -0.2166
  103OSM    H7F10500   7.410   6.158   9.918 -1.1535  1.3173 -3.3098
  103OSM    H7G10501   7.404   6.002   9.826  1.1432 -1.4241  1.2046
  103OSM    C8F10502   7.573   6.132   9.778  0.6221 -0.1613  0.4480
  103OSM    H8F10503   7.646   6.055   9.742 -1.7797 -3.0211  1.2894
  103OSM    H8G10504   7.641   6.208   9.821 -0.7009  0.5363  1.3815
  103OSM    C9F10505   7.490   6.188   9.662 -0.4320 -0.4236 -0.1606
  103OSM    H9F10506   7.432   6.278   9.687 -1.5463 -1.3668  0.7945
  103OSM   C10F10507   7.469   6.132   9.541 -0.0100 -0.0041  0.6697
  103OSM   H10F10508   7.403   6.184   9.470 -1.0010 -0.8568  0.9494
  103OSM   C11F10509   7.523   5.998   9.505 -0.2954 -0.0897  0.5019
  103OSM   H11F10510   7.464   5.926   9.565 -0.6706  0.1421  0.4144
  103OSM   H11G10511   7.632   5.987   9.521 -0.2591 -0.4398  0.0212
  103OSM   C12F10512   7.494   5.965   9.357 -0.0617  0.2016 -0.0082
  103OSM   H12F10513   7.384   5.971   9.349  0.0330  1.4820 -0.6144
  103OSM   H12G10514   7.535   5.866   9.325 -0.9616  0.1386 -1.0114
  103OSM   C13F10515   7.554   6.068   9.264  0.2127  0.1731  0.0947
  103OSM   H13F10516   7.479   6.149   9.246 -0.7635 -0.9585 -1.1624
  103OSM   H13G10517   7.651   6.111   9.296 -0.5780  0.6975  1.9238
  103OSM   C14F10518   7.584   5.991   9.139 -0.3468  0.5165 -0.3020
  103OSM   H14F10519   7.491   5.954   9.092  0.2475 -1.2864 -0.1228
  103OSM   H14G10520   7.650   5.906   9.165  0.4051  0.7275 -1.4242
  103OSM   C15F10521   7.660   6.080   9.041  0.0301  0.7666  0.1475
  103OSM   H15F10522   7.742   6.136   9.091  1.0614  0.6358 -1.3334
  103OSM   H15G10523   7.602   6.156   8.984  0.8731  0.6557 -0.9034
  103OSM   C16F10524   7.725   6.001   8.921  0.7593 -0.2135 -0.4115
  103OSM   H16F10525   7.781   5.909   8.949  0.3859 -0.1202  0.6892
  103OSM   H16G10526   7.775   6.067   8.847  1.1899 -0.4950 -0.3715
  103OSM   C17F10527   7.615   5.934   8.827  0.5578 -0.0654  0.2940
  103OSM   H17F10528   7.575   6.014   8.762 -1.0615 -2.6037 -2.0937
  103OSM   H17G10529   7.533   5.887   8.884  0.5443 -0.3440  0.0506
  103OSM   C18F10530   7.680   5.841   8.719  0.4686  0.0441 -0.6139
  103OSM   H18F10531   7.679   5.738   8.761 -1.4807  0.4224  0.3573
  103OSM   H18G10532   7.785   5.875   8.701  0.3759  1.0043  0.5774
  103OSM   H18H10533   7.629   5.832   8.621  2.1156 -2.3731 -1.3442
  104OSM      N10534   3.766   5.758  10.786  0.3811  0.6049 -0.3084
  104OSM    C1510535   3.871   5.648  10.769  0.2282  0.3317 -0.0649
  104OSM   H15A10536   3.833   5.578  10.696 -0.3616  1.0225 -0.4439
  104OSM   H15B10537   3.888   5.590  10.858  0.6348 -0.3719 -0.5938
  104OSM   H15C10538   3.959   5.699  10.734  0.2844 -1.3280 -2.6395
  104OSM    C1410539   3.642   5.675  10.840  0.0208 -0.3525 -0.1108
  104OSM   H14A10540   3.547   5.724  10.823  1.4084  2.5499 -0.1179
  104OSM   H14B10541   3.652   5.655  10.945  1.9923  1.0561  0.0164
  104OSM   H14C10542   3.636   5.578  10.793 -2.0124  0.0273 -0.7345
  104OSM    C1310543   3.797   5.840  10.906 -0.4880  0.2387  0.1927
  104OSM   H13A10544   3.703   5.882  10.940 -2.3552 -3.5125  0.2204
  104OSM   H13B10545   3.859   5.922  10.874  0.0877  0.0321  0.7662
  104OSM   H13C10546   3.848   5.778  10.978  0.4688 -0.3860 -0.9749
  104OSM    C1210547   3.733   5.826  10.659 -0.0089 -0.3864 -0.0791
  104OSM   H12A10548   3.663   5.902  10.689  0.5345  0.1400 -0.1168
  104OSM   H12B10549   3.678   5.761  10.592 -0.5999  0.0659 -0.0439
  104OSM    C1110550   3.856   5.878  10.587 -0.6824 -0.5375  0.0659
  104OSM   H11A10551   3.822   5.950  10.509  1.2016  0.1662 -0.1638
  104OSM   H11B10552   3.904   5.791  10.537  0.1039 -1.3810  2.1963
  104OSM      P10553   4.111   5.922  10.670  0.4884 -0.6697  0.3381
  104OSM    O1310554   4.159   5.997  10.785  0.0006 -0.6724 -0.5174
  104OSM    O1410555   4.142   5.778  10.662  0.5285 -0.3509  0.1075
  104OSM    O1110556   4.156   5.999  10.535 -0.0668  0.3640 -0.5622
  104OSM    O1210557   3.954   5.945  10.664  0.0541 -0.3845 -0.3134
  104OSM    C1S10558   4.135   5.920  10.410 -0.1822  0.8002  0.3226
  104OSM    H1S10559   4.036   5.944  10.366 -0.8618  0.6420  1.7206
  104OSM    H1T10560   4.138   5.809  10.423 -4.1609  0.5144  0.2122
  104OSM     NF10561   4.227   5.868  10.181  0.1939  0.2195 -0.9218
  104OSM    HNF10562   4.272   5.779  10.175  0.2050  0.0706  0.8383
  104OSM    C2S10563   4.247   5.946  10.302 -0.2153  1.0351 -0.8512
  104OSM    H2S10564   4.230   6.052  10.272 -0.3365  1.7624  1.5331
  104OSM    C3S10565   4.394   5.930  10.359 -0.7160  0.8090  0.0937
  104OSM    H3S10566   4.431   5.831  10.393  0.0493  0.4063 -1.7860
  104OSM     O310567   4.412   6.015  10.473  1.0333 -0.2370 -0.4104
  104OSM    HO310568   4.333   6.011  10.528  0.1637 -0.7694 -1.6398
  104OSM    C4S10569   4.495   5.977  10.251  0.0967  0.5138  0.2678
  104OSM    H4S10570   4.487   6.085  10.232 -0.6358  0.3691 -0.3040
  104OSM    C5S10571   4.560   5.893  10.172 -0.1911  0.0259 -0.3533
  104OSM    H5S10572   4.550   5.785  10.192 -3.7083  0.2750 -0.0803
  104OSM    C6S10573   4.656   5.946  10.069  0.3057 -0.5925  0.1917
  104OSM    H6S10574   4.762   5.926  10.093 -0.1155  0.4133  3.3500
  104OSM    H6T10575   4.644   6.056  10.059 -0.6282 -0.5916  1.1016
  104OSM    C7S10576   4.612   5.908   9.927 -0.1388  0.2215 -0.3077
  104OSM    H7S10577   4.503   5.919   9.913  0.1797  2.4979 -1.4359
  104OSM    H7T10578   4.634   5.800   9.915 -0.6210 -0.3131  2.6954
  104OSM    C8S10579   4.687   5.974   9.814 -0.0491 -0.3504 -0.8145
  104OSM    H8S10580   4.796   5.968   9.833  0.4283  1.4040 -2.6584
  104OSM    H8T10581   4.656   6.080   9.804  1.0581  0.0422 -0.1596
  104OSM    C9S10582   4.651   5.910   9.676  0.1533 -0.2628 -0.3115
  104OSM    H9S10583   4.687   5.980   9.597 -2.4542  2.1628  0.4524
  104OSM    H9T10584   4.541   5.901   9.669  0.3722 -2.3521 -1.9592
  104OSM   C10S10585   4.692   5.771   9.643 -0.5294  0.0201 -0.0793
  104OSM   H10S10586   4.621   5.694   9.679  0.4947 -0.9269 -0.0125
  104OSM   H10T10587   4.791   5.752   9.689 -0.0361  0.7756 -0.7925
  104OSM   C11S10588   4.714   5.763   9.488  0.1941  0.2756  0.4448
  104OSM   H11S10589   4.784   5.838   9.447 -0.3201  0.4288 -0.1615
  104OSM   H11T10590   4.613   5.780   9.447  0.4780 -1.6540 -1.2094
  104OSM   C12S10591   4.755   5.627   9.441 -0.4511  0.3832  0.4386
  104OSM   H12S10592   4.714   5.545   9.505 -0.2511 -1.2000 -1.3861
  104OSM   H12T10593   4.864   5.614   9.460 -0.7112 -1.0794  1.1431
  104OSM   C13S10594   4.711   5.609   9.294  0.2334 -0.1613 -0.3698
  104OSM   H13S10595   4.605   5.642   9.286 -0.0644 -0.6380  1.2491
  104OSM   H13T10596   4.693   5.499   9.286  2.1965 -0.6140  0.8434
  104OSM   C14S10597   4.799   5.665   9.179 -0.1257  0.0608 -0.0004
  104OSM   H14S10598   4.893   5.606   9.169  0.3817  0.9006 -0.2248
  104OSM   H14T10599   4.833   5.765   9.212  0.6339  0.1051 -0.8658
  104OSM   C15S10600   4.728   5.662   9.044  0.0305  0.0602 -1.1327
  104OSM   H15S10601   4.626   5.701   9.062 -0.0374 -1.0984  1.5097
  104OSM   H15T10602   4.723   5.553   9.027  1.4710 -0.5654  1.6680
  104OSM   C16S10603   4.813   5.739   8.944  1.0086  0.1579  0.0975
  104OSM   H16S10604   4.917   5.700   8.948  0.4115 -1.5098  0.1186
  104OSM   H16T10605   4.799   5.845   8.973 -0.6053  0.0787 -0.2937
  104OSM   C17S10606   4.760   5.712   8.801 -0.0294 -0.1176  0.1556
  104OSM   H17S10607   4.810   5.789   8.739 -1.1574 -0.9046 -1.8212
  104OSM   H17T10608   4.650   5.727   8.802  0.1135  1.2567  2.2729
  104OSM   C18S10609   4.795   5.572   8.745  0.0429 -0.0269 -0.3502
  104OSM   H18S10610   4.703   5.513   8.767 -0.3611  0.6733 -0.1129
  104OSM   H18T10611   4.886   5.529   8.792  0.8573  0.1201 -1.7381
  104OSM   H18U10612   4.819   5.583   8.637  0.3843 -1.5233 -0.4406
  104OSM    C1F10613   4.123   5.902  10.100  0.1714  0.0463 -0.1277
  104OSM     OF10614   4.045   5.995  10.119  0.4241 -0.4003  0.0701
  104OSM    C2F10615   4.095   5.804   9.994 -0.0123  0.4419  0.4080
  104OSM    H2F10616   4.028   5.846   9.916 -0.1493 -3.9387 -2.1755
  104OSM    H2G10617   4.046   5.723  10.052 -0.2984  1.0095  0.9763
  104OSM    C3F10618   4.225   5.780   9.909 -0.1452  0.1310  0.1352
  104OSM    H3F10619   4.304   5.739   9.976 -1.0454 -0.4308  0.8868
  104OSM    H3G10620   4.266   5.880   9.885  2.3072 -0.5381  1.2456
  104OSM    C4F10621   4.208   5.689   9.792  0.2310  0.0345 -0.1280
  104OSM    H4F10622   4.154   5.601   9.832  1.8323 -0.7930  0.2975
  104OSM    H4G10623   4.309   5.652   9.764 -0.3301 -1.1153 -0.7282
  104OSM    C5F10624   4.143   5.761   9.675  0.2421  0.3957 -0.6360
  104OSM    H5F10625   4.199   5.854   9.655 -0.9526  1.3627  0.3513
  104OSM    H5G10626   4.043   5.784   9.717 -0.5231 -2.8065 -0.3957
  104OSM    C6F10627   4.129   5.660   9.561  0.0084 -0.2377  0.0557
  104OSM    H6F10628   4.039   5.668   9.496  0.6086 -0.5361 -0.8315
  104OSM    H6G10629   4.114   5.556   9.598 -1.2880 -0.5523 -1.2265
  104OSM    C7F10630   4.244   5.675   9.466  0.4802  0.2303 -0.3022
  104OSM    H7F10631   4.338   5.683   9.524  0.3526  0.4221 -0.1216
  104OSM    H7G10632   4.230   5.771   9.412  0.8757  0.3310 -0.2288
  104OSM    C8F10633   4.264   5.550   9.378 -0.1501  0.6020 -0.0163
  104OSM    H8F10634   4.278   5.466   9.449  1.2826  0.4165 -0.5031
  104OSM    H8G10635   4.356   5.555   9.316  0.1892  3.4516  0.6043
  104OSM    C9F10636   4.152   5.511   9.291  0.0465  0.6678  0.3524
  104OSM    H9F10637   4.094   5.432   9.340  1.4378 -0.4638  0.2281
  104OSM   C10F10638   4.124   5.550   9.167  0.6748 -0.1259  0.2734
  104OSM   H10F10639   4.043   5.495   9.115  0.4231 -1.0283  1.5795
  104OSM   C11F10640   4.199   5.664   9.100 -0.1370 -0.3120  1.0264
  104OSM   H11F10641   4.279   5.698   9.170 -0.8988  1.4943  1.0732
  104OSM   H11G10642   4.127   5.749   9.103 -0.9144 -0.9340  0.4169
  104OSM   C12F10643   4.240   5.660   8.953  0.3374 -0.4250  0.9433
  104OSM   H12F10644   4.319   5.583   8.936 -0.4428 -0.9354 -0.6412
  104OSM   H12G10645   4.287   5.758   8.931  0.7326  0.0172  3.4715
  104OSM   C13F10646   4.125   5.628   8.857  0.9982 -0.5290 -0.2262
  104OSM   H13F10647   4.033   5.674   8.899  2.8170  2.7625  0.5697
  104OSM   H13G10648   4.106   5.519   8.862 -3.1093 -0.0418 -1.4476
  104OSM   C14F10649   4.150   5.663   8.711  0.0721  0.6673 -0.5784
  104OSM   H14F10650   4.253   5.641   8.678 -0.3200  0.5891 -1.7845
  104OSM   H14G10651   4.124   5.770   8.698  1.8036  1.1345 -0.4583
  104OSM   C15F10652   4.063   5.583   8.620  0.0514  0.0945  0.8699
  104OSM   H15F10653   3.959   5.605   8.652  0.5761 -0.4412  3.0444
  104OSM   H15G10654   4.100   5.478   8.617  1.2377  0.5106 -1.1240
  104OSM   C16F10655   4.076   5.633   8.478  0.5498  0.3119  0.0327
  104OSM   H16F10656   4.170   5.601   8.428 -1.4899 -2.8095 -2.0866
  104OSM   H16G10657   4.083   5.744   8.476  2.2917  0.2885  1.7536
  104OSM   C17F10658   3.964   5.590   8.389 -0.0236 -0.2946  1.0243
  104OSM   H17F10659   3.862   5.636   8.395 -0.4769 -0.4952 -2.7111
  104OSM   H17G10660   3.950   5.480   8.389  1.3247 -0.5299 -1.0936
  104OSM   C18F10661   4.003   5.627   8.242  0.4928 -0.0150 -0.3572
  104OSM   H18F10662   3.919   5.585   8.184 -0.7874 -2.2303  2.8150
  104OSM   H18G10663   4.099   5.581   8.212  0.9393  0.7494 -0.1314
  104OSM   H18H10664   4.015   5.737   8.229  2.7020 -0.0166  1.0703
  105OSM      N10665   3.540   6.794  10.836  0.2768 -0.1477 -0.4473
  105OSM    C1510666   3.552   6.939  10.794  0.1877  0.1877  0.4074
  105OSM   H15A10667   3.541   7.005  10.878 -0.1828  0.1804  0.3643
  105OSM   H15B10668   3.486   6.952  10.709  0.8348 -1.0093 -0.3155
  105OSM   H15C10669   3.655   6.958  10.767  0.2052 -1.3983 -0.8107
  105OSM    C1410670   3.528   6.709  10.713 -0.2754 -0.3182 -0.2772
  105OSM   H14A10671   3.425   6.721  10.686 -0.0282 -1.3036 -1.7272
  105OSM   H14B10672   3.545   6.603  10.719  2.2575 -0.1152 -2.0272
  105OSM   H14C10673   3.591   6.753  10.637  2.2836 -2.1698  0.6354
  105OSM    C1310674   3.662   6.758  10.913  0.3505  0.7599  0.0905
  105OSM   H13A10675   3.659   6.657  10.951 -0.8713  1.2159  1.3016
  105OSM   H13B10676   3.679   6.811  11.006  1.5967  0.0742  0.2695
  105OSM   H13C10677   3.748   6.771  10.849  1.1137  0.9529  1.1444
  105OSM    C1210678   3.419   6.772  10.932  0.0948  1.0195  0.1340
  105OSM   H12A10679   3.423   6.816  11.031 -0.2815 -0.7969  1.0136
  105OSM   H12B10680   3.418   6.665  10.949  1.7198  0.7159 -1.4078
  105OSM    C1110681   3.277   6.803  10.870  0.5670 -0.0863 -0.7788
  105OSM   H11A10682   3.275   6.909  10.837 -1.4920  0.0601 -0.3525
  105OSM   H11B10683   3.204   6.804  10.954  0.5671 -0.9594 -0.7652
  105OSM      P10684   3.177   6.581  10.798 -0.0547  0.4197  0.4260
  105OSM    O1310685   3.274   6.502  10.880 -0.6636 -0.1304 -0.0120
  105OSM    O1410686   3.039   6.596  10.853 -0.3801 -0.4176  0.0922
  105OSM    O1110687   3.164   6.502  10.655 -0.3716 -0.6087 -0.4446
  105OSM    O1210688   3.245   6.718  10.762 -0.1233  0.1722  0.1018
  105OSM    C1S10689   3.177   6.573  10.531  0.3857 -0.1737 -0.1155
  105OSM    H1S10690   3.284   6.586  10.506  0.2773 -0.4134 -0.7160
  105OSM    H1T10691   3.130   6.674  10.537  2.7802  0.9668  0.7971
  105OSM     NF10692   3.165   6.561  10.291  0.0099  0.0759  0.2919
  105OSM    HNF10693   3.095   6.605  10.236  0.9335  0.0238 -0.9731
  105OSM    C2S10694   3.120   6.501  10.412 -0.4181  0.5812 -0.0561
  105OSM    H2S10695   3.160   6.397  10.411  1.6320  1.3092 -1.4301
  105OSM    C3S10696   2.968   6.504  10.420 -0.4075  0.3863  0.2458
  105OSM    H3S10697   2.929   6.607  10.426 -0.0101  0.4774  1.4575
  105OSM     O310698   2.924   6.448  10.540  0.4737  0.2823  0.6301
  105OSM    HO310699   2.997   6.456  10.602  0.6955  0.9457  0.2922
  105OSM    C4S10700   2.908   6.425  10.310  0.2555 -0.3628 -0.1388
  105OSM    H4S10701   2.958   6.329  10.291  1.7378  0.4889 -0.6685
  105OSM    C5S10702   2.797   6.453  10.239  0.0240  0.0923  0.5522
  105OSM    H5S10703   2.746   6.547  10.266  1.2341  0.8263  0.3581
  105OSM    C6S10704   2.738   6.370  10.127 -0.7616 -0.3685 -0.1349
  105OSM    H6S10705   2.721   6.455  10.058  0.0174 -0.6852 -0.7240
  105OSM    H6T10706   2.634   6.333  10.144 -0.3246 -1.1628  0.9145
  105OSM    C7S10707   2.825   6.261  10.065 -0.0134  0.2011  0.6184
  105OSM    H7S10708   2.840   6.173  10.132  0.6383  1.3930  2.1199
  105OSM    H7T10709   2.924   6.303  10.035 -0.0117 -2.1527 -3.3583
  105OSM    C8S10710   2.764   6.223   9.926 -0.2016 -0.3114 -0.2115
  105OSM    H8S10711   2.755   6.323   9.879  1.2980 -0.5014 -0.9673
  105OSM    H8T10712   2.662   6.179   9.937  0.0617 -0.5946  1.4082
  105OSM    C9S10713   2.844   6.117   9.847  0.5920 -0.6670  0.0737
  105OSM    H9S10714   2.838   6.018   9.897 -2.2120 -0.1376  0.9945
  105OSM    H9T10715   2.947   6.156   9.834 -0.0516  0.5879 -1.6700
  105OSM   C10S10716   2.782   6.103   9.708 -0.2193 -0.3807  0.1987
  105OSM   H10S10717   2.703   6.179   9.695 -1.2955 -1.5685 -0.4448
  105OSM   H10T10718   2.718   6.012   9.708 -0.7536 -0.0112 -0.3850
  105OSM   C11S10719   2.881   6.093   9.593  0.0293 -0.0767 -0.1970
  105OSM   H11S10720   2.934   5.995   9.591  1.4496  0.6707 -0.1929
  105OSM   H11T10721   2.957   6.172   9.605 -0.1014 -0.2348  2.1805
  105OSM   C12S10722   2.812   6.110   9.458 -0.1899  0.6537  0.4530
  105OSM   H12S10723   2.737   6.192   9.458  1.0573  1.8396 -0.3387
  105OSM   H12T10724   2.748   6.021   9.440 -1.7201  2.1420 -2.2224
  105OSM   C13S10725   2.894   6.115   9.341 -0.8538 -0.4879 -0.2329
  105OSM   H13S10726   2.974   6.041   9.357 -1.1861 -0.4929  1.5934
  105OSM   H13T10727   2.963   6.199   9.362 -0.2040 -0.8473 -0.9168
  105OSM   C14S10728   2.822   6.104   9.212 -0.3820 -0.1513  0.3630
  105OSM   H14S10729   2.740   6.178   9.202  0.2529  0.4310 -0.7581
  105OSM   H14T10730   2.774   6.005   9.195  0.7042 -0.2397 -3.1804
  105OSM   C15S10731   2.903   6.114   9.084 -0.6534 -0.2701 -0.5535
  105OSM   H15S10732   3.006   6.081   9.106  0.5423  3.6153  0.4248
  105OSM   H15T10733   2.920   6.221   9.060 -1.6449 -0.0023 -0.1215
  105OSM   C16S10734   2.853   6.052   8.952  0.2000  0.1455  0.4794
  105OSM   H16S10735   2.857   5.944   8.979  2.0504  0.0850  0.0995
  105OSM   H16T10736   2.929   6.060   8.872 -1.6118 -0.2033 -1.3776
  105OSM   C17S10737   2.729   6.106   8.900  0.2740 -0.1473  0.1699
  105OSM   H17S10738   2.717   6.216   8.911  0.0162 -0.3041  1.7242
  105OSM   H17T10739   2.644   6.062   8.957  1.5428 -0.9169  1.5301
  105OSM   C18S10740   2.697   6.063   8.752 -0.8053  0.6925  0.1304
  105OSM   H18S10741   2.788   6.082   8.690 -0.9210  1.1393  0.0945
  105OSM   H18T10742   2.612   6.121   8.709  1.0716  2.5946 -1.2458
  105OSM   H18U10743   2.674   5.954   8.752  0.3978  0.4067 -1.2515
  105OSM    C1F10744   3.291   6.573  10.253  0.0606 -0.0332  0.3290
  105OSM     OF10745   3.376   6.494  10.285 -1.0281 -0.2871  0.4031
  105OSM    C2F10746   3.326   6.685  10.165  0.0044 -0.3175  0.9762
  105OSM    H2F10747   3.351   6.775  10.226  0.1553  0.2134  0.1399
  105OSM    H2G10748   3.236   6.694  10.100  0.6834 -2.7434 -0.3970
  105OSM    C3F10749   3.448   6.654  10.069  0.4958  0.4200  0.7573
  105OSM    H3F10750   3.537   6.634  10.134  1.5777  0.2992 -0.7073
  105OSM    H3G10751   3.477   6.744  10.011 -1.4302 -0.3138 -1.4974
  105OSM    C4F10752   3.422   6.532   9.978  0.4398 -0.1162  0.0748
  105OSM    H4F10753   3.327   6.533   9.921  1.4870  1.1424 -1.7846
  105OSM    H4G10754   3.430   6.447  10.049  1.5932  0.9758  1.3108
  105OSM    C5F10755   3.544   6.521   9.873 -0.3449  0.0698  0.4342
  105OSM    H5F10756   3.525   6.422   9.826 -0.2425 -1.3453  3.1844
  105OSM    H5G10757   3.643   6.514   9.924 -1.0082  1.0863  1.9476
  105OSM    C6F10758   3.549   6.632   9.766 -0.6615 -0.4365  0.0494
  105OSM    H6F10759   3.563   6.732   9.813  0.4682  0.6029 -2.3570
  105OSM    H6G10760   3.451   6.635   9.713 -0.0623  0.3488 -1.0487
  105OSM    C7F10761   3.658   6.612   9.664 -0.7339 -0.3490 -0.8237
  105OSM    H7F10762   3.749   6.591   9.724 -1.1476 -0.3866 -0.1938
  105OSM    H7G10763   3.671   6.711   9.616 -2.3544  0.8633  1.0636
  105OSM    C8F10764   3.639   6.496   9.561  0.0786 -0.4884  0.3713
  105OSM    H8F10765   3.588   6.410   9.609 -2.8387  0.6473 -0.4662
  105OSM    H8G10766   3.736   6.457   9.526  0.2883  0.4716 -0.1795
  105OSM    C9F10767   3.542   6.535   9.449 -0.1329  0.8023 -0.0821
  105OSM    H9F10768   3.453   6.596   9.467 -1.2354  0.3152 -3.2543
  105OSM   C10F10769   3.564   6.492   9.322  0.1001  0.5631  0.3195
  105OSM   H10F10770   3.487   6.509   9.246 -1.3443  0.6739  1.7567
  105OSM   C11F10771   3.675   6.405   9.275 -0.3229  0.3159 -0.1635
  105OSM   H11F10772   3.644   6.339   9.191 -0.7444 -0.2840  0.4549
  105OSM   H11G10773   3.712   6.335   9.353  1.2196  1.2842  0.0132
  105OSM   C12F10774   3.777   6.503   9.214  0.4664  0.2287  0.0823
  105OSM   H12F10775   3.828   6.560   9.293 -2.3523  1.4340  1.1530
  105OSM   H12G10776   3.724   6.574   9.147 -0.1320 -1.3699 -1.2397
  105OSM   C13F10777   3.876   6.438   9.115 -0.5627 -0.3342 -0.2541
  105OSM   H13F10778   3.812   6.382   9.043  0.0485  1.6223 -2.4181
  105OSM   H13G10779   3.940   6.369   9.173 -1.2469 -1.1293 -0.4183
  105OSM   C14F10780   3.964   6.541   9.046  0.2393  0.1732 -0.4999
  105OSM   H14F10781   3.931   6.645   9.066 -1.6319 -0.0572 -2.0599
  105OSM   H14G10782   3.950   6.534   8.936 -0.3484 -3.0139 -0.3252
  105OSM   C15F10783   4.112   6.514   9.092 -0.3162  0.0732 -0.1084
  105OSM   H15F10784   4.144   6.408   9.081 -2.2538 -0.8364  2.1611
  105OSM   H15G10785   4.124   6.524   9.202  1.0583 -2.4989  0.0486
  105OSM   C16F10786   4.212   6.615   9.030 -0.1302 -1.2231 -0.8466
  105OSM   H16F10787   4.310   6.610   9.083 -0.9422 -0.9916  0.7079
  105OSM   H16G10788   4.164   6.715   9.031  0.0266 -1.0621 -3.1697
  105OSM   C17F10789   4.244   6.585   8.887 -0.2767 -0.0564  0.1746
  105OSM   H17F10790   4.158   6.586   8.817 -0.4649  1.1539  0.3902
  105OSM   H17G10791   4.284   6.482   8.879 -1.0109 -0.2184 -2.3255
  105OSM   C18F10792   4.343   6.677   8.821  0.5330 -0.1278  0.8606
  105OSM   H18F10793   4.340   6.680   8.710 -0.5087 -1.4955  0.8251
  105OSM   H18G10794   4.448   6.651   8.849  1.0706 -1.1586 -1.8520
  105OSM   H18H10795   4.326   6.783   8.848 -2.4785 -0.2993  0.0393
  106OSM      N10796   5.689   2.926  11.044 -0.6832 -0.0573 -0.2609
  106OSM    C1510797   5.817   2.845  11.027 -0.3420 -0.8904  0.2692
  106OSM   H15A10798   5.897   2.878  11.091  1.2153 -2.3527 -0.8186
  106OSM   H15B10799   5.861   2.849  10.929  0.6781 -2.1048  0.6581
  106OSM   H15C10800   5.799   2.739  11.027 -0.0625 -0.9710 -1.4955
  106OSM    C1410801   5.629   2.888  11.177 -0.1862 -0.4197  0.0379
  106OSM   H14A10802   5.539   2.947  11.185  0.3775  0.7272 -1.4737
  106OSM   H14B10803   5.701   2.911  11.254  0.9117  1.9964 -1.5940
  106OSM   H14C10804   5.610   2.781  11.183 -0.6942 -0.4121 -1.1397
  106OSM    C1310805   5.725   3.071  11.043  0.3502 -0.0529  0.8200
  106OSM   H13A10806   5.772   3.092  10.948 -0.2898 -0.7837  0.3273
  106OSM   H13B10807   5.792   3.102  11.121  1.6246 -0.8923  0.0947
  106OSM   H13C10808   5.636   3.132  11.049  0.8599  0.8620 -0.6077
  106OSM    C1210809   5.596   2.882  10.932 -0.3251  0.3268  0.2637
  106OSM   H12A10810   5.496   2.905  10.968 -0.4933  0.1350 -0.0785
  106OSM   H12B10811   5.594   2.775  10.926  0.5434  0.3460 -0.5043
  106OSM    C1110812   5.627   2.943  10.790  0.6129  0.4504 -0.2383
  106OSM   H11A10813   5.626   3.054  10.789  2.6953  0.6307  2.7915
  106OSM   H11B10814   5.548   2.906  10.721 -0.9626 -0.2050  1.7792
  106OSM      P10815   5.785   2.752  10.705 -0.2090  0.2673 -0.2907
  106OSM    O1310816   5.927   2.720  10.716 -0.4688  0.6526 -0.1286
  106OSM    O1410817   5.689   2.658  10.770 -0.1759  0.0072 -0.2013
  106OSM    O1110818   5.755   2.741  10.547 -0.4072  0.3535  0.2805
  106OSM    O1210819   5.759   2.902  10.748 -0.6057 -0.2088  0.1918
  106OSM    C1S10820   5.744   2.865  10.477 -0.4598 -0.0176 -0.7513
  106OSM    H1S10821   5.835   2.926  10.487  0.2022 -0.9719 -0.8091
  106OSM    H1T10822   5.656   2.924  10.511 -1.9731 -2.7549  0.4269
  106OSM     NF10823   5.683   2.979  10.265  0.4052 -0.2031  0.1920
  106OSM    HNF10824   5.595   3.003  10.226 -0.2161 -0.0102  1.6705
  106OSM    C2S10825   5.710   2.852  10.323  0.1541  0.3606 -0.9169
  106OSM    H2S10826   5.801   2.807  10.278 -0.5878  1.2993 -3.5240
  106OSM    C3S10827   5.601   2.734  10.294  0.0802 -0.0109  0.0019
  106OSM    H3S10828   5.505   2.771  10.336  0.7810 -0.6475  2.3141
  106OSM     O310829   5.627   2.611  10.367 -0.1856 -0.5243 -0.1663
  106OSM    HO310830   5.693   2.637  10.433 -0.6834  0.1135  0.0848
  106OSM    C4S10831   5.595   2.718  10.142 -0.7615 -0.7138 -0.0752
  106OSM    H4S10832   5.510   2.776  10.103 -0.0551  0.1059 -0.4234
  106OSM    C5S10833   5.668   2.636  10.065  0.5385  0.0096  0.2220
  106OSM    H5S10834   5.748   2.580  10.115  2.2142  2.3628  0.3459
  106OSM    C6S10835   5.663   2.616   9.916 -0.2676 -0.3904 -0.2907
  106OSM    H6S10836   5.619   2.514   9.904 -0.5557 -0.2634 -0.3254
  106OSM    H6T10837   5.771   2.612   9.888  1.0850  3.7474  3.2998
  106OSM    C7S10838   5.582   2.718   9.830 -0.6511  0.8011 -0.6354
  106OSM    H7S10839   5.614   2.823   9.847  1.5405  0.1911 -0.6710
  106OSM    H7T10840   5.474   2.710   9.853 -0.8622  3.0907 -0.5846
  106OSM    C8S10841   5.606   2.705   9.677  0.5129 -0.6788 -0.3001
  106OSM    H8S10842   5.618   2.597   9.654 -0.8476 -1.2192  1.3653
  106OSM    H8T10843   5.707   2.749   9.661  0.1618  0.1916 -0.1444
  106OSM    C9S10844   5.501   2.780   9.598  0.1261 -0.1082 -0.2685
  106OSM    H9S10845   5.524   2.888   9.613  1.2630 -0.2092 -1.1606
  106OSM    H9T10846   5.408   2.745   9.646  0.4440  1.5476  1.7066
  106OSM   C10S10847   5.509   2.755   9.449 -0.6680  0.1522 -0.0070
  106OSM   H10S10848   5.468   2.656   9.420  0.5014 -0.3105 -0.1376
  106OSM   H10T10849   5.614   2.766   9.416 -0.3047 -1.5130  0.5238
  106OSM   C11S10850   5.433   2.869   9.365 -0.0456 -0.2788 -0.3755
  106OSM   H11S10851   5.469   2.965   9.409  1.8359 -1.2413  0.2857
  106OSM   H11T10852   5.322   2.860   9.373 -0.2330  1.4096 -0.6754
  106OSM   C12S10853   5.468   2.864   9.219  0.0175 -0.4379 -0.4962
  106OSM   H12S10854   5.438   2.768   9.173 -0.3028 -1.2192  1.2573
  106OSM   H12T10855   5.578   2.869   9.210  0.0759  0.7069  0.4777
  106OSM   C13S10856   5.407   2.981   9.143 -0.7350 -0.4734  1.1507
  106OSM   H13S10857   5.416   3.066   9.214  0.2152  3.0129 -2.7330
  106OSM   H13T10858   5.298   2.970   9.125 -1.1913  0.1877  3.1567
  106OSM   C14S10859   5.485   3.025   9.014  0.1658 -0.4463  0.0305
  106OSM   H14S10860   5.575   3.065   9.064  0.5885 -0.4122 -0.7407
  106OSM   H14T10861   5.445   3.111   8.955 -0.5333 -2.0081 -1.8797
  106OSM   C15S10862   5.528   2.912   8.917  0.3939  0.4865 -0.0605
  106OSM   H15S10863   5.444   2.878   8.851  1.2534  0.0245 -0.9431
  106OSM   H15T10864   5.558   2.825   8.980 -1.9189  0.9701  1.8783
  106OSM   C16S10865   5.643   2.965   8.827 -0.0871 -0.7349  0.0645
  106OSM   H16S10866   5.689   2.886   8.764 -0.2907 -1.6839  1.0767
  106OSM   H16T10867   5.731   3.001   8.884 -0.0824  1.3722 -1.1515
  106OSM   C17S10868   5.605   3.084   8.723 -0.0800 -0.2011  0.1792
  106OSM   H17S10869   5.613   3.176   8.784 -1.2196 -0.2509  0.4241
  106OSM   H17T10870   5.495   3.073   8.707 -0.5077 -0.4248  2.7547
  106OSM   C18S10871   5.690   3.095   8.593  0.6770  0.6034 -0.3832
  106OSM   H18S10872   5.801   3.089   8.596  0.5979 -1.0768  0.1806
  106OSM   H18T10873   5.655   3.180   8.531 -2.6197  0.5353  1.1296
  106OSM   H18U10874   5.654   3.005   8.540 -0.4219  0.7156  0.1435
  106OSM    C1F10875   5.778   3.071  10.252 -0.2571  0.2584  0.0365
  106OSM     OF10876   5.898   3.036  10.242 -0.3422 -0.5580  0.2375
  106OSM    C2F10877   5.745   3.215  10.284 -0.1743  0.1458  0.2149
  106OSM    H2F10878   5.809   3.243  10.370  1.1566 -1.3039 -0.2475
  106OSM    H2G10879   5.642   3.214  10.326 -0.3768 -2.2597 -0.1433
  106OSM    C3F10880   5.754   3.310  10.161 -0.0701 -1.1603 -0.2453
  106OSM    H3F10881   5.862   3.304  10.136  0.0078 -0.3845 -0.0957
  106OSM    H3G10882   5.727   3.413  10.191  1.3636 -0.9428  0.3842
  106OSM    C4F10883   5.659   3.272  10.044  0.3585 -0.2471 -0.0699
  106OSM    H4F10884   5.552   3.280  10.074  0.1805  1.1430 -1.0194
  106OSM    H4G10885   5.683   3.169  10.009  1.5213 -0.6614  1.7906
  106OSM    C5F10886   5.664   3.374   9.921 -0.0388  0.1033  0.3595
  106OSM    H5F10887   5.768   3.366   9.883  0.0252 -0.9503  0.7335
  106OSM    H5G10888   5.661   3.478   9.960  1.6885  1.8632 -3.6680
  106OSM    C6F10889   5.575   3.340   9.805 -0.7710  0.3616  0.5672
  106OSM    H6F10890   5.576   3.416   9.724 -0.0700 -0.1206  0.1066
  106OSM    H6G10891   5.471   3.326   9.843 -1.1877 -1.8302 -1.1460
  106OSM    C7F10892   5.608   3.204   9.731 -0.4945  0.2713  1.1243
  106OSM    H7F10893   5.521   3.143   9.699  1.7037 -1.6907 -1.5185
  106OSM    H7G10894   5.658   3.142   9.809  1.1210  1.0438  0.7365
  106OSM    C8F10895   5.694   3.227   9.606 -0.2030 -0.1628  0.2508
  106OSM    H8F10896   5.780   3.289   9.638  1.4391 -1.6077 -1.1090
  106OSM    H8G10897   5.635   3.279   9.527 -0.1513 -1.6758 -0.8300
  106OSM    C9F10898   5.734   3.094   9.558 -0.0869  0.2711 -0.1500
  106OSM    H9F10899   5.716   3.008   9.625  0.8669  1.2435  1.4249
  106OSM   C10F10900   5.787   3.071   9.439  0.3638 -0.0537 -0.4835
  106OSM   H10F10901   5.825   2.969   9.423  1.0026  0.1896 -0.5488
  106OSM   C11F10902   5.813   3.176   9.333  0.0135  0.4584  0.3878
  106OSM   H11F10903   5.762   3.273   9.351 -0.4786  0.2265  0.2652
  106OSM   H11G10904   5.768   3.149   9.236 -1.4407  0.6141  0.9973
  106OSM   C12F10905   5.965   3.208   9.325  0.1478 -0.3250 -0.1310
  106OSM   H12F10906   6.023   3.219   9.419 -0.2984  1.2618 -0.0012
  106OSM   H12G10907   5.965   3.300   9.262 -1.6494 -0.4262 -0.3406
  106OSM   C13F10908   6.036   3.094   9.243  0.6132  0.4499 -0.3569
  106OSM   H13F10909   6.000   3.090   9.138  0.5600 -0.9856 -0.2962
  106OSM   H13G10910   6.019   3.000   9.299  1.0017  2.0672  2.6628
  106OSM   C14F10911   6.188   3.121   9.241  0.1315 -0.2389 -0.5303
  106OSM   H14F10912   6.228   3.112   9.344 -1.2839  0.1265  0.0725
  106OSM   H14G10913   6.203   3.220   9.193 -3.7643  0.2919 -0.9689
  106OSM   C15F10914   6.268   3.025   9.151  0.0120 -0.1184 -0.3025
  106OSM   H15F10915   6.256   2.927   9.202 -0.2820 -0.3057 -0.7261
  106OSM   H15G10916   6.374   3.057   9.160 -0.2753  1.5881 -2.3318
  106OSM   C16F10917   6.245   3.026   9.005 -0.9305 -0.8295  0.6715
  106OSM   H16F10918   6.274   3.130   8.976  1.9251 -1.6769  0.2027
  106OSM   H16G10919   6.140   3.004   8.975 -0.4517  0.7016 -2.5912
  106OSM   C17F10920   6.322   2.933   8.912  0.0563 -0.0253  0.0521
  106OSM   H17F10921   6.292   2.827   8.930 -1.4711  0.4883  0.7237
  106OSM   H17G10922   6.430   2.945   8.930 -0.1633  4.0192 -0.5180
  106OSM   C18F10923   6.289   2.948   8.767 -0.0680  0.6496  0.0072
  106OSM   H18F10924   6.181   2.927   8.753  0.1191  0.1203 -0.7130
  106OSM   H18G10925   6.340   2.868   8.708  0.0628 -0.1343  1.1555
  106OSM   H18H10926   6.321   3.047   8.727 -0.8776  0.5128 -1.0097
  107OSM      N10927   0.214   0.403  11.045  0.2809 -0.6894  0.6123
  107OSM    C1510928   0.159   0.535  11.093  0.0052 -0.1199  0.5243
  107OSM   H15A10929   0.141   0.531  11.199  1.8873  1.1615  0.9371
  107OSM   H15B10930   0.065   0.565  11.050  0.2233  1.9944  1.4028
  107OSM   H15C10931   0.219   0.621  11.067  0.3423 -0.4226  0.2915
  107OSM    C1410932   0.325   0.356  11.132 -0.0886  0.6933  0.2874
  107OSM   H14A10933   0.333   0.250  11.112 -1.9873  0.5509  0.0590
  107OSM   H14B10934   0.295   0.369  11.235 -0.7356 -2.6133  0.6210
  107OSM   H14C10935   0.424   0.394  11.113 -1.0068  3.4630  0.6114
  107OSM    C1310936   0.105   0.296  11.061 -0.0159  0.5828  0.1992
  107OSM   H13A10937   0.069   0.291  11.163 -2.2378 -0.7785 -0.5927
  107OSM   H13B10938   0.137   0.200  11.025  1.3848  1.3371 -0.6641
  107OSM   H13C10939   0.020   0.322  11.000  0.4437 -1.6484 -1.5183
  107OSM    C1210940   0.257   0.434  10.899  0.2436  0.1451  0.5324
  107OSM   H12A10941   0.329   0.514  10.892  0.0482  0.3644  1.0274
  107OSM   H12B10942   0.169   0.473  10.850  0.8718 -0.0363 -0.7922
  107OSM    C1110943   0.309   0.313  10.815  0.6184 -1.0002  0.7799
  107OSM   H11A10944   0.409   0.280  10.849  1.1738  0.3107  0.4830
  107OSM   H11B10945   0.338   0.347  10.714 -1.2210  4.1439  1.6613
  107OSM      P10946   0.097   0.210  10.694  0.4367  0.0632  0.0665
  107OSM    O1310947   0.010   0.090  10.707 -0.0341 -0.6162  0.1691
  107OSM    O1410948   0.033   0.347  10.699 -0.2066 -0.0292 -0.6207
  107OSM    O1110949   0.189   0.182  10.571 -0.3066  0.1446 -0.2504
  107OSM    O1210950   0.209   0.204  10.810  0.9914  0.0897 -0.0744
  107OSM    C1S10951   0.263   0.067  10.551  0.2767  0.6996 -0.1786
  107OSM    H1S10952   0.211  -0.024  10.588  2.1092 -1.5138 -2.7458
  107OSM    H1T10953   0.369   0.088  10.578  0.2465 -0.2161  0.7212
  107OSM     NF10954   0.307  -0.079  10.357  0.9313  0.6049 -0.5484
  107OSM    HNF10955   0.402  -0.110  10.346  0.1679 -1.7867 -1.0012
  107OSM    C2S10956   0.276   0.055  10.396 -0.4581 -0.2948 -0.1331
  107OSM    H2S10957   0.179   0.084  10.351 -0.4563  2.5658  1.4520
  107OSM    C3S10958   0.379   0.159  10.348 -0.1847  0.4376 -0.3315
  107OSM    H3S10959   0.479   0.128  10.385 -0.6003 -0.9266 -0.2959
  107OSM     O310960   0.380   0.293  10.406  0.4629 -0.1980 -0.3812
  107OSM    HO310961   0.325   0.278  10.484  0.1789 -0.0844 -0.5596
  107OSM    C4S10962   0.383   0.166  10.199 -0.2988  0.0506  0.2355
  107OSM    H4S10963   0.401   0.066  10.158  0.8825  0.5649 -0.5604
  107OSM    C5S10964   0.359   0.270  10.111 -0.0080 -0.0554  0.0319
  107OSM    H5S10965   0.317   0.362  10.153  0.0554 -1.6134  3.9972
  107OSM    C6S10966   0.362   0.252   9.963  0.3761  0.0816  0.9258
  107OSM    H6S10967   0.446   0.307   9.915 -0.5219  0.9148  0.2806
  107OSM    H6T10968   0.260   0.279   9.928 -0.1153 -1.0454  1.4336
  107OSM    C7S10969   0.374   0.103   9.899 -0.4440 -0.3545  0.0862
  107OSM    H7S10970   0.304   0.041   9.959 -0.3727 -0.5975 -0.0799
  107OSM    H7T10971   0.479   0.074   9.923 -0.3748 -0.6101 -0.5300
  107OSM    C8S10972   0.336   0.095   9.754 -0.5070  0.1049 -0.4413
  107OSM    H8S10973   0.230   0.129   9.750 -0.7999 -0.8838 -2.1923
  107OSM    H8T10974   0.339  -0.010   9.716  1.1147 -0.1436  0.3186
  107OSM    C9S10975   0.425   0.178   9.658  0.2091 -0.4614  0.5036
  107OSM    H9S10976   0.524   0.129   9.645 -0.8688 -2.5310 -0.3852
  107OSM    H9T10977   0.447   0.279   9.697 -2.6652 -0.0916  1.3964
  107OSM   C10S10978   0.355   0.193   9.523 -0.6792 -0.3368 -0.0426
  107OSM   H10S10979   0.427   0.240   9.453  1.1458 -0.2844  1.7808
  107OSM   H10T10980   0.271   0.263   9.542 -2.7187 -2.8470  0.7007
  107OSM   C11S10981   0.306   0.067   9.460  0.3059 -0.6960 -0.3199
  107OSM   H11S10982   0.211   0.040   9.510  0.6076 -0.2383  0.5079
  107OSM   H11T10983   0.385  -0.010   9.478 -1.2641 -2.5823 -1.1622
  107OSM   C12S10984   0.285   0.080   9.309 -0.1076  0.0509 -0.5456
  107OSM   H12S10985   0.371   0.133   9.264  1.2259 -1.8498 -0.3848
  107OSM   H12T10986   0.183   0.122   9.295 -0.7695 -0.9685  0.9536
  107OSM   C13S10987   0.271  -0.056   9.234 -0.0061 -0.3899 -0.3626
  107OSM   H13S10988   0.199  -0.119   9.290  0.3417 -0.7149 -0.2771
  107OSM   H13T10989   0.361  -0.118   9.216  0.3618  0.5128 -1.8212
  107OSM   C14S10990   0.207  -0.032   9.097 -0.5013 -0.7002 -0.1645
  107OSM   H14S10991   0.153   0.063   9.115  1.7600  0.0342  4.1988
  107OSM   H14T10992   0.141  -0.117   9.069 -0.3013 -0.3779 -1.6644
  107OSM   C15S10993   0.305  -0.020   8.982 -0.0989 -0.0907 -0.4704
  107OSM   H15S10994   0.356  -0.118   8.981 -0.9708 -0.6412  1.9179
  107OSM   H15T10995   0.383   0.058   8.999 -0.9888  1.2532 -2.2631
  107OSM   C16S10996   0.233   0.005   8.844  0.2045  0.3644 -0.1082
  107OSM   H16S10997   0.128  -0.031   8.847 -0.1568  1.4579  1.1097
  107OSM   H16T10998   0.292  -0.048   8.766 -1.2338  1.2904 -1.9002
  107OSM   C17S10999   0.222   0.155   8.800  0.1034  0.6585  0.2265
  107OSM   H17S11000   0.324   0.188   8.827  1.0035 -0.6704 -1.3646
  107OSM   H17T11001   0.139   0.193   8.863 -0.9317 -0.5934 -0.3189
  107OSM   C18S11002   0.195   0.187   8.654  0.6888 -0.2526 -0.1622
  107OSM   H18S11003   0.170   0.293   8.631  1.2975  0.0571  0.5745
  107OSM   H18T11004   0.114   0.121   8.616 -2.1844  1.4749  2.5114
  107OSM   H18U11005   0.291   0.170   8.600  0.9949  0.8518  0.0103
  107OSM    C1F11006   0.218  -0.172  10.361 -0.5251 -0.2048 -0.6857
  107OSM     OF11007   0.100  -0.145  10.380 -0.0073  0.0882  1.1516
  107OSM    C2F11008   0.263  -0.315  10.357 -0.8712  0.9052 -0.1272
  107OSM    H2F11009   0.207  -0.371  10.435 -2.0525 -0.8744 -2.1185
  107OSM    H2G11010   0.372  -0.324  10.372 -0.8521  1.0831 -0.1624
  107OSM    C3F11011   0.219  -0.382  10.228 -0.3420  0.6704 -0.1690
  107OSM    H3F11012   0.110  -0.369  10.215 -0.0204  2.2935 -1.6266
  107OSM    H3G11013   0.240  -0.488  10.255 -0.9233  0.2305 -1.3776
  107OSM    C4F11014   0.290  -0.350  10.097  0.1828  0.0993  0.4839
  107OSM    H4F11015   0.401  -0.337  10.101  0.1720  0.1944  0.4641
  107OSM    H4G11016   0.256  -0.256  10.049  1.4934 -0.3829 -1.5428
  107OSM    C5F11017   0.258  -0.467   9.992 -0.2830 -0.5313 -0.1671
  107OSM    H5F11018   0.148  -0.467   9.978 -0.2269 -1.7909 -0.7548
  107OSM    H5G11019   0.304  -0.562  10.027 -0.4251 -0.0700  1.3392
  107OSM    C6F11020   0.321  -0.445   9.849  0.6500 -0.2436 -0.1551
  107OSM    H6F11021   0.290  -0.534   9.791  0.1619 -1.1124  1.3805
  107OSM    H6G11022   0.432  -0.436   9.849  0.6643 -0.2870 -1.3250
  107OSM    C7F11023   0.257  -0.321   9.783 -0.3403  0.1247  0.4286
  107OSM    H7F11024   0.301  -0.222   9.807 -1.1256  0.3170  1.1319
  107OSM    H7G11025   0.158  -0.310   9.834  0.8746  1.6829  2.5951
  107OSM    C8F11026   0.235  -0.331   9.632 -0.6386  0.0768 -0.2594
  107OSM    H8F11027   0.154  -0.259   9.607 -0.8559  0.2356  0.8524
  107OSM    H8G11028   0.198  -0.433   9.608  0.1922  0.3755 -3.0846
  107OSM    C9F11029   0.356  -0.307   9.546 -0.8246 -0.0134 -0.2530
  107OSM    H9F11030   0.418  -0.221   9.576  0.1462 -0.8195  0.0985
  107OSM   C10F11031   0.399  -0.387   9.449  0.3969 -0.4453 -0.3158
  107OSM   H10F11032   0.480  -0.350   9.384 -1.4966  1.8974 -1.5333
  107OSM   C11F11033   0.343  -0.522   9.408 -0.0239  0.1643 -0.5116
  107OSM   H11F11034   0.245  -0.540   9.458 -0.8689  2.5758 -1.1637
  107OSM   H11G11035   0.399  -0.612   9.442 -1.9164 -0.8378  0.1069
  107OSM   C12F11036   0.320  -0.531   9.260  0.5308 -0.3219  0.1108
  107OSM   H12F11037   0.394  -0.468   9.206  0.3868  1.0051  1.3807
  107OSM   H12G11038   0.223  -0.481   9.238  0.5320 -1.8762 -4.4880
  107OSM   C13F11039   0.317  -0.671   9.214 -0.4298  0.5195  0.3465
  107OSM   H13F11040   0.230  -0.721   9.262 -1.3334  1.1079 -0.6391
  107OSM   H13G11041   0.410  -0.718   9.251 -0.9485  1.2171  2.6694
  107OSM   C14F11042   0.310  -0.677   9.058 -0.1934 -0.1458 -0.6249
  107OSM   H14F11043   0.243  -0.592   9.033 -0.5019  0.3758  1.7371
  107OSM   H14G11044   0.255  -0.767   9.022 -0.7486 -0.1897  0.2897
  107OSM   C15F11045   0.448  -0.671   8.994 -0.6479  0.3648 -0.2737
  107OSM   H15F11046   0.509  -0.755   9.036 -2.3771 -0.2358  1.1615
  107OSM   H15G11047   0.486  -0.569   9.016  1.2691 -0.1950 -0.7566
  107OSM   C16F11048   0.443  -0.692   8.841  0.2906 -0.2145 -0.5163
  107OSM   H16F11049   0.394  -0.789   8.819 -1.5284  0.5140  0.1539
  107OSM   H16G11050   0.541  -0.693   8.789  1.3738 -1.6512  1.4206
  107OSM   C17F11051   0.331  -0.605   8.789  0.7986  0.5712  0.2696
  107OSM   H17F11052   0.327  -0.503   8.834  0.9272 -0.0051  1.6373
  107OSM   H17G11053   0.231  -0.651   8.800  0.9916  0.2083  0.5214
  107OSM   C18F11054   0.344  -0.584   8.636  1.0363 -0.1708  0.5199
  107OSM   H18F11055   0.272  -0.502   8.614  0.6110 -0.5886  0.3152
  107OSM   H18G11056   0.314  -0.680   8.589  0.1580  1.5114 -2.6892
  107OSM   H18H11057   0.446  -0.567   8.597  0.7233 -0.9887 -0.7399
  108OSM      N11058   2.211   5.310  10.941 -0.1378 -0.3233  0.0157
  108OSM    C1511059   2.106   5.221  11.009  0.0758 -0.4027 -0.0648
  108OSM   H15A11060   2.156   5.160  11.083  0.6575 -0.1503 -0.2429
  108OSM   H15B11061   2.056   5.160  10.936 -1.5062  1.1641 -0.3679
  108OSM   H15C11062   2.028   5.276  11.060  1.0835 -0.2620  1.4117
  108OSM    C1411063   2.136   5.374  10.826 -1.1996 -0.4605  0.3698
  108OSM   H14A11064   2.128   5.300  10.749 -0.1765 -2.5589  2.1727
  108OSM   H14B11065   2.192   5.460  10.793 -1.1233 -0.8350 -0.4739
  108OSM   H14C11066   2.039   5.413  10.854 -0.2492  1.0463  1.7974
  108OSM    C1311067   2.248   5.422  11.038 -1.1156  0.3239 -0.2952
  108OSM   H13A11068   2.165   5.481  11.073 -2.6813 -2.6368  1.3570
  108OSM   H13B11069   2.321   5.488  10.993  1.5890 -0.4704  2.6003
  108OSM   H13C11070   2.302   5.372  11.117  0.0481 -1.3071 -2.0271
  108OSM    C1211071   2.335   5.222  10.899 -0.6250 -0.8581 -0.2201
  108OSM   H12A11072   2.372   5.172  10.987 -1.4307 -0.7540  0.1893
  108OSM   H12B11073   2.420   5.284  10.875 -0.7919 -0.7507 -0.5335
  108OSM    C1111074   2.322   5.126  10.786 -0.1080 -0.0916  0.8746
  108OSM   H11A11075   2.238   5.058  10.811  0.5321 -0.9522  0.7482
  108OSM   H11B11076   2.409   5.058  10.773  0.6975  1.1604 -0.6150
  108OSM      P11077   2.420   5.265  10.590 -0.0676  0.5057 -0.2599
  108OSM    O1311078   2.370   5.338  10.468 -0.0411  0.1406  0.0517
  108OSM    O1411079   2.498   5.344  10.688  0.2216 -0.1325  0.4530
  108OSM    O1111080   2.515   5.142  10.537  0.6076  0.2371  0.5686
  108OSM    O1211081   2.299   5.199  10.670  0.0285 -0.1510  0.5627
  108OSM    C1S11082   2.460   5.051  10.437  0.1776 -0.7648  0.0683
  108OSM    H1S11083   2.350   5.059  10.428  0.2150  0.6472  0.6098
  108OSM    H1T11084   2.482   4.944  10.459 -0.7075 -1.1322 -0.7834
  108OSM     NF11085   2.484   4.960  10.218 -0.0356  0.0494  0.5321
  108OSM    HNF11086   2.562   4.905  10.188  2.0020  0.6735  4.1471
  108OSM    C2S11087   2.529   5.078  10.303 -0.0281  0.3597 -0.4618
  108OSM    H2S11088   2.491   5.173  10.259  1.2691 -0.5476 -3.8066
  108OSM    C3S11089   2.687   5.078  10.319 -0.4034  0.1800 -0.8910
  108OSM    H3S11090   2.710   4.976  10.356  0.2210  0.1793 -1.2800
  108OSM     O311091   2.735   5.176  10.411  0.0626 -0.4757 -0.1820
  108OSM    HO311092   2.657   5.197  10.463 -0.4725  1.0811 -1.5313
  108OSM    C4S11093   2.760   5.089  10.189 -0.0260  0.4262 -0.0422
  108OSM    H4S11094   2.785   4.995  10.138  0.5378 -0.2927  1.4927
  108OSM    C5S11095   2.778   5.203  10.117 -0.3187 -0.6537  0.3562
  108OSM    H5S11096   2.745   5.302  10.153  1.1243 -0.4937  1.2873
  108OSM    C6S11097   2.851   5.221   9.987 -0.2218  0.1037 -0.3894
  108OSM    H6S11098   2.948   5.271  10.009 -0.3934 -0.7876  3.0282
  108OSM    H6T11099   2.790   5.296   9.933  0.4440  1.9722  1.3232
  108OSM    C7S11100   2.876   5.089   9.912 -0.1344 -0.1221  0.2591
  108OSM    H7S11101   2.779   5.033   9.905  0.7637 -1.8459  0.9275
  108OSM    H7T11102   2.953   5.033   9.969 -0.9000 -1.6329 -0.1252
  108OSM    C8S11103   2.913   5.101   9.764 -0.3493  0.3695 -1.0285
  108OSM    H8S11104   2.940   5.001   9.723 -1.0052 -0.3230  0.1666
  108OSM    H8T11105   3.008   5.159   9.752 -1.6922  2.3593 -2.7679
  108OSM    C9S11106   2.807   5.163   9.674  0.1137 -0.3239  0.6963
  108OSM    H9S11107   2.794   5.273   9.690 -0.6133 -0.4443  0.9887
  108OSM    H9T11108   2.706   5.116   9.681  0.4287 -1.1591 -0.1949
  108OSM   C10S11109   2.856   5.154   9.526 -0.3833  0.0843  0.0928
  108OSM   H10S11110   2.911   5.061   9.498  1.1998 -0.0003  3.0208
  108OSM   H10T11111   2.928   5.238   9.521 -2.2472  1.6957 -1.0335
  108OSM   C11S11112   2.743   5.182   9.431 -0.2712  0.3425  0.5257
  108OSM   H11S11113   2.715   5.288   9.447 -0.4194  0.2826  0.6637
  108OSM   H11T11114   2.656   5.117   9.451 -1.6190  1.4585 -1.3930
  108OSM   C12S11115   2.771   5.159   9.277 -0.8302  0.2345 -0.0375
  108OSM   H12S11116   2.679   5.177   9.217  0.3386 -1.9145 -2.7047
  108OSM   H12T11117   2.803   5.055   9.256 -1.2341  0.1932 -0.4703
  108OSM   C13S11118   2.880   5.247   9.219 -0.4808  0.0496  0.4052
  108OSM   H13S11119   2.975   5.233   9.274 -0.9547 -0.7434  1.0464
  108OSM   H13T11120   2.866   5.356   9.238 -0.8656 -0.1491  1.2886
  108OSM   C14S11121   2.905   5.226   9.063  0.0673  0.2423 -0.3608
  108OSM   H14S11122   2.977   5.302   9.026  0.4116 -0.0419 -0.2708
  108OSM   H14T11123   2.812   5.256   9.008 -0.7950 -0.0949  0.8733
  108OSM   C15S11124   2.945   5.092   9.011  0.5496  0.2468  1.0117
  108OSM   H15S11125   2.976   5.039   9.104 -0.4509  1.1139  1.8643
  108OSM   H15T11126   3.030   5.111   8.942  0.4164  1.1662  1.0807
  108OSM   C16S11127   2.827   5.018   8.944  0.7315  0.0083  0.1841
  108OSM   H16S11128   2.731   5.030   8.999  0.8667  2.3774  0.0267
  108OSM   H16T11129   2.855   4.912   8.928  3.2038  0.8698 -2.0964
  108OSM   C17S11130   2.785   5.068   8.799 -0.2489  0.0909 -0.5365
  108OSM   H17S11131   2.867   5.058   8.724  0.2081 -2.3451  0.1956
  108OSM   H17T11132   2.767   5.177   8.811  0.6714  0.0508  1.6942
  108OSM   C18S11133   2.662   5.002   8.745 -0.7189  0.2345  1.1264
  108OSM   H18S11134   2.596   4.967   8.828  0.0972 -1.5218  1.0726
  108OSM   H18T11135   2.696   4.919   8.680  1.1120  2.2686 -0.6606
  108OSM   H18U11136   2.596   5.061   8.677 -0.4325 -1.4588 -0.7235
  108OSM    C1F11137   2.359   4.931  10.176 -0.6784  0.5825  0.1860
  108OSM     OF11138   2.263   5.007  10.191  0.1753  0.2727  0.1875
  108OSM    C2F11139   2.339   4.801  10.113  0.5583 -0.2112 -0.0718
  108OSM    H2F11140   2.243   4.764  10.155  1.0406 -1.6083 -0.1559
  108OSM    H2G11141   2.412   4.721  10.136 -0.3880 -0.8999  0.6608
  108OSM    C3F11142   2.333   4.820   9.962  0.3168  0.6348  0.2643
  108OSM    H3F11143   2.260   4.897   9.928  0.0829 -0.4797 -1.9106
  108OSM    H3G11144   2.295   4.725   9.920  0.5986  0.8925 -0.6242
  108OSM    C4F11145   2.466   4.865   9.901 -0.2858  0.2200  0.0990
  108OSM    H4F11146   2.540   4.783   9.908 -0.9432 -0.6722 -2.2956
  108OSM    H4G11147   2.500   4.951   9.962 -0.2091  0.5978 -0.4711
  108OSM    C5F11148   2.460   4.912   9.754  0.7843  0.3053 -0.8567
  108OSM    H5F11149   2.547   4.973   9.724  1.8984 -1.8106 -2.1987
  108OSM    H5G11150   2.370   4.975   9.737  0.8011  0.1973 -1.3532
  108OSM    C6F11151   2.453   4.793   9.659  0.2811 -0.8066  0.2388
  108OSM    H6F11152   2.375   4.725   9.700  0.2140  0.1666  1.8016
  108OSM    H6G11153   2.541   4.725   9.663  0.7805 -0.2885 -1.0869
  108OSM    C7F11154   2.423   4.823   9.505  0.2027 -0.8406  0.1852
  108OSM    H7F11155   2.500   4.893   9.466 -0.0836 -1.7003 -2.0589
  108OSM    H7G11156   2.326   4.876   9.513  0.5048 -0.5358  2.8990
  108OSM    C8F11157   2.409   4.696   9.418  0.1979  0.7434  0.2605
  108OSM    H8F11158   2.388   4.723   9.313  0.2528 -0.2975 -0.0310
  108OSM    H8G11159   2.325   4.633   9.454  0.4978  0.0746 -0.2040
  108OSM    C9F11160   2.528   4.606   9.424 -0.2888 -0.0840 -0.3204
  108OSM    H9F11161   2.519   4.510   9.476 -2.2333 -0.4343 -1.2050
  108OSM   C10F11162   2.642   4.630   9.349 -0.3326  0.0059 -0.1578
  108OSM   H10F11163   2.729   4.565   9.370  0.4115  1.6581  2.4492
  108OSM   C11F11164   2.680   4.754   9.261 -0.1459 -0.5631 -0.6948
  108OSM   H11F11165   2.788   4.762   9.238 -0.3628  0.2118 -1.5102
  108OSM   H11G11166   2.644   4.845   9.313 -0.8715 -1.0018 -0.4068
  108OSM   C12F11167   2.622   4.747   9.124  0.0104  0.1533  0.0729
  108OSM   H12F11168   2.651   4.844   9.079  1.6755  0.2295  1.1986
  108OSM   H12G11169   2.512   4.737   9.132  0.0658 -3.0658 -1.5942
  108OSM   C13F11170   2.690   4.638   9.039 -0.2158 -0.4582 -0.2025
  108OSM   H13F11171   2.686   4.534   9.079 -0.3143 -1.1552 -1.9594
  108OSM   H13G11172   2.798   4.667   9.037  0.4810 -2.8486 -0.2068
  108OSM   C14F11173   2.665   4.613   8.890  0.0676  0.1506  0.5788
  108OSM   H14F11174   2.674   4.710   8.838 -2.6433  0.2261  0.1247
  108OSM   H14G11175   2.562   4.570   8.882  0.6299 -0.9264 -1.7754
  108OSM   C15F11176   2.784   4.523   8.834  0.3344  0.2856 -0.7364
  108OSM   H15F11177   2.787   4.424   8.884  1.9197  1.0901  0.8684
  108OSM   H15G11178   2.886   4.553   8.866 -0.2337  1.8004 -0.2649
  108OSM   C16F11179   2.773   4.497   8.682 -0.3038  0.6113 -0.1426
  108OSM   H16F11180   2.785   4.593   8.628  0.7558  1.0017  0.7559
  108OSM   H16G11181   2.666   4.471   8.664 -0.5842  0.9054  0.9916
  108OSM   C17F11182   2.879   4.397   8.616  0.2830 -0.2449  0.2226
  108OSM   H17F11183   2.861   4.304   8.675 -0.4320 -0.7219 -0.7156
  108OSM   H17G11184   2.982   4.432   8.635  1.0250 -2.1491 -0.0754
  108OSM   C18F11185   2.853   4.368   8.474  0.1525 -0.5373  0.2692
  108OSM   H18F11186   2.866   4.458   8.410 -3.4604 -0.6727 -0.8605
  108OSM   H18G11187   2.750   4.337   8.447  1.3798 -3.9519 -1.0542
  108OSM   H18H11188   2.928   4.291   8.445 -0.0782 -1.4130  1.8858
  109OSM      N11189   4.241   4.960  10.861 -0.2213  0.2274  0.4107
  109OSM    C1511190   4.259   4.818  10.887 -0.5444  0.3001 -0.2344
  109OSM   H15A11191   4.354   4.806  10.937  0.5836  3.0692 -1.5357
  109OSM   H15B11192   4.242   4.761  10.797  0.0590  1.1036 -0.8691
  109OSM   H15C11193   4.193   4.787  10.967  0.4406  1.1621  0.9691
  109OSM    C1411194   4.221   5.016  10.995 -0.3334  0.1019 -0.2274
  109OSM   H14A11195   4.140   4.964  11.043 -0.9076  1.3588  0.2311
  109OSM   H14B11196   4.196   5.122  10.998 -1.9937 -0.2447 -0.5442
  109OSM   H14C11197   4.300   5.005  11.067 -2.0217  1.2204  1.9528
  109OSM    C1311198   4.363   5.011  10.797 -0.5374  0.2201 -0.0860
  109OSM   H13A11199   4.368   4.974  10.696  2.2147 -0.2212  0.1300
  109OSM   H13B11200   4.448   4.977  10.854 -1.2050  0.2905  0.9825
  109OSM   H13C11201   4.359   5.119  10.795 -1.7595  0.2258  0.8792
  109OSM    C1211202   4.118   4.998  10.777 -0.5698 -0.3104 -0.4426
  109OSM   H12A11203   4.120   5.106  10.777  0.1673 -0.3182 -1.3211
  109OSM   H12B11204   4.029   4.960  10.825 -1.0868  0.1754 -0.9916
  109OSM    C1111205   4.129   4.946  10.629 -0.1939  0.3172  0.0605
  109OSM   H11A11206   4.026   4.952  10.587  0.6741  0.1938 -2.2245
  109OSM   H11B11207   4.157   4.839  10.620 -1.0306 -0.1602  2.4454
  109OSM      P11208   4.206   5.179  10.511  0.5260 -0.0135 -0.1111
  109OSM    O1311209   4.068   5.205  10.464  0.4894 -0.5127  0.0248
  109OSM    O1411210   4.259   5.260  10.622  0.0488 -0.3226  0.2616
  109OSM    O1111211   4.301   5.186  10.386  0.5019 -0.0863  0.0878
  109OSM    O1211212   4.215   5.028  10.546  0.2025  0.4965 -0.3850
  109OSM    C1S11213   4.331   5.083  10.299 -0.2131  0.3647 -0.7558
  109OSM    H1S11214   4.237   5.032  10.270  0.4894 -0.5460 -1.4867
  109OSM    H1T11215   4.412   5.020  10.343 -1.1814  1.0739  2.3326
  109OSM     NF11216   4.435   5.026  10.079  0.3284  0.0489 -0.0719
  109OSM    HNF11217   4.529   4.991  10.083  0.8209  1.3117 -0.1101
  109OSM    C2S11218   4.391   5.134  10.163 -0.5572 -0.8943  0.2116
  109OSM    H2S11219   4.303   5.175  10.110  0.1367 -1.6414 -1.5954
  109OSM    C3S11220   4.505   5.237  10.180 -0.2349  0.3208  0.3970
  109OSM    H3S11221   4.589   5.183  10.228  0.5183  0.9319 -0.2005
  109OSM     O311222   4.473   5.341  10.271  0.0091 -0.3025 -0.1122
  109OSM    HO311223   4.409   5.294  10.325 -0.0672 -0.2157 -0.1265
  109OSM    C4S11224   4.556   5.287  10.052  0.3176 -0.6473 -0.4216
  109OSM    H4S11225   4.655   5.243  10.031  1.2192  0.4952  1.2045
  109OSM    C5S11226   4.482   5.359   9.969 -0.9265 -0.2164  0.3615
  109OSM    H5S11227   4.385   5.395  10.005 -0.5353  0.6336  0.5949
  109OSM    C6S11228   4.512   5.413   9.830 -0.4010  1.1746  0.3015
  109OSM    H6S11229   4.533   5.522   9.837 -0.7108  1.2545  0.0118
  109OSM    H6T11230   4.432   5.403   9.753 -0.5620 -0.6174  0.6500
  109OSM    C7S11231   4.639   5.351   9.755  0.7594 -0.7137  0.2111
  109OSM    H7S11232   4.731   5.388   9.806 -1.0210  1.0901  2.3223
  109OSM    H7T11233   4.637   5.390   9.651  1.1891  2.9763  1.4375
  109OSM    C8S11234   4.628   5.199   9.735 -0.9017  0.4988  0.1857
  109OSM    H8S11235   4.526   5.178   9.697 -0.5890  0.5295 -0.7009
  109OSM    H8T11236   4.631   5.151   9.836 -1.7113 -0.0235 -0.0259
  109OSM    C9S11237   4.743   5.144   9.646 -0.0123  0.1479  0.3364
  109OSM    H9S11238   4.749   5.208   9.555  3.0322 -2.3910 -1.4829
  109OSM    H9T11239   4.713   5.041   9.618  0.8436 -0.5222  1.7822
  109OSM   C10S11240   4.878   5.149   9.718 -0.3006  0.4215 -1.0310
  109OSM   H10S11241   4.868   5.085   9.808 -0.1054  1.1941 -0.4429
  109OSM   H10T11242   4.892   5.253   9.755  0.8565 -0.6401  1.7831
  109OSM   C11S11243   4.993   5.100   9.634  0.7419 -1.0317 -0.3541
  109OSM   H11S11244   5.094   5.114   9.680  0.6753 -1.6271 -0.0230
  109OSM   H11T11245   4.997   5.163   9.543  1.4684 -1.3531 -0.5526
  109OSM   C12S11246   4.992   4.954   9.606  0.0895  0.0095 -0.2633
  109OSM   H12S11247   5.093   4.917   9.581  0.5791  0.0483  1.4900
  109OSM   H12T11248   4.915   4.945   9.526 -0.4878 -0.0797  0.2923
  109OSM   C13S11249   4.948   4.862   9.721  0.0860 -0.2612 -0.8237
  109OSM   H13S11250   4.838   4.877   9.726 -0.3195 -2.9493  0.2255
  109OSM   H13T11251   5.002   4.883   9.816 -0.3277  0.6492 -0.7832
  109OSM   C14S11252   4.971   4.711   9.683  0.0586  0.1637  0.2290
  109OSM   H14S11253   5.077   4.697   9.651  0.9556  1.4197  2.4154
  109OSM   H14T11254   4.908   4.695   9.593  0.4995  4.6667 -1.1479
  109OSM   C15S11255   4.920   4.610   9.794  0.0497 -0.0365 -0.1366
  109OSM   H15S11256   4.902   4.508   9.754 -2.1263  0.8967 -1.7040
  109OSM   H15T11257   4.821   4.645   9.829 -0.2623 -0.3319 -0.7235
  109OSM   C16S11258   5.013   4.618   9.921 -0.1704  0.2156  0.0714
  109OSM   H16S11259   5.022   4.724   9.952 -1.4955  0.7078 -1.0971
  109OSM   H16T11260   5.112   4.584   9.884  0.8809  2.0158  1.1007
  109OSM   C17S11261   4.957   4.526  10.030 -0.4284 -0.4078  0.5907
  109OSM   H17S11262   5.048   4.474  10.068 -0.3538  1.0389  2.5275
  109OSM   H17T11263   4.884   4.454   9.988 -0.4415 -0.3515  0.5147
  109OSM   C18S11264   4.907   4.611  10.154 -1.0061 -0.9154 -0.6740
  109OSM   H18S11265   4.805   4.652  10.136 -1.3022 -0.0402  2.3914
  109OSM   H18T11266   4.983   4.687  10.183 -0.5262 -0.2650 -3.4069
  109OSM   H18U11267   4.895   4.542  10.240 -1.0453 -0.6474 -0.4619
  109OSM    C1F11268   4.345   4.950  10.011 -0.0415  0.0024 -0.2535
  109OSM     OF11269   4.225   4.970  10.033  0.4033  0.2548 -0.2103
  109OSM    C2F11270   4.387   4.839   9.927 -0.7812 -0.0320 -0.7773
  109OSM    H2F11271   4.397   4.747   9.990  0.6017  0.4006 -0.3308
  109OSM    H2G11272   4.489   4.868   9.892 -0.0495  0.1566  1.3341
  109OSM    C3F11273   4.286   4.805   9.817  1.1125 -0.3899  0.2861
  109OSM    H3F11274   4.257   4.895   9.759  2.5419  1.1148  1.8047
  109OSM    H3G11275   4.194   4.754   9.851  1.6547 -2.8943 -1.6682
  109OSM    C4F11276   4.342   4.708   9.709 -0.5788  1.0745 -1.0972
  109OSM    H4F11277   4.284   4.733   9.617 -0.1471  3.4797 -0.7778
  109OSM    H4G11278   4.340   4.601   9.736  1.3343  0.5616 -2.7769
  109OSM    C5F11279   4.481   4.748   9.663 -0.5372  0.0012 -0.7141
  109OSM    H5F11280   4.548   4.734   9.750 -0.6287  0.6227 -0.5394
  109OSM    H5G11281   4.480   4.857   9.638  0.8068  0.4790  1.1451
  109OSM    C6F11282   4.520   4.672   9.531  0.5690 -0.2104  0.0914
  109OSM    H6F11283   4.608   4.719   9.482  0.0714  0.6571  0.0087
  109OSM    H6G11284   4.433   4.677   9.462  0.2990  0.5812  0.4758
  109OSM    C7F11285   4.550   4.523   9.562 -0.8504 -0.7552  0.3155
  109OSM    H7F11286   4.456   4.466   9.580 -0.8290 -0.1042  2.6830
  109OSM    H7G11287   4.604   4.506   9.657 -0.7816 -0.4858  0.3260
  109OSM    C8F11288   4.641   4.450   9.457  0.1373  0.5165 -1.0231
  109OSM    H8F11289   4.579   4.458   9.366 -1.1629  1.1164 -0.1184
  109OSM    H8G11290   4.645   4.345   9.493 -2.4930  0.6134 -0.2488
  109OSM    C9F11291   4.774   4.501   9.432  0.3107  0.6588 -0.2000
  109OSM    H9F11292   4.842   4.475   9.514 -1.3878 -1.1310  0.7246
  109OSM   C10F11293   4.810   4.557   9.319  0.1272  0.1545  0.4316
  109OSM   H10F11294   4.916   4.577   9.301  0.9795 -1.1448  3.3505
  109OSM   C11F11295   4.722   4.587   9.200  0.7206 -0.3495 -0.0852
  109OSM   H11F11296   4.619   4.609   9.236  0.6951  1.1672 -1.0308
  109OSM   H11G11297   4.705   4.499   9.133 -0.8266  0.2708 -0.5419
  109OSM   C12F11298   4.761   4.707   9.120 -0.2028 -0.4246  0.2799
  109OSM   H12F11299   4.862   4.688   9.079  0.0191  1.3872 -0.1092
  109OSM   H12G11300   4.760   4.799   9.182 -0.0586 -0.4644  0.3430
  109OSM   C13F11301   4.666   4.753   9.003 -0.4139 -0.3692 -0.1849
  109OSM   H13F11302   4.564   4.757   9.046 -0.5099 -1.7514 -0.2203
  109OSM   H13G11303   4.654   4.680   8.919 -1.9813  2.4428 -2.6018
  109OSM   C14F11304   4.700   4.895   8.957 -0.5181  0.8143  0.4749
  109OSM   H14F11305   4.808   4.893   8.932 -0.8898  1.8011 -1.4253
  109OSM   H14G11306   4.692   4.965   9.043 -0.9831 -1.9595  2.8584
  109OSM   C15F11307   4.633   4.942   8.828 -0.1288 -0.2708 -0.1215
  109OSM   H15F11308   4.523   4.952   8.839  0.0090  0.2607  0.9180
  109OSM   H15G11309   4.663   4.873   8.746  1.4906 -0.2143  0.3859
  109OSM   C16F11310   4.685   5.081   8.797  0.3429 -0.0974 -0.5176
  109OSM   H16F11311   4.796   5.084   8.792  0.4961 -0.2180  1.7543
  109OSM   H16G11312   4.662   5.156   8.876 -0.6121 -0.5990 -0.3009
  109OSM   C17F11313   4.629   5.122   8.658  0.3179  0.2051 -0.3308
  109OSM   H17F11314   4.526   5.081   8.650 -0.2262  1.5437 -0.3368
  109OSM   H17G11315   4.687   5.066   8.581  1.6039 -1.4530  1.7237
  109OSM   C18F11316   4.625   5.278   8.631  0.2504  0.0424 -0.6976
  109OSM   H18F11317   4.580   5.324   8.721  0.4837 -0.7184 -0.1784
  109OSM   H18G11318   4.562   5.299   8.542 -0.5862  1.1609  0.1301
  109OSM   H18H11319   4.729   5.307   8.605 -0.5005  2.1359 -1.5969
  110OSM      N11320   4.500   4.220  10.831 -0.6470 -0.1012 -1.1563
  110OSM    C1511321   4.492   4.355  10.906 -0.0310  0.3246  0.8521
  110OSM   H15A11322   4.450   4.428  10.837 -2.3651  0.0956  1.9399
  110OSM   H15B11323   4.590   4.386  10.940  1.4680 -1.0321 -1.8731
  110OSM   H15C11324   4.408   4.356  10.973  0.0326  0.9810  0.9309
  110OSM    C1411325   4.623   4.218  10.742  0.1936 -0.1915 -0.1342
  110OSM   H14A11326   4.630   4.135  10.674 -2.4804  0.0759 -0.8347
  110OSM   H14B11327   4.718   4.220  10.795 -0.7359 -1.0546  1.6693
  110OSM   H14C11328   4.631   4.304  10.678 -2.2557  1.3956  1.5171
  110OSM    C1311329   4.517   4.117  10.943  0.3799  0.3685 -0.3883
  110OSM   H13A11330   4.608   4.133  10.999  1.3649 -1.3274 -1.3871
  110OSM   H13B11331   4.521   4.017  10.901  1.6921  0.4887 -0.5910
  110OSM   H13C11332   4.431   4.115  11.009  1.2272  0.9490  0.7573
  110OSM    C1211333   4.378   4.188  10.744 -0.5813  0.0148  0.3752
  110OSM   H12A11334   4.386   4.084  10.712 -2.1032  0.5261 -1.9503
  110OSM   H12B11335   4.382   4.247  10.654 -1.8495  0.0429  0.3198
  110OSM    C1111336   4.233   4.207  10.798  0.0423 -0.1664 -0.2590
  110OSM   H11A11337   4.231   4.131  10.879  1.1802 -0.3338 -0.3725
  110OSM   H11B11338   4.166   4.172  10.717  1.3144 -1.4786 -0.7955
  110OSM      P11339   4.192   4.471  10.757 -0.2582  0.4195  0.2278
  110OSM    O1311340   4.061   4.528  10.768 -1.0747 -0.3619  0.3729
  110OSM    O1411341   4.313   4.550  10.790  0.4793  0.0394 -0.3136
  110OSM    O1111342   4.202   4.417  10.610 -0.0142  0.3842 -0.1096
  110OSM    O1211343   4.202   4.339  10.834 -0.2834  0.1715  0.0838
  110OSM    C1S11344   4.270   4.489  10.508 -0.2242 -0.6400 -0.0784
  110OSM    H1S11345   4.378   4.482  10.530 -0.3576 -2.5333  0.1684
  110OSM    H1T11346   4.227   4.591  10.504  0.3862 -0.1651  2.7612
  110OSM     NF11347   4.321   4.476  10.261 -0.1243  0.2666  0.3733
  110OSM    HNF11348   4.282   4.557  10.216 -0.6743  0.4336  1.1469
  110OSM    C2S11349   4.228   4.423  10.365  0.6505 -1.1748  0.2300
  110OSM    H2S11350   4.249   4.314  10.365 -0.3341 -1.3809 -0.9291
  110OSM    C3S11351   4.075   4.453  10.334 -0.6905 -0.1044  0.4070
  110OSM    H3S11352   4.054   4.562  10.331 -0.0564  0.0407  1.0000
  110OSM     O311353   3.993   4.394  10.437 -0.2172  0.9310  0.4221
  110OSM    HO311354   4.043   4.400  10.519  0.8790 -1.0879 -0.0283
  110OSM    C4S11355   4.048   4.383  10.203 -0.3540 -0.0712 -0.2195
  110OSM    H4S11356   4.042   4.273  10.200  1.2001 -0.1794  0.0174
  110OSM    C5S11357   4.025   4.459  10.091 -0.4571 -0.3657  0.7283
  110OSM    H5S11358   4.037   4.568  10.100  0.6132 -0.0685 -2.7935
  110OSM    C6S11359   3.996   4.401   9.953 -0.0203  0.3278 -0.6565
  110OSM    H6S11360   3.886   4.396   9.942 -0.2812  3.7863 -0.6780
  110OSM    H6T11361   4.033   4.298   9.936  0.5554  0.7068 -1.7782
  110OSM    C7S11362   4.053   4.494   9.844 -0.0436 -0.7396  0.1159
  110OSM    H7S11363   4.161   4.511   9.825  0.0470 -3.2454 -2.2168
  110OSM    H7T11364   4.004   4.593   9.854 -0.9258 -1.2833  1.6099
  110OSM    C8S11365   3.989   4.444   9.713 -1.0082  0.6529  1.0657
  110OSM    H8S11366   3.890   4.495   9.708 -0.8142  0.9360 -0.5721
  110OSM    H8T11367   3.975   4.336   9.736  0.9882  0.3728  1.1247
  110OSM    C9S11368   4.075   4.464   9.589 -0.4964  0.6721 -0.2003
  110OSM    H9S11369   4.174   4.413   9.587 -0.6230  0.4173  0.0569
  110OSM    H9T11370   4.094   4.573   9.576  0.9005  0.7240  1.8153
  110OSM   C10S11371   3.998   4.420   9.465  0.5820 -0.4883 -0.1033
  110OSM   H10S11372   3.910   4.485   9.446  0.3546 -0.0693  2.1239
  110OSM   H10T11373   3.954   4.319   9.479  1.8053 -0.7813  2.0052
  110OSM   C11S11374   4.088   4.408   9.342  0.4638  0.1522 -0.1113
  110OSM   H11S11375   4.040   4.349   9.261 -0.6502 -0.4030  0.9267
  110OSM   H11T11376   4.179   4.349   9.367  0.7512  1.6731  2.8914
  110OSM   C12S11377   4.148   4.546   9.290  0.1056 -0.5362 -1.1519
  110OSM   H12S11378   4.182   4.614   9.371  0.5571  0.0598 -1.8330
  110OSM   H12T11379   4.063   4.610   9.258  0.8153  0.8509 -0.3791
  110OSM   C13S11380   4.246   4.525   9.174  0.4782  0.1017  0.0588
  110OSM   H13S11381   4.237   4.421   9.138 -3.1426 -0.0692  1.1054
  110OSM   H13T11382   4.347   4.529   9.221 -0.0276 -0.0242  1.1921
  110OSM   C14S11383   4.250   4.624   9.060 -0.4070 -0.0908 -0.5029
  110OSM   H14S11384   4.152   4.615   9.009  0.2776 -2.0246 -1.6063
  110OSM   H14T11385   4.332   4.600   8.989 -0.0920  0.6259 -0.3855
  110OSM   C15S11386   4.272   4.769   9.093 -0.2964  0.1398  0.1627
  110OSM   H15S11387   4.377   4.776   9.128  0.3506 -2.0396 -1.1627
  110OSM   H15T11388   4.198   4.798   9.171 -2.3863  0.5083 -1.8208
  110OSM   C16S11389   4.247   4.864   8.976  0.2806 -0.2734  0.0542
  110OSM   H16S11390   4.138   4.861   8.954  0.4406  1.5966 -1.2888
  110OSM   H16T11391   4.301   4.827   8.886 -0.7426 -1.0201 -0.2742
  110OSM   C17S11392   4.259   5.010   9.010 -0.4440 -0.7427 -0.4510
  110OSM   H17S11393   4.353   5.026   9.065 -0.4918  1.2263 -0.8737
  110OSM   H17T11394   4.180   5.039   9.082 -0.2682  0.7289 -0.8269
  110OSM   C18S11395   4.244   5.107   8.895  0.4238  0.4166 -0.7325
  110OSM   H18S11396   4.142   5.101   8.851 -0.4935  1.7595  1.0966
  110OSM   H18T11397   4.316   5.075   8.817  1.3559  0.8581 -0.0755
  110OSM   H18U11398   4.264   5.207   8.938  0.2248 -0.2403  0.9953
  110OSM    C1F11399   4.451   4.448  10.256 -0.4868  0.6584 -0.7813
  110OSM     OF11400   4.504   4.377  10.341  0.0082 -0.2941  0.1307
  110OSM    C2F11401   4.535   4.524  10.158 -0.5254 -0.1670  0.1484
  110OSM    H2F11402   4.608   4.579  10.221 -0.6361 -1.3689  1.3694
  110OSM    H2G11403   4.470   4.605  10.117  1.1839  1.7028  0.9750
  110OSM    C3F11404   4.620   4.440  10.063 -0.0104  0.2053  0.5054
  110OSM    H3F11405   4.710   4.415  10.124  0.8069  2.5516  0.3448
  110OSM    H3G11406   4.657   4.497   9.975 -1.5463 -0.6762 -0.7558
  110OSM    C4F11407   4.554   4.317  10.001 -0.4437 -0.2854 -0.6239
  110OSM    H4F11408   4.509   4.263  10.087 -0.8475 -0.7584 -1.1248
  110OSM    H4G11409   4.636   4.262   9.951 -1.0612 -0.2155 -1.7430
  110OSM    C5F11410   4.445   4.338   9.900  0.8399  0.5895 -0.4858
  110OSM    H5F11411   4.483   4.401   9.817 -3.0390  2.4222 -1.1103
  110OSM    H5G11412   4.358   4.389   9.948  0.9934  0.2037  0.2248
  110OSM    C6F11413   4.398   4.210   9.824  0.2164  0.2311 -0.5186
  110OSM    H6F11414   4.323   4.243   9.749  1.0116  0.3025 -1.3019
  110OSM    H6G11415   4.360   4.141   9.902  2.4814  1.0797  1.4598
  110OSM    C7F11416   4.498   4.138   9.724 -0.0611 -0.0577  0.5362
  110OSM    H7F11417   4.584   4.099   9.781  0.5655  0.5385  0.0143
  110OSM    H7G11418   4.541   4.218   9.660  0.1817  0.0446  0.8307
  110OSM    C8F11419   4.430   4.030   9.632 -0.3901  0.3965 -0.0765
  110OSM    H8F11420   4.406   3.942   9.695 -1.2908 -0.4392 -1.5308
  110OSM    H8G11421   4.509   3.992   9.563  1.8606  2.4785  1.2033
  110OSM    C9F11422   4.311   4.071   9.557  0.0654 -0.8842  0.3296
  110OSM    H9F11423   4.243   4.139   9.610  0.3974 -0.1240 -0.1942
  110OSM   C10F11424   4.284   4.064   9.425  0.0313 -0.3793  0.3260
  110OSM   H10F11425   4.201   4.121   9.381  0.9825  1.2508  0.5598
  110OSM   C11F11426   4.374   4.012   9.315  0.6080  0.2087 -0.3264
  110OSM   H11F11427   4.324   3.929   9.261  2.0587 -1.7953  1.2519
  110OSM   H11G11428   4.469   3.965   9.349 -0.4992 -3.1349 -1.4331
  110OSM   C12F11429   4.402   4.136   9.222  0.4606 -0.1133  0.4343
  110OSM   H12F11430   4.449   4.226   9.267 -0.1233  0.6365 -0.4170
  110OSM   H12G11431   4.301   4.165   9.187 -0.3860 -3.5925 -0.4248
  110OSM   C13F11432   4.482   4.101   9.098 -0.4399  0.0058 -0.0707
  110OSM   H13F11433   4.412   4.059   9.022 -1.0839  3.7501 -1.7947
  110OSM   H13G11434   4.576   4.044   9.112  0.0878  0.8190 -0.2110
  110OSM   C14F11435   4.512   4.237   9.025  0.1284 -0.3855 -0.2020
  110OSM   H14F11436   4.582   4.308   9.074  0.8594 -0.6933 -0.7858
  110OSM   H14G11437   4.417   4.293   9.013 -0.4094 -1.6001 -2.0494
  110OSM   C15F11438   4.545   4.206   8.874  0.3479 -0.2772  0.8079
  110OSM   H15F11439   4.479   4.142   8.812 -0.8465  0.1244  1.6150
  110OSM   H15G11440   4.649   4.167   8.868  0.9222  1.0126  1.8030
  110OSM   C16F11441   4.559   4.339   8.796  0.1974 -0.0380  0.0999
  110OSM   H16F11442   4.646   4.330   8.728 -0.9270  1.1258 -1.5687
  110OSM   H16G11443   4.578   4.427   8.861 -2.3436  0.3538  0.4326
  110OSM   C17F11444   4.439   4.384   8.704 -0.5222 -0.4758  0.0275
  110OSM   H17F11445   4.346   4.390   8.765 -0.7518  0.0186 -0.3613
  110OSM   H17G11446   4.438   4.314   8.617  2.6419  0.3433 -0.7882
  110OSM   C18F11447   4.464   4.531   8.658 -0.4353  0.5951 -0.6258
  110OSM   H18F11448   4.488   4.595   8.745  2.9076 -1.1842 -0.0813
  110OSM   H18G11449   4.366   4.561   8.615  0.1906  0.9328 -1.8376
  110OSM   H18H11450   4.544   4.542   8.582  1.9219 -0.0802  1.5997
  111OSM      N11451   0.307   1.800  10.802  0.0082  0.6453  0.2916
  111OSM    C1511452   0.386   1.813  10.929 -0.0483  0.2995 -0.4809
  111OSM   H15A11453   0.483   1.769  10.915 -1.2093 -1.6096 -4.0610
  111OSM   H15B11454   0.342   1.779  11.022  3.9022 -1.8679  0.7978
  111OSM   H15C11455   0.407   1.916  10.952 -1.6774  0.9221 -1.5486
  111OSM    C1411456   0.170   1.846  10.827 -0.8419 -0.9973 -0.0175
  111OSM   H14A11457   0.113   1.840  10.736 -1.8440 -0.9763  0.5975
  111OSM   H14B11458   0.158   1.950  10.855  0.8680 -0.6484 -0.4370
  111OSM   H14C11459   0.116   1.790  10.902 -2.0737  2.7001  2.1104
  111OSM    C1311460   0.373   1.891  10.696  0.4825  0.8410  0.4869
  111OSM   H13A11461   0.474   1.860  10.674  1.2605  1.9426  2.3023
  111OSM   H13B11462   0.378   1.987  10.745  1.9807  0.0139  2.0475
  111OSM   H13C11463   0.309   1.878  10.609  0.3044 -0.1880  0.7574
  111OSM    C1211464   0.309   1.653  10.753 -0.1404 -0.0933  0.2737
  111OSM   H12A11465   0.247   1.598  10.822 -1.0595 -0.7530 -1.0306
  111OSM   H12B11466   0.411   1.624  10.769  0.6760  1.9072 -0.9086
  111OSM    C1111467   0.267   1.618  10.613 -0.1512  0.6189 -0.5119
  111OSM   H11A11468   0.308   1.519  10.583  1.5236  1.1389 -0.0522
  111OSM   H11B11469   0.321   1.685  10.543 -0.6953  0.3289 -1.2222
  111OSM      P11470   0.033   1.530  10.648  0.1450 -0.6555 -0.2944
  111OSM    O1311471   0.068   1.504  10.789  0.0116  0.3040 -0.4343
  111OSM    O1411472  -0.110   1.563  10.621  0.7697  0.0596  0.0710
  111OSM    O1111473   0.061   1.392  10.575  0.4003 -0.2681 -0.2790
  111OSM    O1211474   0.132   1.632  10.588  0.0144 -0.3517  0.7115
  111OSM    C1S11475   0.009   1.369  10.440 -0.1080  0.0657  0.4134
  111OSM    H1S11476  -0.064   1.444  10.403 -1.5642 -0.9043  1.2305
  111OSM    H1T11477  -0.049   1.275  10.434 -0.5085  0.4036 -1.8991
  111OSM     NF11478   0.093   1.374  10.208  0.2975  0.2165  0.5183
  111OSM    HNF11479   0.094   1.290  10.156 -0.3444 -0.0272  0.8860
  111OSM    C2S11480   0.133   1.367  10.341 -0.0157 -0.1233 -0.7629
  111OSM    H2S11481   0.198   1.457  10.353  0.3743 -0.3169 -1.3787
  111OSM    C3S11482   0.223   1.239  10.365  0.4971 -0.4069 -0.1152
  111OSM    H3S11483   0.162   1.146  10.353 -0.6191  0.2633  0.2318
  111OSM     O311484   0.273   1.231  10.494  0.3233 -0.2810  0.3417
  111OSM    HO311485   0.215   1.286  10.547  1.0667  2.2749 -1.3034
  111OSM    C4S11486   0.335   1.230  10.274  0.2579 -0.0480  0.2248
  111OSM    H4S11487   0.404   1.315  10.286 -0.1269  0.0430  2.1310
  111OSM    C5S11488   0.364   1.138  10.177 -0.4885 -0.1225 -0.1568
  111OSM    H5S11489   0.300   1.050  10.164 -1.8968  0.4855  2.0201
  111OSM    C6S11490   0.484   1.137  10.084 -0.2002 -0.3697  0.6748
  111OSM    H6S11491   0.569   1.070  10.112 -0.6196 -1.0075  0.4428
  111OSM    H6T11492   0.528   1.238  10.080 -1.9457  0.4076  0.3328
  111OSM    C7S11493   0.434   1.105   9.942 -0.1565 -0.6424 -0.2553
  111OSM    H7S11494   0.417   0.996   9.938 -1.8000 -0.4692  0.9187
  111OSM    H7T11495   0.514   1.132   9.869  0.4905  0.8069  0.9324
  111OSM    C8S11496   0.312   1.177   9.882  0.3811 -0.6083 -0.2573
  111OSM    H8S11497   0.324   1.278   9.927  0.8563 -0.1553 -1.3734
  111OSM    H8T11498   0.220   1.131   9.925  0.6938  0.9050  2.2425
  111OSM    C9S11499   0.311   1.186   9.728  0.1164  0.7084 -0.0444
  111OSM    H9S11500   0.294   1.083   9.690  1.2644 -0.4434  2.3535
  111OSM    H9T11501   0.406   1.220   9.682  0.5063  1.5742  1.3417
  111OSM   C10S11502   0.187   1.272   9.688 -1.3191 -0.6675 -0.2429
  111OSM   H10S11503   0.207   1.380   9.703 -2.1128 -0.2328 -2.0207
  111OSM   H10T11504   0.110   1.248   9.765 -0.2253  2.3097  1.9823
  111OSM   C11S11505   0.124   1.251   9.554 -0.1950  0.0384  1.0276
  111OSM   H11S11506   0.034   1.315   9.541 -0.0634 -0.0496 -0.4650
  111OSM   H11T11507   0.091   1.148   9.531  0.9598  0.3054 -2.2535
  111OSM   C12S11508   0.220   1.290   9.447  0.0772  0.0093  0.7850
  111OSM   H12S11509   0.311   1.226   9.442  0.4071  0.5837 -1.3319
  111OSM   H12T11510   0.261   1.393   9.458  1.6578 -0.5044  0.0365
  111OSM   C13S11511   0.143   1.281   9.321  0.1712  0.7888 -0.1039
  111OSM   H13S11512   0.046   1.334   9.330 -0.0981  0.4365 -0.8630
  111OSM   H13T11513   0.118   1.173   9.316  0.0553  0.7310  1.2947
  111OSM   C14S11514   0.231   1.328   9.201  0.2895  0.1657 -0.1529
  111OSM   H14S11515   0.328   1.363   9.243  1.3911 -2.1497 -0.5553
  111OSM   H14T11516   0.176   1.405   9.143 -0.9030 -1.0299 -0.6648
  111OSM   C15S11517   0.249   1.217   9.095 -0.8141  0.4351 -0.3504
  111OSM   H15S11518   0.162   1.184   9.035  0.0280 -1.4815 -0.5951
  111OSM   H15T11519   0.285   1.126   9.148 -0.9628  0.9052  0.5775
  111OSM   C16S11520   0.366   1.258   8.998  0.7450 -0.0208 -0.4105
  111OSM   H16S11521   0.442   1.321   9.050  0.7882  1.9044 -2.6753
  111OSM   H16T11522   0.331   1.316   8.911  0.5151 -1.0961 -1.0447
  111OSM   C17S11523   0.442   1.131   8.960 -0.2958  0.0859 -0.1010
  111OSM   H17S11524   0.507   1.086   9.038  1.2236  2.4861  0.1147
  111OSM   H17T11525   0.519   1.174   8.891 -1.0661  2.5962  0.4936
  111OSM   C18S11526   0.364   1.018   8.891  0.0422  0.2089 -0.7713
  111OSM   H18S11527   0.286   1.073   8.833  0.5617  1.9069  0.0740
  111OSM   H18T11528   0.319   0.953   8.969 -1.4556  0.5090 -1.3541
  111OSM   H18U11529   0.437   0.957   8.835  0.3496 -0.4190  0.2998
  111OSM    C1F11530   0.027   1.474  10.147  0.2341  0.2700  0.4812
  111OSM     OF11531   0.028   1.581  10.200  0.5111 -0.0358  0.1442
  111OSM    C2F11532  -0.015   1.455  10.005 -0.3376  0.3488 -0.7913
  111OSM    H2F11533  -0.087   1.370  10.009 -1.1010  1.0388  1.1806
  111OSM    H2G11534   0.079   1.432   9.950  1.1926 -0.0309  1.8355
  111OSM    C3F11535  -0.074   1.587   9.955 -0.5418  0.1149 -0.3420
  111OSM    H3F11536   0.004   1.665   9.945 -1.9743  1.4494 -1.8225
  111OSM    H3G11537  -0.151   1.629  10.023  0.2332  0.1177  0.5572
  111OSM    C4F11538  -0.125   1.578   9.809  0.3381  0.0828  0.6890
  111OSM    H4F11539  -0.213   1.510   9.803  1.0853 -1.2903  3.6364
  111OSM    H4G11540  -0.041   1.527   9.756  1.8442  0.4770  2.5811
  111OSM    C5F11541  -0.145   1.712   9.740  0.2059  0.7075  0.5943
  111OSM    H5F11542  -0.059   1.781   9.750  1.5805 -0.2052 -3.1694
  111OSM    H5G11543  -0.228   1.772   9.781 -2.0378  0.1629 -2.7420
  111OSM    C6F11544  -0.181   1.695   9.598  0.3103  0.4321 -0.1575
  111OSM    H6F11545  -0.241   1.783   9.565 -0.1018  0.1714 -0.1125
  111OSM    H6G11546  -0.238   1.600   9.589  0.3922  0.0220  2.6682
  111OSM    C7F11547  -0.063   1.708   9.500 -0.3020  0.5284  0.5846
  111OSM    H7F11548   0.017   1.635   9.522  1.2744  2.1121  0.3437
  111OSM    H7G11549  -0.012   1.806   9.488  2.1648 -0.8573 -1.1574
  111OSM    C8F11550  -0.113   1.662   9.360 -0.8236  0.3570  0.3809
  111OSM    H8F11551  -0.184   1.737   9.319 -1.1281 -0.1246  0.0260
  111OSM    H8G11552  -0.160   1.562   9.373  1.6839 -0.9474  0.0897
  111OSM    C9F11553  -0.009   1.650   9.251 -0.0666  0.0943 -0.6037
  111OSM    H9F11554   0.010   1.546   9.219 -0.0188 -0.1920  0.3315
  111OSM   C10F11555   0.047   1.750   9.183  0.0501 -0.2644  0.4096
  111OSM   H10F11556   0.123   1.731   9.105  2.3129  1.8524  1.9285
  111OSM   C11F11557   0.020   1.894   9.207 -0.0502 -0.2423 -0.5156
  111OSM   H11F11558   0.115   1.951   9.212 -0.6011  0.6207  1.2791
  111OSM   H11G11559  -0.032   1.916   9.303  0.5310 -1.3898  0.0794
  111OSM   C12F11560  -0.073   1.948   9.097 -0.6402  0.0310  0.1227
  111OSM   H12F11561  -0.119   2.040   9.137 -1.2373 -0.0092 -0.4732
  111OSM   H12G11562  -0.159   1.882   9.074  1.4743 -2.3255 -1.6727
  111OSM   C13F11563  -0.005   1.975   8.969  0.1295 -0.5276 -0.2333
  111OSM   H13F11564   0.004   1.884   8.906 -0.1051 -0.1173 -0.8780
  111OSM   H13G11565   0.100   2.011   8.968 -0.8502  2.6872 -1.4106
  111OSM   C14F11566  -0.082   2.086   8.889 -0.8195 -0.4882  0.8541
  111OSM   H14F11567  -0.007   2.116   8.812 -0.9804  1.8654  1.5343
  111OSM   H14G11568  -0.084   2.172   8.959  1.7194 -0.3603  0.8726
  111OSM   C15F11569  -0.224   2.060   8.836 -0.3664 -0.2303 -0.5477
  111OSM   H15F11570  -0.281   2.148   8.800 -0.7656 -0.6691 -1.0112
  111OSM   H15G11571  -0.282   2.028   8.925 -1.0254  0.2637 -0.7894
  111OSM   C16F11572  -0.241   1.944   8.743  0.4944  0.2217  1.0686
  111OSM   H16F11573  -0.232   1.852   8.806  1.0197  2.0061  3.7605
  111OSM   H16G11574  -0.180   1.932   8.652  1.2922 -0.6194  1.6970
  111OSM   C17F11575  -0.385   1.943   8.679  0.8969  0.5234 -1.0855
  111OSM   H17F11576  -0.409   2.039   8.628  0.7328 -0.6170 -3.2600
  111OSM   H17G11577  -0.459   1.942   8.763  0.1391 -2.7717 -1.6772
  111OSM   C18F11578  -0.418   1.835   8.578  0.4431  0.4955  0.8629
  111OSM   H18F11579  -0.367   1.741   8.610  0.6438 -0.3242 -1.6836
  111OSM   H18G11580  -0.373   1.852   8.478 -3.8987 -0.9963 -1.6306
  111OSM   H18H11581  -0.523   1.800   8.567  0.5194  0.6780 -0.6151
  112OSM      N11582   5.525   5.005  10.959 -0.1642 -0.4309 -0.5715
  112OSM    C1511583   5.600   4.885  10.905  0.5668 -0.0198  0.5092
  112OSM   H15A11584   5.693   4.880  10.960  1.8819  0.4879 -1.5350
  112OSM   H15B11585   5.630   4.893  10.801 -0.7273  0.6939  0.1670
  112OSM   H15C11586   5.536   4.799  10.908  0.7628 -0.3063 -1.7442
  112OSM    C1411587   5.415   5.041  10.870  0.7359  0.4525  0.1270
  112OSM   H14A11588   5.449   5.082  10.777 -0.9652 -0.2761 -0.8644
  112OSM   H14B11589   5.351   5.117  10.911 -0.5216  0.1579 -1.2175
  112OSM   H14C11590   5.356   4.952  10.852 -0.4095  1.4870 -1.3778
  112OSM    C1311591   5.461   4.981  11.093 -0.0504 -0.3271 -1.1836
  112OSM   H13A11592   5.395   4.896  11.083  1.8780 -2.1040  0.5551
  112OSM   H13B11593   5.415   5.068  11.138  0.6485 -0.3033 -0.4998
  112OSM   H13C11594   5.543   4.957  11.159 -0.0026  0.6850 -0.8602
  112OSM    C1211595   5.620   5.128  10.970 -0.5392 -0.1776 -0.5936
  112OSM   H12A11596   5.680   5.100  11.055  0.2556  0.2976 -0.9897
  112OSM   H12B11597   5.556   5.206  11.009  0.5373  0.5141 -0.1675
  112OSM    C1111598   5.703   5.179  10.845 -0.1326 -0.2998 -0.7020
  112OSM   H11A11599   5.768   5.261  10.883 -0.3655 -0.6234  0.4300
  112OSM   H11B11600   5.630   5.222  10.774  0.8999  0.0231 -1.6058
  112OSM      P11601   5.932   5.052  10.799  0.1215 -0.0275  0.2469
  112OSM    O1311602   5.971   5.091  10.937 -0.3927 -0.3880 -0.1860
  112OSM    O1411603   5.958   4.909  10.768  0.4219 -0.5201 -0.2741
  112OSM    O1111604   5.999   5.150  10.690  0.5737  0.1679  0.4434
  112OSM    O1211605   5.771   5.083  10.777 -0.3319 -0.4060 -0.3579
  112OSM    C1S11606   5.922   5.258  10.626  0.5063  0.5431 -0.6387
  112OSM    H1S11607   5.886   5.327  10.705  0.9842  0.4204 -0.3094
  112OSM    H1T11608   5.834   5.211  10.577  0.0632 -0.3811  0.9390
  112OSM     NF11609   5.929   5.442  10.477 -0.1187  0.2224  0.0252
  112OSM    HNF11610   5.868   5.428  10.400 -0.0514  1.1266 -0.2016
  112OSM    C2S11611   6.001   5.327  10.518  0.1135 -0.8579 -0.5255
  112OSM    H2S11612   6.103   5.348  10.555 -0.2096  0.6023 -0.4201
  112OSM    C3S11613   6.012   5.217  10.397 -0.2121  0.4584  0.3808
  112OSM    H3S11614   5.912   5.214  10.348 -0.1274 -0.1610  0.2318
  112OSM     O311615   6.041   5.080  10.433 -0.0425  0.6452  0.3001
  112OSM    HO311616   6.015   5.080  10.526 -1.5302 -0.0633 -0.0965
  112OSM    C4S11617   6.108   5.267  10.301  0.1047 -0.4090 -0.2772
  112OSM    H4S11618   6.215   5.274  10.325 -0.4378  2.1096  1.9126
  112OSM    C5S11619   6.073   5.317  10.181  0.1370  0.1885  0.0707
  112OSM    H5S11620   5.968   5.327  10.152  1.1701  2.0454 -3.5869
  112OSM    C6S11621   6.170   5.369  10.079 -0.4331 -0.3514 -0.3491
  112OSM    H6S11622   6.269   5.392  10.124  0.0169 -0.2869 -1.3480
  112OSM    H6T11623   6.138   5.466  10.035  1.2002  0.6121  0.4787
  112OSM    C7S11624   6.191   5.275   9.959 -0.6922 -0.5623 -0.0664
  112OSM    H7S11625   6.092   5.237   9.928 -0.9480 -1.0829  1.2954
  112OSM    H7T11626   6.239   5.179   9.992  0.1903 -0.5583 -1.2756
  112OSM    C8S11627   6.252   5.346   9.844 -0.1303  0.0012 -1.1727
  112OSM    H8S11628   6.344   5.401   9.874 -0.5292 -0.3419  0.8056
  112OSM    H8T11629   6.181   5.424   9.809 -0.6730 -0.3426 -0.8454
  112OSM    C9S11630   6.295   5.232   9.747  0.0224 -0.2216 -0.2749
  112OSM    H9S11631   6.207   5.167   9.727 -0.4598  0.0379  0.8896
  112OSM    H9T11632   6.370   5.172   9.802  2.3276  3.4275  0.8986
  112OSM   C10S11633   6.342   5.282   9.612  0.1011 -0.9594  0.3682
  112OSM   H10S11634   6.426   5.354   9.622 -0.3100 -0.6159  1.4928
  112OSM   H10T11635   6.264   5.337   9.556  2.0429  1.2168 -0.3618
  112OSM   C11S11636   6.386   5.157   9.528  0.4099 -0.4212 -0.2795
  112OSM   H11S11637   6.309   5.078   9.537  0.7567 -0.5382  2.7140
  112OSM   H11T11638   6.481   5.126   9.577  1.4872  1.1217 -1.2675
  112OSM   C12S11639   6.428   5.185   9.383  0.0045 -0.3238 -0.1694
  112OSM   H12S11640   6.347   5.243   9.333  0.5612  1.2510  0.6974
  112OSM   H12T11641   6.423   5.087   9.330 -2.3060 -0.8840  0.9573
  112OSM   C13S11642   6.565   5.257   9.378 -0.5900 -0.2219  0.3207
  112OSM   H13S11643   6.636   5.200   9.442 -0.3552 -0.9851 -0.6019
  112OSM   H13T11644   6.561   5.360   9.418  1.5116  0.0944 -0.1732
  112OSM   C14S11645   6.637   5.274   9.245  0.0986  0.5630 -0.7108
  112OSM   H14S11646   6.652   5.170   9.207 -1.7645  0.1345 -0.3665
  112OSM   H14T11647   6.732   5.330   9.254 -1.0212  2.8260 -2.1727
  112OSM   C15S11648   6.552   5.353   9.144 -0.0088  0.0308 -0.7070
  112OSM   H15S11649   6.530   5.457   9.178 -2.4016 -0.1620 -1.4233
  112OSM   H15T11650   6.451   5.308   9.145 -0.3143  0.6977  0.4826
  112OSM   C16S11651   6.608   5.365   9.003 -0.2346 -0.3956 -0.9381
  112OSM   H16S11652   6.553   5.437   8.939 -0.4953 -0.2625 -0.5649
  112OSM   H16T11653   6.597   5.262   8.964  0.7251 -1.7673  2.0421
  112OSM   C17S11654   6.755   5.415   8.990  0.3569 -0.5687 -0.5075
  112OSM   H17S11655   6.816   5.339   9.042 -1.8078 -0.7596  1.9275
  112OSM   H17T11656   6.748   5.506   9.054 -3.2898 -0.0089 -1.4306
  112OSM   C18S11657   6.803   5.437   8.852  0.4324  0.3397 -0.1637
  112OSM   H18S11658   6.780   5.347   8.791 -0.9853 -1.4567  2.7904
  112OSM   H18T11659   6.908   5.470   8.840  0.6968 -0.5353 -0.3199
  112OSM   H18U11660   6.743   5.519   8.806  0.9736  0.3648 -0.8451
  112OSM    C1F11661   5.935   5.557  10.551 -0.1824 -0.4064 -0.1454
  112OSM     OF11662   6.009   5.569  10.648 -0.3850  0.4904  0.0487
  112OSM    C2F11663   5.851   5.670  10.492  0.4984 -0.2652  0.0944
  112OSM    H2F11664   5.764   5.689  10.557 -0.7993 -0.0332 -1.6447
  112OSM    H2G11665   5.808   5.644  10.393  0.7808  0.0498 -0.1173
  112OSM    C3F11666   5.944   5.801  10.486 -0.0641 -0.4243 -0.0718
  112OSM    H3F11667   5.995   5.818  10.583  1.8714  0.4784 -1.1775
  112OSM    H3G11668   5.880   5.886  10.454  1.0794  0.5753  0.2489
  112OSM    C4F11669   6.064   5.786  10.392 -0.1439  0.2620 -0.4882
  112OSM    H4F11670   6.115   5.690  10.415 -1.2621 -0.0760  0.6538
  112OSM    H4G11671   6.144   5.861  10.411  0.3935 -0.4823  0.2433
  112OSM    C5F11672   6.025   5.793  10.245  0.2620 -0.4658 -0.2611
  112OSM    H5F11673   5.972   5.888  10.219 -0.6989 -1.8494 -3.9159
  112OSM    H5G11674   5.954   5.713  10.215  0.6796 -0.5693 -0.9869
  112OSM    C6F11675   6.148   5.794  10.156 -0.0970 -0.4995 -0.0144
  112OSM    H6F11676   6.206   5.703  10.182 -2.0251 -1.6817  0.3489
  112OSM    H6G11677   6.212   5.882  10.177 -0.3775  0.4360 -2.7095
  112OSM    C7F11678   6.117   5.780  10.011  0.8462 -0.3573 -0.0557
  112OSM    H7F11679   6.059   5.869   9.977 -1.3711 -0.0331  3.8759
  112OSM    H7G11680   6.051   5.692   9.996 -0.2078  0.6920 -1.8637
  112OSM    C8F11681   6.239   5.761   9.913  0.0462 -0.4380 -1.0324
  112OSM    H8F11682   6.198   5.757   9.810 -0.2377 -0.6230 -0.9158
  112OSM    H8G11683   6.274   5.658   9.938  0.3635 -0.1660 -0.3356
  112OSM    C9F11684   6.337   5.871   9.936 -0.6754  0.0672 -0.1147
  112OSM    H9F11685   6.389   5.884  10.032  1.6594  0.3277 -1.3374
  112OSM   C10F11686   6.371   5.960   9.841  0.4034  0.3987 -0.6689
  112OSM   H10F11687   6.439   6.039   9.878 -0.4993 -0.0265  2.2028
  112OSM   C11F11688   6.332   5.962   9.703  0.2769 -0.1489 -0.2812
  112OSM   H11F11689   6.342   5.856   9.670  0.6480 -1.0383  2.4378
  112OSM   H11G11690   6.409   6.005   9.636 -1.1961  0.8664 -1.3889
  112OSM   C12F11691   6.195   6.021   9.656 -0.3136 -0.0826  0.2431
  112OSM   H12F11692   6.190   6.131   9.671  2.0490 -0.1831  2.3448
  112OSM   H12G11693   6.103   5.983   9.706 -2.1195 -0.3334 -2.9961
  112OSM   C13F11694   6.165   5.984   9.513 -0.3065  0.0901 -0.1590
  112OSM   H13F11695   6.064   6.026   9.488 -0.3098  0.0801 -0.1614
  112OSM   H13G11696   6.159   5.874   9.502 -3.7979  0.2220 -0.6836
  112OSM   C14F11697   6.269   6.041   9.408 -0.1669 -0.2922 -0.1980
  112OSM   H14F11698   6.360   5.977   9.406  1.4544  1.8606 -1.8251
  112OSM   H14G11699   6.295   6.143   9.443 -1.9294  0.2972 -0.5001
  112OSM   C15F11700   6.215   6.042   9.268 -0.4950 -0.8111  0.1201
  112OSM   H15F11701   6.121   6.096   9.244  0.5841  0.2235 -2.0922
  112OSM   H15G11702   6.189   5.936   9.247  0.2327 -0.8389 -0.7232
  112OSM   C16F11703   6.326   6.085   9.162  0.3581  0.0375 -0.4275
  112OSM   H16F11704   6.415   6.020   9.170  0.5624  0.5362  1.9817
  112OSM   H16G11705   6.366   6.186   9.183  0.8846 -0.3720  0.5664
  112OSM   C17F11706   6.269   6.081   9.018  0.0878 -0.5006 -0.1047
  112OSM   H17F11707   6.210   6.171   8.992  3.0388  0.9814 -2.2319
  112OSM   H17G11708   6.219   5.986   8.991 -0.3521  0.1386 -1.6334
  112OSM   C18F11709   6.377   6.083   8.912  0.2489 -0.3405  0.0875
  112OSM   H18F11710   6.427   6.182   8.915  0.3521 -0.4056  0.7686
  112OSM   H18G11711   6.332   6.070   8.811  0.8912  2.2962 -0.6193
  112OSM   H18H11712   6.445   5.997   8.930  1.5469  0.8367  1.0789
  113OSM      N11713   2.122   3.763  11.302 -0.5443 -0.2311  0.4148
  113OSM    C1511714   2.254   3.706  11.276 -0.7501 -0.1795  0.7276
  113OSM   H15A11715   2.253   3.599  11.288  0.5028 -0.3831 -0.7695
  113OSM   H15B11716   2.340   3.747  11.328  0.1771 -0.2366 -0.7132
  113OSM   H15C11717   2.267   3.722  11.170 -0.5688  1.0345  0.9110
  113OSM    C1411718   2.088   3.727  11.449  0.0796  0.8088  0.8873
  113OSM   H14A11719   1.992   3.768  11.477 -0.0051  2.2429 -1.3156
  113OSM   H14B11720   2.159   3.780  11.511  0.9639  1.5414 -0.6926
  113OSM   H14C11721   2.078   3.620  11.460  0.8900  0.7635  1.2864
  113OSM    C1311722   2.137   3.913  11.296 -0.5358  0.4192  0.1410
  113OSM   H13A11723   2.180   3.943  11.201 -0.3888  0.9909  0.3838
  113OSM   H13B11724   2.208   3.938  11.374 -2.0559 -0.1240  1.7528
  113OSM   H13C11725   2.047   3.970  11.313 -0.0047  1.0056  1.0648
  113OSM    C1211726   2.026   3.715  11.198  0.8620  0.3557 -0.6591
  113OSM   H12A11727   1.924   3.735  11.229  0.9692  1.4326 -0.9472
  113OSM   H12B11728   2.026   3.608  11.201  0.0664  0.3562  1.9416
  113OSM    C1111729   2.051   3.772  11.051  0.1059 -0.2096  0.1768
  113OSM   H11A11730   2.052   3.883  11.060 -0.1604 -0.0859 -1.2084
  113OSM   H11B11731   1.965   3.740  10.989  1.4919 -1.7987 -1.0238
  113OSM      P11732   2.174   3.634  10.858  0.3454 -0.5377  0.2089
  113OSM    O1311733   2.310   3.629  10.807  0.1637 -1.1378  0.2361
  113OSM    O1411734   2.116   3.504  10.902 -0.5845  0.2452 -0.2299
  113OSM    O1111735   2.071   3.707  10.762  0.1279 -0.6234  0.0701
  113OSM    O1211736   2.174   3.726  10.990 -0.0992 -0.0378 -0.4134
  113OSM    C1S11737   2.106   3.844  10.713 -0.2892  0.2546  0.2151
  113OSM    H1S11738   2.190   3.888  10.770 -2.8455  1.8928  3.0287
  113OSM    H1T11739   2.016   3.908  10.724 -0.3680  1.1654 -4.0177
  113OSM     NF11740   2.188   3.985  10.528 -0.0258 -0.0923  0.0952
  113OSM    HNF11741   2.120   4.055  10.506  1.7461  1.4797 -0.6170
  113OSM    C2S11742   2.136   3.854  10.557  0.4087 -0.5445  0.6539
  113OSM    H2S11743   2.202   3.770  10.526 -0.5997 -1.4820  0.9619
  113OSM    C3S11744   1.998   3.831  10.481 -0.4169  0.1661 -0.1161
  113OSM    H3S11745   1.926   3.910  10.511 -1.3201 -0.1129 -1.4373
  113OSM     O311746   1.939   3.702  10.504 -0.0283 -0.2243 -0.2905
  113OSM    HO311747   1.997   3.661  10.568  0.0650  1.8437  1.0375
  113OSM    C4S11748   2.013   3.851  10.332  0.2237  0.4858 -0.6362
  113OSM    H4S11749   2.012   3.960  10.312  0.3555  0.8357  1.1266
  113OSM    C5S11750   2.043   3.758  10.235 -0.2972 -0.2768 -0.2428
  113OSM    H5S11751   2.043   3.651  10.262  0.2067 -0.0237  0.8536
  113OSM    C6S11752   2.056   3.792  10.089  0.3694 -0.2424  0.3585
  113OSM    H6S11753   1.990   3.732  10.023 -0.3459  0.9025  0.0023
  113OSM    H6T11754   2.158   3.767  10.055 -0.4080 -0.8363 -1.6980
  113OSM    C7S11755   2.032   3.944  10.052 -0.1477 -0.1575 -0.2521
  113OSM    H7S11756   2.062   4.020  10.127  1.5590  1.2145 -2.1913
  113OSM    H7T11757   1.922   3.959  10.050 -0.5088 -2.4664  0.0775
  113OSM    C8S11758   2.098   3.983   9.918  0.1458  0.5764 -0.0074
  113OSM    H8S11759   2.050   3.927   9.835 -0.2346  0.1738  0.4761
  113OSM    H8T11760   2.206   3.962   9.935 -0.0389 -1.2389 -0.7681
  113OSM    C9S11761   2.106   4.133   9.891 -0.2683  0.4782 -0.1278
  113OSM    H9S11762   2.130   4.186   9.985  0.9079 -1.1845  0.5589
  113OSM    H9T11763   2.015   4.178   9.845 -0.5825 -0.1283 -0.1053
  113OSM   C10S11764   2.237   4.179   9.825  0.0540 -0.5364  0.0567
  113OSM   H10S11765   2.323   4.129   9.876  1.3397 -1.4041 -2.7906
  113OSM   H10T11766   2.249   4.289   9.830 -1.1527 -0.4004  0.1118
  113OSM   C11S11767   2.237   4.141   9.674 -0.7209  0.3182  0.1387
  113OSM   H11S11768   2.143   4.174   9.623 -0.7850 -0.5959 -0.3504
  113OSM   H11T11769   2.238   4.030   9.670  1.0577  0.3219 -0.3460
  113OSM   C12S11770   2.361   4.193   9.601  0.2191  0.0757  0.5706
  113OSM   H12S11771   2.442   4.117   9.615  1.0643  0.2816 -2.3937
  113OSM   H12T11772   2.402   4.285   9.646 -1.2072  1.1274 -0.2095
  113OSM   C13S11773   2.338   4.206   9.455  0.8855  0.2910 -0.5886
  113OSM   H13S11774   2.269   4.292   9.444 -0.5446 -0.3998  2.2544
  113OSM   H13T11775   2.282   4.120   9.411 -0.3393  1.1403 -0.7239
  113OSM   C14S11776   2.466   4.227   9.373  0.0708 -0.0646  0.2405
  113OSM   H14S11777   2.530   4.136   9.377 -1.8508 -1.4569  3.2574
  113OSM   H14T11778   2.524   4.312   9.413  0.3385 -1.1622  2.3316
  113OSM   C15S11779   2.435   4.259   9.221  0.2450 -0.4036  0.1679
  113OSM   H15S11780   2.376   4.353   9.230  0.4187 -0.0531 -1.8855
  113OSM   H15T11781   2.377   4.173   9.181 -0.6805  0.3191 -0.0772
  113OSM   C16S11782   2.558   4.265   9.131 -0.0743  0.3414 -0.8007
  113OSM   H16S11783   2.618   4.172   9.136 -1.2590 -0.5235 -1.9187
  113OSM   H16T11784   2.625   4.344   9.171  1.4856 -0.6644 -1.3383
  113OSM   C17S11785   2.526   4.289   8.987  0.2376  0.4010  0.6022
  113OSM   H17S11786   2.621   4.303   8.931  0.4670  1.3765  1.2146
  113OSM   H17T11787   2.451   4.370   8.974 -1.0397 -0.5002  2.0168
  113OSM   C18S11788   2.444   4.171   8.922 -0.2552  0.7130  0.9520
  113OSM   H18S11789   2.448   4.174   8.811 -0.2849  4.4988  0.9228
  113OSM   H18T11790   2.341   4.166   8.962 -0.6156  0.8112  0.0575
  113OSM   H18U11791   2.501   4.083   8.958 -0.2039  0.5915  0.5758
  113OSM    C1F11792   2.302   4.035  10.573  0.0834  0.0072 -0.2794
  113OSM     OF11793   2.388   3.959  10.613  0.1983 -0.0412 -0.4518
  113OSM    C2F11794   2.337   4.181  10.569  0.2518  0.0271  0.2911
  113OSM    H2F11795   2.444   4.178  10.601  0.7248 -1.0527 -1.3091
  113OSM    H2G11796   2.279   4.247  10.637 -1.5930  1.8153 -2.7970
  113OSM    C3F11797   2.341   4.228  10.423  0.4257 -0.1125  0.4186
  113OSM    H3F11798   2.237   4.227  10.384  1.4100 -0.3368 -2.4213
  113OSM    H3G11799   2.393   4.155  10.357 -0.2355 -0.6216  0.4545
  113OSM    C4F11800   2.405   4.368  10.410 -0.1445 -0.2541 -0.4682
  113OSM    H4F11801   2.509   4.370  10.450  0.4162  0.6883 -1.8906
  113OSM    H4G11802   2.353   4.456  10.454  0.7612  0.5281 -0.9018
  113OSM    C5F11803   2.406   4.422  10.266 -0.6740 -0.2898  0.1648
  113OSM    H5F11804   2.431   4.531  10.270 -0.9137 -0.2495  0.6314
  113OSM    H5G11805   2.299   4.420  10.237 -0.1328  2.0719 -2.4605
  113OSM    C6F11806   2.503   4.350  10.178  0.2589  0.0300  0.0583
  113OSM    H6F11807   2.468   4.245  10.165 -3.0965  1.2502 -2.3535
  113OSM    H6G11808   2.603   4.345  10.226  0.5839 -2.4815 -0.7339
  113OSM    C7F11809   2.506   4.424  10.046 -0.1997  0.3266 -0.7240
  113OSM    H7F11810   2.565   4.518  10.050  0.6875 -0.2214 -0.6469
  113OSM    H7G11811   2.400   4.446  10.022 -1.4065 -1.5639  2.2566
  113OSM    C8F11812   2.555   4.342   9.927 -0.2457  0.2923  0.7439
  113OSM    H8F11813   2.539   4.403   9.836  1.9605 -0.4201 -0.1769
  113OSM    H8G11814   2.489   4.252   9.920 -0.4092  0.5535 -2.6286
  113OSM    C9F11815   2.700   4.295   9.934 -1.1483  0.0466 -0.4291
  113OSM    H9F11816   2.737   4.265  10.033  0.0837  0.1085 -0.8631
  113OSM   C10F11817   2.781   4.265   9.834  0.2028  0.1775 -0.2415
  113OSM   H10F11818   2.881   4.226   9.858  0.0590  0.5024  0.9235
  113OSM   C11F11819   2.750   4.273   9.683 -0.3969  0.4497  0.5510
  113OSM   H11F11820   2.686   4.362   9.665 -0.8848  0.2316  1.1847
  113OSM   H11G11821   2.691   4.186   9.647  1.7094 -0.2634 -1.4180
  113OSM   C12F11822   2.878   4.270   9.602 -0.5001  0.1951  0.2572
  113OSM   H12F11823   2.923   4.170   9.622 -0.3256 -0.2929 -2.3063
  113OSM   H12G11824   2.953   4.350   9.620  1.8485 -1.9979  0.8624
  113OSM   C13F11825   2.851   4.274   9.451  0.0797  0.1679  0.1898
  113OSM   H13F11826   2.831   4.382   9.434  1.5643  0.5067  0.4849
  113OSM   H13G11827   2.759   4.214   9.432  0.3600  0.1763 -1.2699
  113OSM   C14F11828   2.962   4.212   9.364 -0.1062  0.4924 -0.0746
  113OSM   H14F11829   2.996   4.113   9.400  0.0654 -0.4391 -2.5612
  113OSM   H14G11830   3.055   4.272   9.369  0.9256 -0.6953 -2.7948
  113OSM   C15F11831   2.914   4.208   9.219  0.1993 -0.2248  0.1472
  113OSM   H15F11832   2.885   4.311   9.189 -0.3802  0.2992  2.3662
  113OSM   H15G11833   2.824   4.142   9.218  0.2335 -0.2754 -1.0942
  113OSM   C16F11834   3.012   4.139   9.115  0.0057 -0.3290 -1.0462
  113OSM   H16F11835   2.955   4.112   9.024 -1.8341 -1.3242  0.3393
  113OSM   H16G11836   3.039   4.043   9.165 -3.3532 -0.5431  0.6460
  113OSM   C17F11837   3.127   4.230   9.088  0.6823 -0.6209 -0.3535
  113OSM   H17F11838   3.209   4.172   9.041  0.5381 -1.6741  0.6502
  113OSM   H17G11839   3.174   4.277   9.177 -1.0296  0.2191  0.1402
  113OSM   C18F11840   3.078   4.344   8.990 -0.3797  0.4130 -0.2649
  113OSM   H18F11841   3.027   4.419   9.054  0.4775 -2.4360  4.2237
  113OSM   H18G11842   3.013   4.294   8.915 -0.3537 -1.9786  1.1841
  113OSM   H18H11843   3.160   4.397   8.939  0.3709 -0.5045 -0.0446
  114OSM      N11844   5.437   4.230  10.952 -0.1222  0.4655  0.1259
  114OSM    C1511845   5.373   4.354  11.000 -0.3822 -0.2562  0.2167
  114OSM   H15A11846   5.267   4.338  10.989 -0.1968 -0.8466 -0.8515
  114OSM   H15B11847   5.398   4.436  10.934 -0.1582 -0.3606  0.1686
  114OSM   H15C11848   5.386   4.369  11.106  1.7423 -2.3746  0.3421
  114OSM    C1411849   5.581   4.258  10.940  0.4876  0.6927 -0.4901
  114OSM   H14A11850   5.635   4.165  10.935 -0.1748  0.2429  0.3984
  114OSM   H14B11851   5.623   4.297  11.031 -0.0636 -4.4631  2.3357
  114OSM   H14C11852   5.604   4.322  10.856  1.2914  1.5760  0.3929
  114OSM    C1311853   5.433   4.127  11.058  0.6852  0.4936  0.4946
  114OSM   H13A11854   5.478   4.181  11.140 -0.8281  2.7620 -0.0540
  114OSM   H13B11855   5.491   4.041  11.030  0.4495  0.2351  0.7833
  114OSM   H13C11856   5.339   4.086  11.095  0.4964 -0.4257 -0.9352
  114OSM    C1211857   5.365   4.178  10.830  0.0854 -0.0275  0.0309
  114OSM   H12A11858   5.425   4.100  10.786 -1.9147 -1.1353 -0.8551
  114OSM   H12B11859   5.382   4.249  10.750  0.0230 -1.0310 -0.8965
  114OSM    C1111860   5.210   4.141  10.842 -0.2597 -0.1942 -0.2298
  114OSM   H11A11861   5.211   4.043  10.896  1.0761  0.3304  0.7404
  114OSM   H11B11862   5.164   4.107  10.747 -1.1136 -0.7294  0.3582
  114OSM      P11863   5.019   4.317  10.838  0.0572 -0.2971 -0.2017
  114OSM    O1311864   4.907   4.224  10.818  0.2557 -0.0689 -0.3681
  114OSM    O1411865   4.985   4.447  10.906  0.0568  0.0919  0.3415
  114OSM    O1111866   5.083   4.363  10.698  0.4635 -0.7041 -0.0734
  114OSM    O1211867   5.134   4.241  10.916 -0.5946 -0.4257  0.3799
  114OSM    C1S11868   5.048   4.298  10.577  0.2950 -0.7614 -0.3107
  114OSM    H1S11869   4.937   4.287  10.573  0.2066 -0.3934  0.6641
  114OSM    H1T11870   5.096   4.198  10.579  1.6647 -0.1395  1.9768
  114OSM     NF11871   5.103   4.292  10.345  0.3755 -0.1720 -0.3448
  114OSM    HNF11872   5.188   4.296  10.292 -0.3844  0.7730 -1.5722
  114OSM    C2S11873   5.080   4.383  10.453  0.2159  0.1320 -0.1517
  114OSM    H2S11874   4.987   4.438  10.429 -0.5969 -0.0937  2.2104
  114OSM    C3S11875   5.193   4.488  10.473  0.4473 -0.0339 -1.3798
  114OSM    H3S11876   5.278   4.431  10.516  1.8804  2.9819  0.1183
  114OSM     O311877   5.148   4.596  10.564 -0.6041  0.0927 -0.1828
  114OSM    HO311878   5.070   4.555  10.602 -2.0049  1.2785 -1.6501
  114OSM    C4S11879   5.239   4.546  10.345  0.9557  0.4309 -0.4019
  114OSM    H4S11880   5.286   4.469  10.283  0.1521  0.2342 -0.7774
  114OSM    C5S11881   5.241   4.679  10.302 -0.1614 -0.2304 -0.1129
  114OSM    H5S11882   5.198   4.758  10.365  0.0997  0.8300 -1.2261
  114OSM    C6S11883   5.295   4.722  10.174 -0.0352  0.1881  0.4968
  114OSM    H6S11884   5.361   4.810  10.190  2.8120 -1.8580  0.7885
  114OSM    H6T11885   5.216   4.750  10.101  0.3445  2.4127  0.8763
  114OSM    C7S11886   5.412   4.641  10.110 -0.0078 -0.7008 -0.0657
  114OSM    H7S11887   5.384   4.535  10.092 -0.0179 -0.9372  1.1981
  114OSM    H7T11888   5.504   4.665  10.169  0.2036  2.8708 -1.6359
  114OSM    C8S11889   5.441   4.686   9.970 -0.0632 -0.3488  0.0261
  114OSM    H8S11890   5.478   4.790   9.979 -0.2857 -0.3959  1.7494
  114OSM    H8T11891   5.344   4.689   9.915 -0.8627  0.9629  1.4341
  114OSM    C9S11892   5.542   4.598   9.901 -0.0397  0.3067  0.5102
  114OSM    H9S11893   5.487   4.540   9.823 -1.4433  2.5751 -0.2641
  114OSM    H9T11894   5.573   4.526   9.980 -3.2882 -1.5135  0.3122
  114OSM   C10S11895   5.664   4.677   9.847 -0.1066 -0.0099  0.4092
  114OSM   H10S11896   5.701   4.731   9.937 -0.1520 -2.4718  1.9965
  114OSM   H10T11897   5.636   4.752   9.769  3.2963  0.8521 -0.1480
  114OSM   C11S11898   5.787   4.600   9.785  0.8114 -0.4084 -1.6210
  114OSM   H11S11899   5.825   4.527   9.859 -0.9192  0.0096 -0.2413
  114OSM   H11T11900   5.875   4.667   9.771  0.8581  0.1475  0.9451
  114OSM   C12S11901   5.766   4.519   9.658  0.0958  0.3624 -0.8704
  114OSM   H12S11902   5.671   4.462   9.662 -0.9923  2.0758 -1.1346
  114OSM   H12T11903   5.846   4.443   9.671  0.2065  0.3663 -1.4889
  114OSM   C13S11904   5.788   4.588   9.525 -0.3158  0.3679 -0.2812
  114OSM   H13S11905   5.878   4.650   9.541  0.0938 -0.5344  1.1430
  114OSM   H13T11906   5.706   4.660   9.502 -0.3144  1.1730  1.9654
  114OSM   C14S11907   5.817   4.488   9.413 -0.4251  0.1716 -0.3448
  114OSM   H14S11908   5.724   4.430   9.397 -0.8269  0.2467  1.5828
  114OSM   H14T11909   5.902   4.418   9.428 -2.2205 -2.0049  0.1444
  114OSM   C15S11910   5.845   4.569   9.281  0.1424  0.7786 -0.7575
  114OSM   H15S11911   5.873   4.503   9.197  2.0364  1.6126 -0.8457
  114OSM   H15T11912   5.941   4.622   9.302 -1.2589  2.5128  2.0146
  114OSM   C16S11913   5.750   4.685   9.249 -0.1503 -0.8232 -0.8020
  114OSM   H16S11914   5.762   4.766   9.325 -0.6237 -0.8412 -0.7076
  114OSM   H16T11915   5.650   4.638   9.247  0.7034 -2.7218 -1.6435
  114OSM   C17S11916   5.777   4.754   9.120 -0.1773 -0.5752 -0.3374
  114OSM   H17S11917   5.757   4.682   9.038 -2.1236  1.5951 -1.8992
  114OSM   H17T11918   5.886   4.770   9.106 -0.2643  0.0345 -0.3323
  114OSM   C18S11919   5.702   4.885   9.104 -0.3060  0.2092  0.1225
  114OSM   H18S11920   5.597   4.870   9.137 -0.9177  2.0322 -0.8964
  114OSM   H18T11921   5.718   4.917   8.999  0.9737 -0.3857  0.1092
  114OSM   H18U11922   5.759   4.951   9.173  0.2922 -2.0988  1.9832
  114OSM    C1F11923   5.004   4.216  10.295 -0.5401  0.1541 -0.1526
  114OSM     OF11924   4.892   4.222  10.347  0.1684  0.1660  0.0054
  114OSM    C2F11925   5.051   4.122  10.184 -0.2086 -0.0780  0.5025
  114OSM    H2F11926   5.056   4.024  10.236 -0.1348 -0.1623  0.3366
  114OSM    H2G11927   5.153   4.153  10.156 -0.8051  2.2542  0.6829
  114OSM    C3F11928   4.952   4.114  10.064  0.4720 -0.2911  0.1870
  114OSM    H3F11929   4.939   4.219  10.031  0.4696 -0.7939 -1.4980
  114OSM    H3G11930   4.849   4.088  10.095  1.2435 -2.4795  1.0866
  114OSM    C4F11931   5.002   4.009   9.957 -0.3600  0.8044  0.1664
  114OSM    H4F11932   4.975   3.908   9.993 -1.7939  1.6497  1.5483
  114OSM    H4G11933   5.112   4.021   9.944 -0.0468 -1.3441  0.5542
  114OSM    C5F11934   4.931   4.037   9.825 -0.1025  0.1901 -0.7510
  114OSM    H5F11935   4.823   4.043   9.850 -0.1217 -0.6870 -0.5957
  114OSM    H5G11936   4.952   3.948   9.762  0.7435  1.1334 -1.8416
  114OSM    C6F11937   4.979   4.162   9.746  0.0135  0.4086 -0.4979
  114OSM    H6F11938   5.084   4.153   9.713  0.2475 -0.4791  0.4511
  114OSM    H6G11939   4.965   4.250   9.813 -1.0838  1.4172 -1.9776
  114OSM    C7F11940   4.894   4.198   9.620 -0.1081  0.6264 -0.0272
  114OSM    H7F11941   4.949   4.263   9.548 -0.2452 -0.7534 -1.4266
  114OSM    H7G11942   4.807   4.259   9.653 -0.4550 -0.8987  2.0639
  114OSM    C8F11943   4.837   4.075   9.535  0.3717  0.1354 -0.6864
  114OSM    H8F11944   4.778   4.013   9.606  0.0757  1.5007  0.2949
  114OSM    H8G11945   4.926   4.012   9.513  1.2869  1.5341 -1.1526
  114OSM    C9F11946   4.761   4.120   9.413 -0.0730  0.0401 -0.2581
  114OSM    H9F11947   4.653   4.137   9.425 -0.6066 -0.0566 -3.6939
  114OSM   C10F11948   4.815   4.135   9.290 -0.5679  0.4383  0.5867
  114OSM   H10F11949   4.747   4.170   9.210 -2.0518  0.7356  1.9246
  114OSM   C11F11950   4.963   4.110   9.267  0.1488  0.5529 -0.2228
  114OSM   H11F11951   4.973   4.004   9.299 -0.8732 -0.3079 -2.5454
  114OSM   H11G11952   5.028   4.170   9.334  3.2311 -0.3679 -2.1588
  114OSM   C12F11953   4.986   4.118   9.121 -0.1977 -0.2753 -0.4481
  114OSM   H12F11954   4.914   4.055   9.065 -1.4460  0.0941  0.6741
  114OSM   H12G11955   5.089   4.084   9.100 -0.4458 -0.0225 -2.2032
  114OSM   C13F11956   4.969   4.273   9.080 -0.0874 -0.3565  0.1022
  114OSM   H13F11957   4.995   4.334   9.169 -1.0059 -0.3785  0.3907
  114OSM   H13G11958   4.862   4.296   9.066 -0.0746 -1.4853 -2.3501
  114OSM   C14F11959   5.043   4.318   8.957  0.0099 -0.2698  0.0818
  114OSM   H14F11960   5.000   4.265   8.869 -0.4143 -0.5874  0.4768
  114OSM   H14G11961   5.149   4.286   8.959  0.0591 -0.2204 -0.9379
  114OSM   C15F11962   5.026   4.471   8.939  0.3611 -0.2974  0.2134
  114OSM   H15F11963   5.115   4.489   8.875 -0.3261 -2.8448 -1.6360
  114OSM   H15G11964   5.035   4.518   9.039  2.3934 -0.6052  0.2115
  114OSM   C16F11965   4.905   4.495   8.853 -0.4096  1.0175  0.4793
  114OSM   H16F11966   4.812   4.487   8.914 -1.2262 -0.9655 -0.9300
  114OSM   H16G11967   4.903   4.419   8.772 -2.6845 -2.2177  3.3112
  114OSM   C17F11968   4.910   4.631   8.783 -1.1842 -0.5114  0.6111
  114OSM   H17F11969   5.014   4.645   8.748 -0.6757  0.6643  2.4355
  114OSM   H17G11970   4.892   4.715   8.853  1.3424 -0.1259  0.8806
  114OSM   C18F11971   4.818   4.654   8.660 -0.4245 -0.1203  0.0441
  114OSM   H18F11972   4.710   4.650   8.684 -0.2494 -4.0139  0.9788
  114OSM   H18G11973   4.835   4.567   8.592 -1.6813 -0.5826  0.2965
  114OSM   H18H11974   4.845   4.747   8.606  1.0665 -0.4842  0.1009
  115OSM      N11975   1.045   5.071  10.914 -0.8520 -0.0137 -0.3794
  115OSM    C1511976   0.951   5.120  11.023 -0.0250  0.5607  0.1005
  115OSM   H15A11977   0.981   5.213  11.068  3.2741  0.4405 -1.5138
  115OSM   H15B11978   0.944   5.031  11.084  3.2687  0.2871  0.2632
  115OSM   H15C11979   0.850   5.131  10.984  0.0920  0.0675 -0.3584
  115OSM    C1411980   1.057   5.190  10.823 -0.0581 -0.3008  0.7365
  115OSM   H14A11981   0.965   5.207  10.768  0.9235  1.1153 -0.5417
  115OSM   H14B11982   1.130   5.168  10.748 -0.2699  0.1182  0.3992
  115OSM   H14C11983   1.084   5.275  10.884 -1.6734  0.4379  0.4703
  115OSM    C1311984   1.181   5.046  10.967 -0.0993  0.6936  0.2106
  115OSM   H13A11985   1.161   4.963  11.033 -1.5541  0.1247 -0.8886
  115OSM   H13B11986   1.213   5.129  11.027  1.5532  0.9211 -0.9226
  115OSM   H13C11987   1.256   5.027  10.891  0.3507  1.1147  0.5501
  115OSM    C1211988   0.988   4.957  10.834 -0.2772  0.6450  0.5732
  115OSM   H12A11989   1.059   4.941  10.754  0.8489 -1.6437  1.9351
  115OSM   H12B11990   0.891   4.976  10.791 -0.6220 -0.5263  0.8189
  115OSM    C1111991   0.995   4.818  10.903 -0.6694  0.1526 -0.7037
  115OSM   H11A11992   0.943   4.757  10.826 -0.1997  1.1019 -1.8035
  115OSM   H11B11993   0.930   4.823  10.992 -0.0417 -0.9810 -0.1610
  115OSM      P11994   1.204   4.671  10.866 -0.2565 -0.0690 -0.0743
  115OSM    O1311995   1.321   4.743  10.803  0.5724  0.3559  0.0889
  115OSM    O1411996   1.250   4.566  10.957  0.6262  0.4973  0.1321
  115OSM    O1111997   1.124   4.610  10.746 -0.5679 -0.0395 -0.1641
  115OSM    O1211998   1.127   4.777  10.945  0.4471  0.5527 -0.7433
  115OSM    C1S11999   1.106   4.690  10.631 -0.0956 -0.1813  0.3034
  115OSM    H1S12000   1.157   4.788  10.616 -1.7389  0.4804 -1.3035
  115OSM    H1T12001   0.998   4.702  10.609  0.0671 -1.6960 -1.5418
  115OSM     NF12002   1.147   4.697  10.391  0.3833 -0.4263  0.5685
  115OSM    HNF12003   1.073   4.688  10.325  1.0088  1.3850 -0.4429
  115OSM    C2S12004   1.150   4.612  10.507  0.7898 -0.0692  0.4100
  115OSM    H2S12005   1.257   4.587  10.528  0.5065 -1.7550  0.0278
  115OSM    C3S12006   1.066   4.479  10.488  0.4861 -0.2647 -0.4078
  115OSM    H3S12007   0.967   4.511  10.451  0.5009  0.2544 -0.0058
  115OSM     O312008   1.047   4.391  10.598  0.3452  0.0955  0.2091
  115OSM    HO312009   1.087   4.441  10.670  1.1048 -0.0390 -0.1160
  115OSM    C4S12010   1.125   4.399  10.369  0.4844 -0.2746  0.1910
  115OSM    H4S12011   1.096   4.431  10.268  0.6789 -3.0170 -0.8205
  115OSM    C5S12012   1.208   4.293  10.384 -0.5291 -0.7041 -0.9908
  115OSM    H5S12013   1.226   4.251  10.484 -0.0501  2.5600  0.4373
  115OSM    C6S12014   1.273   4.225  10.267  0.7367  0.0143  0.2204
  115OSM    H6S12015   1.234   4.122  10.254  0.5592  0.2775 -1.4901
  115OSM    H6T12016   1.385   4.229  10.266  0.7330  0.3220 -1.0765
  115OSM    C7S12017   1.229   4.283  10.123  0.0263 -0.1823  0.0006
  115OSM    H7S12018   1.269   4.386  10.115  2.6145 -1.2055 -2.2616
  115OSM    H7T12019   1.119   4.282  10.131  0.0440 -0.2444  0.2418
  115OSM    C8S12020   1.279   4.197  10.009  0.3246  0.4378  0.9473
  115OSM    H8S12021   1.265   4.090  10.036  1.8671 -0.5576 -1.7641
  115OSM    H8T12022   1.387   4.215   9.994  0.4281 -0.6940  0.2570
  115OSM    C9S12023   1.211   4.231   9.874 -0.1191  0.3817 -0.8843
  115OSM    H9S12024   1.226   4.340   9.860  0.6117  0.6765  1.6927
  115OSM    H9T12025   1.102   4.213   9.887  0.2216 -0.4254  1.4206
  115OSM   C10S12026   1.256   4.144   9.756  0.1578 -0.0346  0.0474
  115OSM   H10S12027   1.214   4.042   9.774  0.7887 -0.2032  0.5909
  115OSM   H10T12028   1.366   4.139   9.768  0.0038  1.2986  2.6164
  115OSM   C11S12029   1.227   4.202   9.617  0.3932  0.0113 -0.1639
  115OSM   H11S12030   1.269   4.304   9.605 -0.8259  0.3647 -1.9170
  115OSM   H11T12031   1.116   4.198   9.615  0.2547 -2.9495  3.4524
  115OSM   C12S12032   1.288   4.124   9.497 -0.0826 -0.0938  0.1262
  115OSM   H12S12033   1.267   4.017   9.519 -0.2131 -0.0642  0.1436
  115OSM   H12T12034   1.398   4.143   9.499  0.2345 -1.7888  0.4216
  115OSM   C13S12035   1.238   4.164   9.355  0.9036  0.2461 -0.7326
  115OSM   H13S12036   1.260   4.271   9.340  0.7164  0.4535  0.3894
  115OSM   H13T12037   1.128   4.155   9.347  0.9900  0.5517 -2.4582
  115OSM   C14S12038   1.292   4.078   9.234  0.0748  0.1511  0.6446
  115OSM   H14S12039   1.267   4.133   9.141  2.7665  0.9060  0.2709
  115OSM   H14T12040   1.230   3.988   9.214  1.2563 -0.3975 -0.7124
  115OSM   C15S12041   1.443   4.055   9.232  0.3669  0.3984  0.6178
  115OSM   H15S12042   1.461   3.989   9.320 -1.7680 -0.5402  0.4255
  115OSM   H15T12043   1.493   4.153   9.245 -0.2511  1.4145 -3.4681
  115OSM   C16S12044   1.488   3.977   9.100 -0.2451 -0.4774 -0.7648
  115OSM   H16S12045   1.466   4.039   9.010 -1.1411 -0.9868 -0.9106
  115OSM   H16T12046   1.419   3.890   9.096 -2.9860  1.6035 -1.3496
  115OSM   C17S12047   1.635   3.942   9.095  0.8302 -0.5303  0.3165
  115OSM   H17S12048   1.685   4.040   9.107 -2.6835  1.3348  0.9944
  115OSM   H17T12049   1.646   3.903   8.992 -1.7776 -1.1824  0.2118
  115OSM   C18S12050   1.691   3.849   9.199 -0.6070  0.2600 -0.1678
  115OSM   H18S12051   1.640   3.751   9.201  2.4110 -1.4808 -1.0377
  115OSM   H18T12052   1.669   3.896   9.297 -0.9565  0.3873 -0.3080
  115OSM   H18U12053   1.801   3.832   9.197 -0.2908  1.7449  1.3483
  115OSM    C1F12054   1.227   4.794  10.365  0.1273 -0.4442  0.2924
  115OSM     OF12055   1.312   4.826  10.445  0.0800 -0.0613 -0.2478
  115OSM    C2F12056   1.190   4.870  10.244 -1.2927 -0.2745 -0.0904
  115OSM    H2F12057   1.094   4.926  10.252 -1.2321 -0.1371 -0.3004
  115OSM    H2G12058   1.170   4.803  10.157 -0.4448  0.7703 -1.1349
  115OSM    C3F12059   1.298   4.972  10.201  0.3622 -0.0222 -0.1107
  115OSM    H3F12060   1.380   4.904  10.166 -0.8896 -1.3263 -0.6258
  115OSM    H3G12061   1.338   5.042  10.277 -0.3185  1.1501 -0.8153
  115OSM    C4F12062   1.265   5.055  10.071  1.1166  0.2689  0.7682
  115OSM    H4F12063   1.186   5.130  10.094  0.5141  0.2951 -1.1821
  115OSM    H4G12064   1.224   4.988   9.993  0.2861 -1.3100  2.4790
  115OSM    C5F12065   1.389   5.124  10.023  0.2739  0.6698 -0.3789
  115OSM    H5F12066   1.461   5.045   9.995 -0.7349 -1.5093  2.6095
  115OSM    H5G12067   1.430   5.182  10.109 -0.8403  0.0839  0.5753
  115OSM    C6F12068   1.371   5.217   9.897 -0.0095 -0.8126 -0.4112
  115OSM    H6F12069   1.473   5.243   9.862 -0.5313  1.4755 -0.3300
  115OSM    H6G12070   1.314   5.306   9.930 -0.0480 -0.7723 -0.5822
  115OSM    C7F12071   1.301   5.142   9.783  0.5282  0.0693 -0.4280
  115OSM    H7F12072   1.193   5.129   9.809  0.9421 -0.5688  1.1122
  115OSM    H7G12073   1.339   5.038   9.771  1.6074  0.2981  0.7841
  115OSM    C8F12074   1.297   5.219   9.654 -0.2816  0.0119 -0.1853
  115OSM    H8F12075   1.281   5.327   9.672 -1.9202 -0.2583  0.2439
  115OSM    H8G12076   1.211   5.171   9.601 -0.6270  0.3970  0.0194
  115OSM    C9F12077   1.431   5.203   9.591 -0.3979 -0.0926  0.5494
  115OSM    H9F12078   1.516   5.222   9.658  1.5415 -1.4939 -1.3958
  115OSM   C10F12079   1.457   5.162   9.465  0.9663 -0.4060  0.2611
  115OSM   H10F12080   1.563   5.148   9.438  0.7484  1.4967 -1.9067
  115OSM   C11F12081   1.354   5.123   9.366  0.8126  0.4509 -0.2892
  115OSM   H11F12082   1.298   5.211   9.327 -0.3149 -0.4426 -0.7621
  115OSM   H11G12083   1.265   5.068   9.404  2.0554 -1.0657  0.5645
  115OSM   C12F12084   1.404   5.062   9.232 -0.5521  0.6863  0.3045
  115OSM   H12F12085   1.489   5.127   9.204 -0.4077 -0.1040 -1.1548
  115OSM   H12G12086   1.328   5.064   9.151  1.8460  0.4945 -2.1017
  115OSM   C13F12087   1.471   4.925   9.245  0.0610 -1.0384 -0.3707
  115OSM   H13F12088   1.399   4.853   9.290 -1.2376 -1.1047 -2.4127
  115OSM   H13G12089   1.559   4.922   9.314 -0.3192  0.7408  0.2302
  115OSM   C14F12090   1.509   4.863   9.115 -0.4338  0.0322  0.5869
  115OSM   H14F12091   1.423   4.874   9.045  1.9899 -1.2030 -2.8581
  115OSM   H14G12092   1.531   4.755   9.123 -0.1072  0.1883  2.0910
  115OSM   C15F12093   1.638   4.924   9.069 -0.0973 -0.4644 -0.6345
  115OSM   H15F12094   1.706   4.888   9.148 -0.7165 -2.4470 -0.9652
  115OSM   H15G12095   1.630   5.035   9.066 -0.7516 -0.4919 -0.0650
  115OSM   C16F12096   1.700   4.865   8.935  0.2169  0.0759  0.1826
  115OSM   H16F12097   1.629   4.881   8.851  1.3135  2.0009 -0.4364
  115OSM   H16G12098   1.697   4.755   8.954  0.9940 -0.2454 -1.4029
  115OSM   C17F12099   1.841   4.912   8.917 -0.5853 -0.4547  0.4525
  115OSM   H17F12100   1.884   4.874   8.822  0.2634 -1.5602  1.2501
  115OSM   H17G12101   1.907   4.884   9.003 -0.6814  1.5992  1.2615
  115OSM   C18F12102   1.852   5.075   8.913  0.5202  0.8568 -0.1871
  115OSM   H18F12103   1.853   5.126   9.011  0.4118 -1.3826  1.0278
  115OSM   H18G12104   1.766   5.102   8.847 -0.5503 -2.3443 -0.2533
  115OSM   H18H12105   1.942   5.110   8.857 -0.8219  3.3977 -0.9205
  116OSM      N12106   4.754   0.157  11.089 -0.3452 -0.3416  0.5699
  116OSM    C1512107   4.749   0.293  11.133 -0.0501 -0.4579 -0.2208
  116OSM   H15A12108   4.650   0.317  11.171  0.8282 -0.4041  2.1459
  116OSM   H15B12109   4.764   0.364  11.053 -2.4796 -1.1156 -1.3704
  116OSM   H15C12110   4.810   0.316  11.219  0.5388  0.0426 -0.7609
  116OSM    C1412111   4.888   0.106  11.052 -0.2756  0.1336  0.7757
  116OSM   H14A12112   4.937   0.172  10.982  0.0441  0.2986  1.1567
  116OSM   H14B12113   4.888   0.010  11.002  0.8901 -1.5776  3.7818
  116OSM   H14C12114   4.949   0.089  11.139 -0.1244 -0.7653  0.5112
  116OSM    C1312115   4.695   0.081  11.200  0.9317 -0.1688 -0.2737
  116OSM   H13A12116   4.588   0.093  11.198  1.1270  1.7808 -2.6585
  116OSM   H13B12117   4.728   0.121  11.295 -2.7605  0.6479  0.8327
  116OSM   H13C12118   4.728  -0.022  11.193 -0.2794 -0.4874 -1.8103
  116OSM    C1212119   4.661   0.144  10.966 -1.3369 -0.0020 -0.0878
  116OSM   H12A12120   4.555   0.153  10.988 -1.5737 -2.4773  0.0749
  116OSM   H12B12121   4.665   0.041  10.933  2.2899 -0.7599  2.2456
  116OSM    C1112122   4.704   0.228  10.844 -0.1007 -0.3880  0.1395
  116OSM   H11A12123   4.646   0.195  10.755  0.5639 -1.7143  0.1686
  116OSM   H11B12124   4.808   0.202  10.817  0.1854 -0.5728  1.3430
  116OSM      P12125   4.564   0.449  10.835  0.2637  0.1075  0.0235
  116OSM    O1312126   4.460   0.357  10.783  0.5291  0.0673 -0.2914
  116OSM    O1412127   4.527   0.527  10.954  0.2545 -0.3101  0.3028
  116OSM    O1112128   4.609   0.549  10.724  0.3958  1.1596  0.7089
  116OSM    O1212129   4.696   0.372  10.867  0.1139  0.2281 -0.0603
  116OSM    C1S12130   4.710   0.524  10.622 -0.1523 -0.2571  0.4986
  116OSM    H1S12131   4.679   0.451  10.544 -0.1085  0.0127  0.2292
  116OSM    H1T12132   4.809   0.496  10.665 -0.4065  1.2352  2.1918
  116OSM     NF12133   4.842   0.620  10.440 -0.4953  0.7091  0.5092
  116OSM    HNF12134   4.927   0.664  10.467 -0.2273  0.8235 -0.4807
  116OSM    C2S12135   4.731   0.646  10.530  0.4644  0.4764 -0.0360
  116OSM    H2S12136   4.634   0.660  10.478  0.0198  1.5342  1.0250
  116OSM    C3S12137   4.756   0.776  10.612 -0.0718 -0.5649  0.0850
  116OSM    H3S12138   4.858   0.783  10.656  0.3333  1.6677 -1.0644
  116OSM     O312139   4.666   0.803  10.717  0.4801 -0.2684 -0.0829
  116OSM    HO312140   4.627   0.716  10.722 -1.0754  0.0530 -3.6644
  116OSM    C4S12141   4.739   0.887  10.516  0.2196 -0.0479 -0.6201
  116OSM    H4S12142   4.635   0.913  10.491 -0.1560  0.3224  1.2525
  116OSM    C5S12143   4.839   0.968  10.465  0.3365 -0.0870 -0.4721
  116OSM    H5S12144   4.937   0.957  10.514  1.4747  0.5072 -2.5068
  116OSM    C6S12145   4.826   1.075  10.363 -0.2969  0.3190 -0.0256
  116OSM    H6S12146   4.926   1.082  10.317  0.6705 -1.1129  1.7198
  116OSM    H6T12147   4.791   1.166  10.417 -0.7796 -0.3383  0.7981
  116OSM    C7S12148   4.726   1.049  10.246  0.0984  0.0917  0.9218
  116OSM    H7S12149   4.625   1.042  10.290 -0.9116  0.3326 -1.2574
  116OSM    H7T12150   4.739   0.946  10.207  1.3672  0.4494  0.3313
  116OSM    C8S12151   4.735   1.159  10.142  0.6474  0.1769  0.4355
  116OSM    H8S12152   4.840   1.154  10.106  0.5421  2.2697 -0.3362
  116OSM    H8T12153   4.719   1.256  10.193 -0.7855  0.6862 -0.8946
  116OSM    C9S12154   4.638   1.144  10.023 -0.6860 -0.3176 -0.8834
  116OSM    H9S12155   4.540   1.140  10.076  0.4622  0.4000  1.4117
  116OSM    H9T12156   4.662   1.054   9.963  1.6555  0.8154 -1.7838
  116OSM   C10S12157   4.654   1.269   9.935  0.5504  0.7542  0.1648
  116OSM   H10S12158   4.758   1.297   9.909  1.0538  0.6092  1.9380
  116OSM   H10T12159   4.617   1.352   9.999 -2.3382 -0.0977 -0.2595
  116OSM   C11S12160   4.568   1.257   9.802 -0.4818 -0.5324  0.1100
  116OSM   H11S12161   4.458   1.270   9.811 -0.4126 -0.9630  1.9780
  116OSM   H11T12162   4.588   1.158   9.754  0.2417 -0.5438  0.4132
  116OSM   C12S12163   4.622   1.349   9.694  0.5919  0.2740 -0.5002
  116OSM   H12S12164   4.733   1.345   9.691  0.5762 -1.6401 -0.0100
  116OSM   H12T12165   4.591   1.451   9.726  0.9404  0.6488 -1.3410
  116OSM   C13S12166   4.559   1.300   9.562 -0.0349  0.1212 -0.2292
  116OSM   H13S12167   4.450   1.279   9.571  0.1509 -0.8939 -0.2376
  116OSM   H13T12168   4.604   1.204   9.530 -0.0387  0.2115 -0.5154
  116OSM   C14S12169   4.581   1.393   9.443  0.2567  0.2260  0.1475
  116OSM   H14S12170   4.687   1.381   9.414  0.5494  3.5782 -0.5210
  116OSM   H14T12171   4.562   1.497   9.475  0.6888 -0.6273  3.7281
  116OSM   C15S12172   4.498   1.352   9.320 -0.4022 -0.9064 -0.3154
  116OSM   H15S12173   4.392   1.378   9.340 -0.5566 -0.8314 -1.1857
  116OSM   H15T12174   4.508   1.245   9.293 -2.1990 -1.3418  0.5728
  116OSM   C16S12175   4.532   1.440   9.201 -0.3025 -0.4799 -0.2954
  116OSM   H16S12176   4.640   1.464   9.213 -0.7012  1.1086  0.4390
  116OSM   H16T12177   4.472   1.533   9.193  0.8543  0.2672 -0.5006
  116OSM   C17S12178   4.521   1.363   9.064  0.1001 -0.8126  0.6491
  116OSM   H17S12179   4.415   1.367   9.032  0.3983  0.3047 -0.2564
  116OSM   H17T12180   4.547   1.255   9.063 -0.4566 -0.9442 -0.7305
  116OSM   C18S12181   4.599   1.420   8.948 -0.2095  0.4170  1.1715
  116OSM   H18S12182   4.591   1.357   8.856 -0.9749  1.6597  0.3505
  116OSM   H18T12183   4.705   1.426   8.981  0.1902 -0.8437  0.2218
  116OSM   H18U12184   4.556   1.522   8.934 -3.1109 -1.0577 -2.6654
  116OSM    C1F12185   4.822   0.537  10.335  0.4354  0.9909  0.6593
  116OSM     OF12186   4.705   0.531  10.287 -0.7931 -0.2373  0.9618
  116OSM    C2F12187   4.937   0.457  10.282  0.4911 -0.4164 -0.4681
  116OSM    H2F12188   4.933   0.359  10.334 -1.7788  1.0148  2.3456
  116OSM    H2G12189   5.032   0.507  10.314  0.1573  0.4136 -0.7346
  116OSM    C3F12190   4.937   0.438  10.129  0.0215 -0.3812  0.5455
  116OSM    H3F12191   4.930   0.537  10.080 -0.3832 -0.7765 -0.2138
  116OSM    H3G12192   4.847   0.390  10.084  0.1352  0.7011 -0.8816
  116OSM    C4F12193   5.057   0.363  10.066 -0.0359  0.0612 -0.0820
  116OSM    H4F12194   5.055   0.256  10.096 -0.0861  0.2583  0.6270
  116OSM    H4G12195   5.155   0.402  10.102 -0.4365 -0.7174  2.0163
  116OSM    C5F12196   5.076   0.352   9.911  0.9560 -0.3513 -0.0396
  116OSM    H5F12197   4.975   0.353   9.864 -0.9331  0.2139  3.6719
  116OSM    H5G12198   5.138   0.264   9.883  0.9155  0.1656 -1.8974
  116OSM    C6F12199   5.139   0.477   9.853  0.2163  0.3437  0.1293
  116OSM    H6F12200   5.230   0.499   9.914  1.4954 -0.5475 -1.3753
  116OSM    H6G12201   5.077   0.567   9.872  1.0659  1.1472 -0.8121
  116OSM    C7F12202   5.172   0.462   9.703 -0.1465 -0.0818 -0.3605
  116OSM    H7F12203   5.084   0.445   9.638  0.9860  3.7679 -3.2468
  116OSM    H7G12204   5.246   0.380   9.694 -0.1750 -0.1619  0.1184
  116OSM    C8F12205   5.242   0.590   9.652 -0.6567  0.2149  0.0933
  116OSM    H8F12206   5.291   0.553   9.559  0.2711  0.6452  0.4014
  116OSM    H8G12207   5.323   0.620   9.722 -0.0732  1.9199 -1.2436
  116OSM    C9F12208   5.154   0.707   9.632 -0.8711 -0.1338 -0.9277
  116OSM    H9F12209   5.093   0.747   9.715  0.1996  1.0943 -0.7023
  116OSM   C10F12210   5.150   0.769   9.511 -0.4077  0.3538  0.4918
  116OSM   H10F12211   5.101   0.867   9.503  0.8797  1.1704  2.0765
  116OSM   C11F12212   5.223   0.734   9.386 -0.1035  0.5375 -0.2308
  116OSM   H11F12213   5.238   0.624   9.385  1.3802  0.6892 -2.6314
  116OSM   H11G12214   5.326   0.775   9.380  0.0681  0.0777 -0.4275
  116OSM   C12F12215   5.139   0.784   9.266 -0.2628  0.8253  0.4584
  116OSM   H12F12216   5.125   0.894   9.261 -1.2405  0.7485  1.1825
  116OSM   H12G12217   5.035   0.748   9.276  1.0191 -3.5595 -0.0494
  116OSM   C13F12218   5.201   0.741   9.134 -0.1560  0.1985  0.4125
  116OSM   H13F12219   5.227   0.633   9.138 -1.5769 -0.1382  2.7926
  116OSM   H13G12220   5.298   0.795   9.130 -1.2607  2.2448 -0.1621
  116OSM   C14F12221   5.119   0.770   9.008 -0.2426  0.1346 -0.4825
  116OSM   H14F12222   5.079   0.873   8.993 -1.0110 -0.0646  0.1061
  116OSM   H14G12223   5.024   0.712   9.005 -1.1639  1.4737  1.0764
  116OSM   C15F12224   5.192   0.731   8.876  0.6583  0.2035  0.0839
  116OSM   H15F12225   5.288   0.678   8.895  0.6867  0.4861  0.7457
  116OSM   H15G12226   5.226   0.827   8.830  1.1333  1.0149  2.0404
  116OSM   C16F12227   5.099   0.666   8.770 -0.5228 -0.3527 -0.6989
  116OSM   H16F12228   5.154   0.654   8.674  2.2898  1.4709  0.5712
  116OSM   H16G12229   5.004   0.721   8.753 -0.1444  0.9187  1.1200
  116OSM   C17F12230   5.064   0.515   8.799  0.2557  0.1390  0.3252
  116OSM   H17F12231   5.033   0.505   8.905  0.0297  1.4578  0.4002
  116OSM   H17G12232   5.153   0.449   8.800 -0.4136 -0.7849  0.8967
  116OSM   C18F12233   4.956   0.468   8.706 -0.0927  0.4339 -0.4763
  116OSM   H18F12234   4.970   0.519   8.608  1.3506 -0.0054 -0.5262
  116OSM   H18G12235   4.858   0.493   8.751  0.4999  0.6232  0.7535
  116OSM   H18H12236   4.963   0.358   8.692 -1.5022  0.2391  0.2453
  117OSM      N12237   3.253   3.424  10.738  0.0294 -0.6866  0.6628
  117OSM    C1512238   3.357   3.371  10.636  0.2337 -0.3960  0.3838
  117OSM   H15A12239   3.321   3.389  10.536 -0.0769 -1.1216  0.3631
  117OSM   H15B12240   3.366   3.264  10.636  0.7882 -0.3766 -1.0775
  117OSM   H15C12241   3.450   3.424  10.650 -0.0203  0.3337 -0.5840
  117OSM    C1412242   3.288   3.359  10.869  0.0107 -0.1845 -0.7388
  117OSM   H14A12243   3.216   3.380  10.947  0.8052 -1.1797  0.2851
  117OSM   H14B12244   3.385   3.397  10.898 -0.4838  1.3175 -0.9203
  117OSM   H14C12245   3.293   3.252  10.855  1.9850 -0.1285 -0.6508
  117OSM    C1312246   3.270   3.575  10.730  0.3170  0.0103 -0.1484
  117OSM   H13A12247   3.195   3.624  10.790  1.4897  1.5089  0.1564
  117OSM   H13B12248   3.265   3.616  10.630  0.1421  1.0173  0.2522
  117OSM   H13C12249   3.361   3.602  10.780  1.4302 -1.2153 -1.4331
  117OSM    C1212250   3.114   3.375  10.694 -0.3511 -0.5936  0.4883
  117OSM   H12A12251   3.108   3.267  10.686  1.3490 -0.5802 -2.4361
  117OSM   H12B12252   3.101   3.416  10.595  0.9755 -0.3315  0.3969
  117OSM    C1112253   2.979   3.426  10.753 -0.1852 -0.4947  0.0860
  117OSM   H11A12254   2.898   3.377  10.694 -2.7255  0.4864  2.5351
  117OSM   H11B12255   2.969   3.536  10.754 -0.9958 -0.5062  3.3281
  117OSM      P12256   2.840   3.385  10.969  0.0351  0.0555 -0.0841
  117OSM    O1312257   2.864   3.292  11.087  0.8990  0.0176  0.1964
  117OSM    O1412258   2.796   3.524  10.993  0.3685 -0.3857  0.1101
  117OSM    O1112259   2.739   3.324  10.873 -0.0042  0.1545 -0.1351
  117OSM    O1212260   2.974   3.379  10.887  0.2606 -0.0967 -0.2728
  117OSM    C1S12261   2.658   3.410  10.792 -0.5490  0.0274  0.5433
  117OSM    H1S12262   2.723   3.461  10.718 -1.7861  0.6280 -0.1756
  117OSM    H1T12263   2.609   3.482  10.860  0.3253  0.3584  0.8267
  117OSM     NF12264   2.476   3.454  10.633 -0.1233  0.4609 -0.3466
  117OSM    HNF12265   2.415   3.505  10.693  0.1662 -1.4381  1.6706
  117OSM    C2S12266   2.546   3.347  10.708 -0.6153 -0.2946  0.7645
  117OSM    H2S12267   2.592   3.287  10.626 -0.6544  1.3220 -0.4995
  117OSM    C3S12268   2.451   3.273  10.799  0.5305  0.5536 -0.1337
  117OSM    H3S12269   2.405   3.339  10.875 -0.3851 -0.2510  0.0232
  117OSM     O312270   2.526   3.181  10.878  0.0155 -0.1576 -0.0145
  117OSM    HO312271   2.607   3.229  10.894 -0.6965  0.9650  0.3583
  117OSM    C4S12272   2.351   3.206  10.718  1.1800  0.7640  0.4317
  117OSM    H4S12273   2.376   3.128  10.645 -1.9513 -2.4054  2.4591
  117OSM    C5S12274   2.223   3.241  10.710  0.4862 -0.2118 -0.0326
  117OSM    H5S12275   2.187   3.326  10.771  1.5443 -0.7350  1.3591
  117OSM    C6S12276   2.111   3.182  10.619 -0.6965  0.4056 -0.8293
  117OSM    H6S12277   2.045   3.116  10.679 -1.5925  2.7805  0.9810
  117OSM    H6T12278   2.155   3.119  10.539 -2.2038 -1.1180 -0.5186
  117OSM    C7S12279   2.019   3.288  10.562 -0.2099  0.0864 -0.0762
  117OSM    H7S12280   1.959   3.347  10.635  0.1916 -1.8943  1.9733
  117OSM    H7T12281   1.943   3.241  10.496 -0.5759  1.7804 -0.9107
  117OSM    C8S12282   2.093   3.379  10.467 -0.1218  0.0069  0.0074
  117OSM    H8S12283   2.177   3.431  10.519  0.4856  0.5701 -1.4695
  117OSM    H8T12284   2.026   3.463  10.440  1.7263  1.7725  0.6794
  117OSM    C9S12285   2.128   3.310  10.335 -0.1473 -0.0032  0.4553
  117OSM    H9S12286   2.043   3.249  10.298 -0.1888 -0.0607  0.6410
  117OSM    H9T12287   2.213   3.245  10.363  1.1301  1.8723  1.1008
  117OSM   C10S12288   2.186   3.397  10.222 -0.5159  0.3898  0.0420
  117OSM   H10S12289   2.260   3.469  10.264  0.9492 -0.6501 -0.6567
  117OSM   H10T12290   2.100   3.447  10.174 -0.9163 -0.3956 -0.0689
  117OSM   C11S12291   2.262   3.328  10.110  0.5000  0.3528  0.3240
  117OSM   H11S12292   2.211   3.241  10.064  0.8284  1.1445 -1.6406
  117OSM   H11T12293   2.350   3.275  10.152 -0.2931 -0.8746  0.4809
  117OSM   C12S12294   2.299   3.438  10.007  1.2224  0.0216  0.1832
  117OSM   H12S12295   2.356   3.516  10.063  1.9838 -0.2640 -0.1724
  117OSM   H12T12296   2.205   3.492   9.982  0.2923 -0.0523  3.0632
  117OSM   C13S12297   2.368   3.386   9.882 -0.6907 -0.1263 -0.6376
  117OSM   H13S12298   2.348   3.462   9.803  0.0125 -0.4689 -1.1524
  117OSM   H13T12299   2.321   3.295   9.840 -2.6576  0.4499  0.1648
  117OSM   C14S12300   2.521   3.384   9.911  0.2111 -0.1483 -0.0080
  117OSM   H14S12301   2.540   3.322  10.001  1.1491 -0.8394 -0.6613
  117OSM   H14T12302   2.545   3.490   9.934 -0.3572  0.3401 -1.5653
  117OSM   C15S12303   2.611   3.343   9.795  0.3224 -0.1918 -0.5205
  117OSM   H15S12304   2.575   3.241   9.769  1.3046 -1.1900  1.7243
  117OSM   H15T12305   2.714   3.327   9.834  0.4469 -0.6794 -1.0284
  117OSM   C16S12306   2.603   3.437   9.677 -0.7904  0.0028 -0.1728
  117OSM   H16S12307   2.596   3.543   9.707 -2.2437 -0.1719  0.1804
  117OSM   H16T12308   2.507   3.426   9.622 -0.1860 -0.8332 -1.0829
  117OSM   C17S12309   2.712   3.410   9.575  0.7186 -0.5977  0.0357
  117OSM   H17S12310   2.742   3.303   9.566 -0.5477 -1.2359  2.3595
  117OSM   H17T12311   2.803   3.466   9.605  0.5791  0.2689 -1.1051
  117OSM   C18S12312   2.672   3.466   9.434 -0.1832  0.9531  0.2103
  117OSM   H18S12313   2.584   3.407   9.401 -0.0097  1.4188 -1.1446
  117OSM   H18T12314   2.750   3.459   9.355 -0.5042  1.4021 -0.1500
  117OSM   H18U12315   2.639   3.571   9.446 -2.1132  0.2290  1.7427
  117OSM    C1F12316   2.519   3.506  10.516  0.0653  0.1932 -0.1874
  117OSM     OF12317   2.621   3.462  10.463  0.3853  0.0152  0.0717
  117OSM    C2F12318   2.443   3.624  10.458  0.4145 -0.0367 -0.3964
  117OSM    H2F12319   2.461   3.717  10.515 -0.1924  0.1002 -0.4244
  117OSM    H2G12320   2.334   3.607  10.451  0.2423  0.8301  0.0229
  117OSM    C3F12321   2.485   3.661  10.316  0.5360  0.5974 -0.2062
  117OSM    H3F12322   2.474   3.580  10.242  1.7705  0.7721 -0.6102
  117OSM    H3G12323   2.596   3.668  10.312  0.6125  0.5558  1.2681
  117OSM    C4F12324   2.418   3.789  10.269 -0.1963  0.0457  0.4697
  117OSM    H4F12325   2.471   3.874  10.316 -2.0193  1.2248  0.5010
  117OSM    H4G12326   2.313   3.784  10.306 -0.1515  0.4285  0.6528
  117OSM    C5F12327   2.431   3.806  10.115  0.2567 -0.5798 -0.2271
  117OSM    H5F12328   2.361   3.875  10.062  0.9041 -0.6768 -1.2250
  117OSM    H5G12329   2.407   3.708  10.067 -2.0913 -0.1566 -0.0557
  117OSM    C6F12330   2.572   3.858  10.076  0.1841  0.2676 -0.3793
  117OSM    H6F12331   2.626   3.763  10.091 -1.5434 -0.9391 -1.4142
  117OSM    H6G12332   2.599   3.933  10.154  0.3503 -0.9113  0.7259
  117OSM    C7F12333   2.586   3.903   9.936 -0.0536  0.7998  0.3679
  117OSM    H7F12334   2.684   3.950   9.912 -0.3296  2.0452  1.5862
  117OSM    H7G12335   2.508   3.977   9.909  0.0112  0.1070 -2.0429
  117OSM    C8F12336   2.577   3.787   9.836  0.6279 -0.4148  0.4220
  117OSM    H8F12337   2.475   3.746   9.852 -1.3458  4.1658  0.8321
  117OSM    H8G12338   2.642   3.699   9.859 -0.5264 -2.3722 -3.0182
  117OSM    C9F12339   2.607   3.837   9.694 -0.0063 -0.9272 -0.0595
  117OSM    H9F12340   2.696   3.901   9.687 -1.8218  1.6278 -1.9855
  117OSM   C10F12341   2.524   3.825   9.590  0.5249 -0.2660  0.0020
  117OSM   H10F12342   2.547   3.870   9.492 -0.3344  1.7588  0.6760
  117OSM   C11F12343   2.403   3.745   9.592  0.3361  0.3416  0.1690
  117OSM   H11F12344   2.342   3.773   9.680  0.2851  2.1333 -0.3739
  117OSM   H11G12345   2.415   3.635   9.596 -0.7405  0.1605 -0.9942
  117OSM   C12F12346   2.290   3.772   9.486 -0.4624  0.4702  0.1871
  117OSM   H12F12347   2.261   3.877   9.508  2.8628  1.1013  2.2913
  117OSM   H12G12348   2.204   3.704   9.505  1.2926 -2.5027 -1.7199
  117OSM   C13F12349   2.334   3.742   9.339 -0.4176 -0.6346 -0.9354
  117OSM   H13F12350   2.415   3.667   9.352 -0.4591 -0.8354 -1.7616
  117OSM   H13G12351   2.384   3.835   9.306  0.2502  0.4586  2.7549
  117OSM   C14F12352   2.219   3.689   9.248  0.2795 -0.3166 -0.4856
  117OSM   H14F12353   2.157   3.780   9.229  0.8304 -0.3274 -2.6244
  117OSM   H14G12354   2.156   3.606   9.287  0.9357 -0.2511  0.7440
  117OSM   C15F12355   2.267   3.643   9.105  0.3016  0.5965 -0.1835
  117OSM   H15F12356   2.351   3.574   9.130 -1.9064 -2.7392 -1.3319
  117OSM   H15G12357   2.295   3.739   9.056  3.3419  0.4886  1.1101
  117OSM   C16F12358   2.156   3.566   9.050  0.4511 -0.2552  0.1829
  117OSM   H16F12359   2.066   3.623   9.082  0.7894  0.4670 -0.1407
  117OSM   H16G12360   2.133   3.461   9.078 -0.2992 -0.6132 -1.6259
  117OSM   C17F12361   2.160   3.553   8.902  0.4191  0.3697  0.3515
  117OSM   H17F12362   2.254   3.499   8.881 -0.1321 -1.2133  1.7706
  117OSM   H17G12363   2.161   3.654   8.855  0.2532 -0.2363 -0.9953
  117OSM   C18F12364   2.047   3.478   8.823  0.1379 -0.8530  0.5267
  117OSM   H18F12365   2.071   3.371   8.841  1.9263 -0.7025 -0.7335
  117OSM   H18G12366   2.060   3.486   8.713 -0.0766  0.8149  0.5998
  117OSM   H18H12367   1.948   3.525   8.841  1.5645  2.2691  0.9043
  118OSM      N12368   2.737   4.904  10.796  0.3710 -0.8055  0.0772
  118OSM    C1512369   2.710   4.765  10.850 -0.1912 -0.3408 -0.2179
  118OSM   H15A12370   2.733   4.763  10.956  0.1788  4.1070 -0.0281
  118OSM   H15B12371   2.770   4.698  10.789 -1.8973  0.3833 -2.8410
  118OSM   H15C12372   2.605   4.743  10.838 -0.3331 -0.0916  0.5036
  118OSM    C1412373   2.653   5.011  10.869  0.4576  0.7431  0.0841
  118OSM   H14A12374   2.675   5.016  10.975 -1.7157 -1.2105  0.7147
  118OSM   H14B12375   2.552   4.974  10.868  1.0505 -0.9989 -2.5425
  118OSM   H14C12376   2.653   5.114  10.836 -0.3487  1.0502  0.9866
  118OSM    C1312377   2.876   4.937  10.824 -0.6921 -0.0188 -0.1044
  118OSM   H13A12378   2.933   4.851  10.791 -1.1852 -0.5869  0.5091
  118OSM   H13B12379   2.908   4.940  10.927 -1.1889 -2.4643  0.1629
  118OSM   H13C12380   2.901   5.029  10.773  2.5699 -0.3087  0.7492
  118OSM    C1212381   2.713   4.900  10.643 -0.5989  0.3032  0.3552
  118OSM   H12A12382   2.700   5.002  10.609 -0.5414 -0.2352 -1.3974
  118OSM   H12B12383   2.620   4.847  10.627  0.0732 -0.1243 -2.6514
  118OSM    C1112384   2.819   4.813  10.563  0.0511  0.1350 -0.3166
  118OSM   H11A12385   2.924   4.846  10.569  0.9163 -2.6296  1.5284
  118OSM   H11B12386   2.787   4.825  10.457  0.2223  1.1098 -0.2675
  118OSM      P12387   2.702   4.582  10.541 -0.1759 -0.1721 -0.0733
  118OSM    O1312388   2.723   4.443  10.590  0.3672  0.3384  0.0749
  118OSM    O1412389   2.573   4.646  10.567 -0.6629  0.4118 -0.3303
  118OSM    O1112390   2.741   4.587  10.392  0.8748  0.4761 -0.1245
  118OSM    O1212391   2.817   4.675  10.595 -0.7053  0.2353 -0.1624
  118OSM    C1S12392   2.868   4.552  10.343 -0.3598 -0.3844 -0.5654
  118OSM    H1S12393   2.902   4.457  10.390 -0.6539 -0.2204 -0.0169
  118OSM    H1T12394   2.938   4.633  10.375 -1.3379 -0.1901  1.2418
  118OSM     NF12395   3.003   4.498  10.147  0.2954 -0.2181 -0.6113
  118OSM    HNF12396   3.067   4.572  10.130 -0.5070  0.6104 -0.1295
  118OSM    C2S12397   2.865   4.545  10.187 -0.1048  0.3136  0.4315
  118OSM    H2S12398   2.792   4.468  10.155 -1.6224  1.1930  1.6494
  118OSM    C3S12399   2.822   4.681  10.121 -0.2117 -0.1362  0.5541
  118OSM    H3S12400   2.904   4.754  10.141  0.4195  0.2170 -2.6470
  118OSM     O312401   2.701   4.734  10.168  0.2163  0.0372 -0.0158
  118OSM    HO312402   2.670   4.669  10.232 -0.3677  1.3575  1.0870
  118OSM    C4S12403   2.802   4.657   9.972  0.2348 -0.4049  0.4125
  118OSM    H4S12404   2.716   4.595   9.943 -0.6672  1.0408 -0.0654
  118OSM    C5S12405   2.877   4.722   9.881 -0.0613  0.0572  1.0425
  118OSM    H5S12406   2.953   4.794   9.914  0.5576  0.5532 -1.3022
  118OSM    C6S12407   2.864   4.710   9.732 -0.2053 -0.1549 -0.7388
  118OSM    H6S12408   2.843   4.809   9.685 -0.4585  0.7508  1.1814
  118OSM    H6T12409   2.787   4.639   9.697  0.6027 -1.7119  0.5146
  118OSM    C7S12410   2.994   4.660   9.663 -0.0264  0.6652  0.6408
  118OSM    H7S12411   2.999   4.551   9.686 -2.3963  0.1875 -0.8496
  118OSM    H7T12412   3.083   4.721   9.691  1.8433  0.0575 -3.2694
  118OSM    C8S12413   2.983   4.668   9.512 -0.1479  0.1549  0.7155
  118OSM    H8S12414   2.968   4.774   9.481 -1.6875  0.3212  1.8635
  118OSM    H8T12415   2.903   4.599   9.478  0.4496 -0.5809  0.7869
  118OSM    C9S12416   3.096   4.616   9.421 -0.1676  0.0124 -0.6004
  118OSM    H9S12417   3.103   4.509   9.451  0.5033  0.5151  1.1544
  118OSM    H9T12418   3.193   4.663   9.448  0.5201 -0.9874 -1.2472
  118OSM   C10S12419   3.060   4.618   9.278 -0.8257 -0.0979 -0.2675
  118OSM   H10S12420   2.954   4.591   9.259 -1.4394  0.0249  2.5970
  118OSM   H10T12421   3.124   4.547   9.220  0.8250  1.2977 -0.2424
  118OSM   C11S12422   3.089   4.753   9.207  0.8989 -0.0636  0.4766
  118OSM   H11S12423   3.031   4.828   9.265 -1.6146  0.8690 -2.9415
  118OSM   H11T12424   3.044   4.754   9.106  1.8230 -0.9302  0.0424
  118OSM   C12S12425   3.231   4.803   9.198  0.3659 -0.1392  0.4699
  118OSM   H12S12426   3.281   4.774   9.293 -0.0363 -0.1138  0.6928
  118OSM   H12T12427   3.238   4.913   9.183 -0.6683 -0.3724 -2.2974
  118OSM   C13S12428   3.316   4.750   9.083 -0.6294  0.6075  0.2164
  118OSM   H13S12429   3.310   4.641   9.065  2.0980  0.5569 -0.7818
  118OSM   H13T12430   3.425   4.755   9.102 -0.6883  0.4168  0.6146
  118OSM   C14S12431   3.282   4.814   8.951  0.1134  0.7695 -0.1108
  118OSM   H14S12432   3.261   4.923   8.964 -1.8189  0.4661 -0.4695
  118OSM   H14T12433   3.190   4.773   8.906  0.0727  0.1116  0.5619
  118OSM   C15S12434   3.394   4.794   8.853 -0.2207 -0.6825  0.3487
  118OSM   H15S12435   3.395   4.685   8.832 -0.9862 -0.9804  1.7919
  118OSM   H15T12436   3.483   4.829   8.909  0.0331  0.4191 -0.6929
  118OSM   C16S12437   3.378   4.898   8.740 -0.1134  0.3527 -0.5472
  118OSM   H16S12438   3.394   4.993   8.795  0.0835 -0.8338  1.5637
  118OSM   H16T12439   3.273   4.910   8.707  0.0926  1.5610 -0.8086
  118OSM   C17S12440   3.473   4.871   8.623 -0.3768  0.1088 -0.1437
  118OSM   H17S12441   3.471   4.767   8.584  0.3688 -0.2015  0.6203
  118OSM   H17T12442   3.572   4.887   8.671 -0.4489 -2.1626  0.9045
  118OSM   C18S12443   3.465   4.975   8.509 -0.3734  0.7729 -0.9603
  118OSM   H18S12444   3.372   4.969   8.449 -0.6442  2.4960 -0.7620
  118OSM   H18T12445   3.552   4.945   8.447 -0.0525 -0.4553  0.0490
  118OSM   H18U12446   3.480   5.081   8.539 -0.5193  1.2837 -2.5725
  118OSM    C1F12447   3.032   4.372  10.155  0.5609 -0.3745  0.1305
  118OSM     OF12448   2.951   4.291  10.200  0.0932  0.5092  0.1146
  118OSM    C2F12449   3.174   4.339  10.127 -0.7296  0.3243  0.1681
  118OSM    H2F12450   3.223   4.283  10.209  2.9510  2.1702 -0.5193
  118OSM    H2G12451   3.247   4.419  10.099  0.9859 -1.7773 -1.8017
  118OSM    C3F12452   3.185   4.237  10.006 -0.1351 -0.5679  0.0238
  118OSM    H3F12453   3.093   4.175  10.001 -1.5474  1.3736  0.6748
  118OSM    H3G12454   3.268   4.170  10.038  0.9076  0.9392  0.5637
  118OSM    C4F12455   3.211   4.306   9.873 -0.4402 -0.1666  0.2847
  118OSM    H4F12456   3.301   4.369   9.891  0.8432 -1.2285 -1.9010
  118OSM    H4G12457   3.130   4.372   9.837  1.5918  2.6460  0.5034
  118OSM    C5F12458   3.239   4.207   9.759 -0.3189  0.3039 -0.5993
  118OSM    H5F12459   3.149   4.146   9.738 -0.1558  0.1171 -0.7639
  118OSM    H5G12460   3.327   4.143   9.781 -0.8126 -0.1649  0.0406
  118OSM    C6F12461   3.266   4.280   9.621  0.7318 -0.0226 -0.0120
  118OSM    H6F12462   3.167   4.318   9.590 -0.0429  0.6737  2.9489
  118OSM    H6G12463   3.295   4.216   9.535  1.8677  1.5735 -0.8759
  118OSM    C7F12464   3.369   4.392   9.648  0.1991  0.1414 -0.1090
  118OSM    H7F12465   3.457   4.356   9.706 -0.0222 -1.7620 -0.8798
  118OSM    H7G12466   3.328   4.485   9.692 -1.6303 -1.0408  0.8006
  118OSM    C8F12467   3.429   4.438   9.511 -0.4865  0.7565 -0.4922
  118OSM    H8F12468   3.497   4.520   9.542  1.8312 -2.3106  3.4776
  118OSM    H8G12469   3.344   4.469   9.446 -0.8886  2.5197  0.8147
  118OSM    C9F12470   3.505   4.338   9.433 -0.3417 -0.6917  0.5406
  118OSM    H9F12471   3.515   4.243   9.486  1.1922 -0.4290  0.7655
  118OSM   C10F12472   3.561   4.344   9.314  0.2061 -0.6460  0.6942
  118OSM   H10F12473   3.632   4.265   9.288  2.0380  0.9071  0.8083
  118OSM   C11F12474   3.551   4.465   9.223  0.0494  0.1134  0.1700
  118OSM   H11F12475   3.460   4.524   9.247 -1.4514 -2.6720  1.9625
  118OSM   H11G12476   3.544   4.424   9.119 -0.4792 -1.5577  0.8245
  118OSM   C12F12477   3.680   4.552   9.216 -0.1136  0.5050  0.1366
  118OSM   H12F12478   3.719   4.569   9.319 -0.2765 -0.6789  0.4061
  118OSM   H12G12479   3.656   4.653   9.176 -1.4772 -0.3370 -1.2709
  118OSM   C13F12480   3.798   4.503   9.127 -0.0681  0.5614 -0.0892
  118OSM   H13F12481   3.812   4.393   9.135  1.5139  0.8371  1.5548
  118OSM   H13G12482   3.890   4.559   9.151 -0.3302  0.1030  2.1550
  118OSM   C14F12483   3.783   4.532   8.976  0.0221 -0.3490  0.9972
  118OSM   H14F12484   3.778   4.643   8.966  2.1324 -0.4166 -2.7522
  118OSM   H14G12485   3.688   4.482   8.948  0.2209  0.0225 -0.4614
  118OSM   C15F12486   3.897   4.486   8.889  0.1835 -0.4049  0.1867
  118OSM   H15F12487   3.925   4.383   8.921  3.2884 -0.6452 -2.7757
  118OSM   H15G12488   3.992   4.541   8.908  1.3122 -2.3898  0.5197
  118OSM   C16F12489   3.852   4.474   8.748  0.2136 -0.1864  0.6155
  118OSM   H16F12490   3.760   4.413   8.737  0.1356  0.0831 -0.2589
  118OSM   H16G12491   3.916   4.407   8.686 -1.2197 -1.9600  0.9835
  118OSM   C17F12492   3.840   4.608   8.672  0.2474 -0.5206 -0.0255
  118OSM   H17F12493   3.794   4.690   8.731  1.5585 -1.5977  2.6275
  118OSM   H17G12494   3.775   4.585   8.585  0.9963 -0.4927 -0.6036
  118OSM   C18F12495   3.966   4.662   8.614 -0.2571 -0.2632  0.3655
  118OSM   H18F12496   3.945   4.749   8.548  4.3513  0.6565 -0.2591
  118OSM   H18G12497   4.013   4.598   8.537 -2.2255  0.2072 -1.3114
  118OSM   H18H12498   4.033   4.698   8.696  0.2626 -0.2622 -0.0485
  119OSM      N12499   3.500   4.485  10.998  0.1325  0.3465  0.2567
  119OSM    C1512500   3.572   4.605  11.050  0.6601 -0.4261 -0.4333
  119OSM   H15A12501   3.665   4.585  11.099  1.3101  0.9813 -1.0485
  119OSM   H15B12502   3.502   4.654  11.116 -1.6303 -2.1811 -1.3923
  119OSM   H15C12503   3.601   4.678  10.976  0.1757  0.1785 -0.0395
  119OSM    C1412504   3.455   4.398  11.108 -0.3327 -0.4050 -0.2827
  119OSM   H14A12505   3.382   4.446  11.172  0.0817 -1.7886  1.3158
  119OSM   H14B12506   3.537   4.360  11.168  0.6955 -1.0529 -2.0387
  119OSM   H14C12507   3.411   4.307  11.073 -0.2850 -1.5105  2.3004
  119OSM    C1312508   3.380   4.533  10.926  0.4005 -0.1871  0.1183
  119OSM   H13A12509   3.402   4.612  10.856 -1.8608  0.7115  0.3226
  119OSM   H13B12510   3.304   4.585  10.982 -1.2832  0.2955 -2.4530
  119OSM   H13C12511   3.325   4.454  10.878  2.0832 -0.7121 -1.0335
  119OSM    C1212512   3.594   4.408  10.903  0.0856 -0.1879 -0.3469
  119OSM   H12A12513   3.634   4.482  10.835 -1.3453 -1.0702 -2.2574
  119OSM   H12B12514   3.545   4.333  10.842  3.6612 -3.3672  0.3153
  119OSM    C1112515   3.732   4.351  10.961  0.7879  0.3020 -0.5310
  119OSM   H11A12516   3.778   4.434  11.019 -3.3724  2.2265  0.4396
  119OSM   H11B12517   3.787   4.348  10.865 -1.3791 -0.8060 -1.8239
  119OSM      P12518   3.776   4.103  10.992  0.0867 -0.2397  0.2725
  119OSM    O1312519   3.917   4.084  11.035  0.7666  0.5029 -0.3508
  119OSM    O1412520   3.680   3.992  11.018 -0.0325 -0.0690 -0.2676
  119OSM    O1112521   3.782   4.116  10.837 -0.2603  0.4196  0.0683
  119OSM    O1212522   3.713   4.237  11.043 -0.1250  0.1389 -0.4697
  119OSM    C1S12523   3.900   4.121  10.758  0.7100  0.2009 -0.0658
  119OSM    H1S12524   3.978   4.053  10.799  1.0239  0.5207 -0.1241
  119OSM    H1T12525   3.949   4.221  10.761 -0.4011  0.7352  0.6159
  119OSM     NF12526   3.978   4.107  10.514  0.8605  0.2090 -0.1567
  119OSM    HNF12527   3.998   4.199  10.482 -0.5898  0.4726 -0.3702
  119OSM    C2S12528   3.867   4.104  10.610  0.1049  0.7871  0.4450
  119OSM    H2S12529   3.826   4.001  10.603  0.9983  0.4203  0.4301
  119OSM    C3S12530   3.757   4.205  10.557 -0.3076 -0.5011  0.5711
  119OSM    H3S12531   3.807   4.303  10.540 -2.2875  0.4655  0.0627
  119OSM     O312532   3.659   4.240  10.651 -0.6782 -0.1727 -0.6139
  119OSM    HO312533   3.698   4.196  10.728 -1.1494  0.5073  0.0285
  119OSM    C4S12534   3.700   4.160  10.429 -0.4273  0.0853 -0.3423
  119OSM    H4S12535   3.711   4.051  10.415  0.6591  0.2398 -0.7858
  119OSM    C5S12536   3.656   4.238  10.323  0.4860  0.2214 -0.3731
  119OSM    H5S12537   3.680   4.344  10.340 -0.1246 -0.0161  2.4809
  119OSM    C6S12538   3.584   4.190  10.200  1.3847  0.4405  0.9443
  119OSM    H6S12539   3.479   4.222  10.183  1.5060 -0.2967 -1.6480
  119OSM    H6T12540   3.563   4.081  10.207  0.5254  0.3869 -1.4995
  119OSM    C7S12541   3.676   4.217  10.077  0.6837 -0.1532  0.1561
  119OSM    H7S12542   3.771   4.163  10.097  0.2862 -1.0785 -0.3771
  119OSM    H7T12543   3.689   4.327  10.064  1.1246  0.0534  2.0338
  119OSM    C8S12544   3.620   4.168   9.945 -0.2750 -0.2548  0.1279
  119OSM    H8S12545   3.520   4.211   9.925 -0.3997 -0.2627  0.6989
  119OSM    H8T12546   3.623   4.057   9.940  2.1010 -0.1674 -2.3152
  119OSM    C9S12547   3.706   4.206   9.821 -0.3604 -0.0902  0.3026
  119OSM    H9S12548   3.809   4.186   9.859 -0.4216 -1.5096 -0.2258
  119OSM    H9T12549   3.692   4.315   9.808  1.5282  0.0261 -1.1514
  119OSM   C10S12550   3.679   4.112   9.709 -0.4469 -0.2299 -0.1204
  119OSM   H10S12551   3.576   4.103   9.670  0.0670  1.6750 -2.1338
  119OSM   H10T12552   3.712   4.010   9.738 -0.9826 -0.9078 -1.7509
  119OSM   C11S12553   3.782   4.129   9.590  0.2356  0.0484 -0.3246
  119OSM   H11S12554   3.883   4.127   9.636  0.5427 -2.8531 -0.9207
  119OSM   H11T12555   3.771   4.225   9.536  1.3694  0.7072  0.5982
  119OSM   C12S12556   3.775   4.011   9.496  0.4566 -0.1055  0.1390
  119OSM   H12S12557   3.672   4.005   9.454  0.7455  2.6650 -1.1267
  119OSM   H12T12558   3.794   3.910   9.539  0.1594 -1.4048 -2.5616
  119OSM   C13S12559   3.863   4.020   9.368 -0.8013 -0.4179  0.2310
  119OSM   H13S12560   3.972   4.012   9.392 -0.4404 -0.2441 -1.2505
  119OSM   H13T12561   3.857   4.121   9.322  0.7167  0.0878  1.0614
  119OSM   C14S12562   3.839   3.909   9.262  0.3958 -0.1899 -0.0665
  119OSM   H14S12563   3.742   3.939   9.217  0.5936 -0.1393 -0.4645
  119OSM   H14T12564   3.832   3.815   9.320  1.8007  0.9344  2.0507
  119OSM   C15S12565   3.940   3.899   9.151 -0.2447 -0.1857  0.2834
  119OSM   H15S12566   4.040   3.856   9.174  1.1614  2.8546  0.3604
  119OSM   H15T12567   3.962   3.998   9.106  0.2068 -0.6795 -0.6059
  119OSM   C16S12568   3.895   3.827   9.028 -0.4976  0.3646  0.4056
  119OSM   H16S12569   3.805   3.875   8.984 -1.9291 -0.0895  2.6997
  119OSM   H16T12570   3.863   3.728   9.067  0.1080 -0.0484 -0.1170
  119OSM   C17S12571   4.000   3.806   8.926  0.3673  0.4918 -0.7872
  119OSM   H17S12572   3.972   3.740   8.841 -1.9902 -1.2996  1.2216
  119OSM   H17T12573   4.078   3.754   8.986 -0.4571  2.4038  2.1422
  119OSM   C18S12574   4.076   3.934   8.870 -0.3435  0.4691 -0.1846
  119OSM   H18S12575   4.139   3.983   8.949  0.9078  2.1269 -2.1098
  119OSM   H18T12576   4.005   4.015   8.843 -1.5282 -0.8674 -1.1858
  119OSM   H18U12577   4.147   3.911   8.788  1.2565 -0.0516  1.2809
  119OSM    C1F12578   4.064   4.005  10.497 -0.4735 -0.2070  0.0714
  119OSM     OF12579   4.082   3.904  10.569  0.3115 -0.2346 -0.3573
  119OSM    C2F12580   4.133   4.006  10.368  0.3837  0.1599 -0.2107
  119OSM    H2F12581   4.217   3.934  10.362  1.5074  1.5312 -1.5730
  119OSM    H2G12582   4.185   4.104  10.367  0.1119  0.3209  0.4476
  119OSM    C3F12583   4.030   3.989  10.253  0.8558  1.3977  0.0098
  119OSM    H3F12584   3.962   4.076  10.258 -1.4919 -0.4029  1.8483
  119OSM    H3G12585   3.961   3.902  10.251 -2.6969  4.0131  0.0042
  119OSM    C4F12586   4.105   4.013  10.118 -0.8732 -0.5933  0.3751
  119OSM    H4F12587   4.165   3.921  10.103 -1.6352 -1.2805  1.3844
  119OSM    H4G12588   4.169   4.101  10.138  0.2718 -1.6999  1.8319
  119OSM    C5F12589   3.998   4.028  10.007  0.3642 -0.0665 -0.1203
  119OSM    H5F12590   4.031   4.059   9.905 -2.4499  0.6697 -0.8898
  119OSM    H5G12591   3.944   4.122  10.034  0.7250  0.7281 -1.9861
  119OSM    C6F12592   3.903   3.913   9.988  1.0582  0.3388  0.6067
  119OSM    H6F12593   3.835   3.945   9.906 -1.2686 -1.7149  1.6197
  119OSM    H6G12594   3.841   3.901  10.079  2.1067  2.0840  1.6095
  119OSM    C7F12595   3.966   3.776   9.959 -0.1485 -0.6853  0.1089
  119OSM    H7F12596   3.883   3.704   9.946 -1.8464  0.3806  3.7955
  119OSM    H7G12597   4.016   3.747  10.054 -0.9415  0.5224  0.9228
  119OSM    C8F12598   4.071   3.772   9.843  0.0648 -0.6696  0.2336
  119OSM    H8F12599   4.100   3.665   9.840 -2.6482 -1.4742  0.1033
  119OSM    H8G12600   4.164   3.829   9.867  0.3736 -0.8952 -0.4165
  119OSM    C9F12601   4.013   3.816   9.713 -0.8513 -0.2729  0.7231
  119OSM    H9F12602   3.984   3.922   9.704 -0.7346 -0.3434 -0.5904
  119OSM   C10F12603   4.018   3.747   9.597  1.2548  0.0426  0.2181
  119OSM   H10F12604   3.987   3.795   9.503  2.2868  0.5827  0.1422
  119OSM   C11F12605   4.076   3.605   9.577  0.2060 -0.3616 -0.1071
  119OSM   H11F12606   4.033   3.558   9.486  0.0010 -0.3181 -0.0322
  119OSM   H11G12607   4.051   3.541   9.665 -2.9276  0.9687  0.1049
  119OSM   C12F12608   4.226   3.611   9.560  0.3917 -0.7362 -0.6563
  119OSM   H12F12609   4.264   3.508   9.579  0.3646 -0.4558  1.0864
  119OSM   H12G12610   4.258   3.668   9.650 -1.8545 -1.3065  0.5911
  119OSM   C13F12611   4.283   3.687   9.440 -0.1303 -0.2504  0.4757
  119OSM   H13F12612   4.392   3.699   9.458  0.0563 -0.9063 -0.1836
  119OSM   H13G12613   4.240   3.789   9.437  0.8208  0.1457 -0.2323
  119OSM   C14F12614   4.262   3.615   9.305 -0.5465 -0.2800 -0.2271
  119OSM   H14F12615   4.194   3.684   9.250 -0.6431 -0.6758 -0.6091
  119OSM   H14G12616   4.214   3.518   9.327  0.7189 -0.5791  1.3596
  119OSM   C15F12617   4.388   3.598   9.225  0.4880  0.4298  0.1883
  119OSM   H15F12618   4.445   3.515   9.273  0.3829  0.2105 -0.0640
  119OSM   H15G12619   4.452   3.689   9.232  1.0344  0.3604 -2.8352
  119OSM   C16F12620   4.351   3.554   9.084  0.3721  0.1921 -0.1654
  119OSM   H16F12621   4.440   3.566   9.017  0.7514  1.1683  0.4976
  119OSM   H16G12622   4.286   3.637   9.049 -1.0750  0.6685  3.2776
  119OSM   C17F12623   4.263   3.425   9.075  0.2399 -1.3523  0.2961
  119OSM   H17F12624   4.167   3.444   9.126  1.4293  1.0741  1.7651
  119OSM   H17G12625   4.319   3.345   9.128  0.1228 -2.2607 -0.8926
  119OSM   C18F12626   4.238   3.394   8.923  0.0386  0.4183  0.6342
  119OSM   H18F12627   4.333   3.355   8.880 -0.3261  2.4010 -2.2160
  119OSM   H18G12628   4.220   3.489   8.870 -0.3489 -0.2340 -0.4422
  119OSM   H18H12629   4.147   3.332   8.910 -0.8944  1.6648  1.0819
  120OSM      N12630   5.440   5.981  10.703 -0.2030 -0.1557  0.3314
  120OSM    C1512631   5.396   6.122  10.674 -1.0292  0.3910  0.0559
  120OSM   H15A12632   5.466   6.197  10.710 -0.4046 -0.1115 -0.0830
  120OSM   H15B12633   5.301   6.149  10.717 -1.0078 -1.8028  1.6646
  120OSM   H15C12634   5.383   6.130  10.567 -3.5066 -1.3959  0.1601
  120OSM    C1412635   5.582   5.976  10.658 -0.1482  0.7929  0.7139
  120OSM   H14A12636   5.620   5.875  10.647 -0.2255  0.9703 -1.6960
  120OSM   H14B12637   5.650   6.039  10.713 -0.1720 -0.4452  2.2216
  120OSM   H14C12638   5.587   6.017  10.558  0.1742  0.6720  0.6797
  120OSM    C1312639   5.443   5.954  10.848  0.4674  0.2391  0.1101
  120OSM   H13A12640   5.497   6.017  10.917  0.2544 -0.0760  0.5667
  120OSM   H13B12641   5.472   5.851  10.866  3.1294  1.0338  0.9221
  120OSM   H13C12642   5.344   5.967  10.887 -0.9651  0.2751 -3.1746
  120OSM    C1212643   5.341   5.878  10.636 -0.1092  0.0908 -0.0216
  120OSM   H12A12644   5.366   5.875  10.531 -0.7416 -0.8606 -0.1627
  120OSM   H12B12645   5.238   5.908  10.644 -0.5223 -1.3542  0.4723
  120OSM    C1112646   5.337   5.731  10.690  0.3129 -0.0282  0.4776
  120OSM   H11A12647   5.275   5.661  10.630 -0.6151 -0.4790  1.9125
  120OSM   H11B12648   5.292   5.735  10.791 -0.5941  0.2586  0.0699
  120OSM      P12649   5.476   5.525  10.759  0.0346 -0.2344 -0.1646
  120OSM    O1312650   5.605   5.511  10.831 -0.3373  0.2010 -0.2616
  120OSM    O1412651   5.355   5.493  10.839 -0.6436 -0.1655  0.5095
  120OSM    O1112652   5.486   5.440  10.626  0.4091  0.0801  0.2113
  120OSM    O1212653   5.468   5.672  10.705 -0.4108 -0.1456  0.2972
  120OSM    C1S12654   5.513   5.493  10.493 -0.7951 -0.3998 -0.3474
  120OSM    H1S12655   5.624   5.501  10.484 -0.8065 -0.4227 -0.5107
  120OSM    H1T12656   5.460   5.588  10.474 -0.4948  0.2510  1.8660
  120OSM     NF12657   5.510   5.471  10.249 -0.4450 -0.6384 -0.3910
  120OSM    HNF12658   5.435   5.515  10.201 -0.9139 -0.3440  0.5742
  120OSM    C2S12659   5.479   5.398  10.374 -0.2666  0.2093 -0.1195
  120OSM    H2S12660   5.541   5.306  10.376  1.0070  1.0473  1.8770
  120OSM    C3S12661   5.330   5.362  10.394  0.2693  0.7217  0.1164
  120OSM    H3S12662   5.266   5.453  10.406  0.6912  0.8751  1.2905
  120OSM     O312663   5.294   5.286  10.515  0.3358  0.3669 -0.4360
  120OSM    HO312664   5.363   5.312  10.576  0.3824  1.7975 -1.0548
  120OSM    C4S12665   5.290   5.289  10.268  0.2405 -0.5880 -0.2763
  120OSM    H4S12666   5.256   5.367  10.198  0.0073 -1.1676 -0.8100
  120OSM    C5S12667   5.323   5.167  10.224 -0.2863  0.4282  0.2117
  120OSM    H5S12668   5.397   5.105  10.277  1.6341  1.4413 -1.1622
  120OSM    C6S12669   5.278   5.108  10.098 -0.4824  0.4639  0.8365
  120OSM    H6S12670   5.182   5.154  10.065 -0.0565 -0.0046 -1.1812
  120OSM    H6T12671   5.287   4.999  10.083  0.3304  0.9942 -4.9339
  120OSM    C7S12672   5.380   5.143   9.986  0.2168  0.5656 -0.0498
  120OSM    H7S12673   5.484   5.123  10.020  0.0377 -0.4188 -0.0502
  120OSM    H7T12674   5.377   5.252   9.963 -0.5306  0.3726 -0.9348
  120OSM    C8S12675   5.373   5.074   9.851  0.0414  0.6450  0.1709
  120OSM    H8S12676   5.269   5.083   9.812  0.4470  0.6328 -0.9458
  120OSM    H8T12677   5.407   4.969   9.858  0.7634  0.9371  1.4024
  120OSM    C9S12678   5.473   5.131   9.747 -0.2420  0.1157 -0.4373
  120OSM    H9S12679   5.573   5.145   9.794 -1.1894  0.1089  1.6618
  120OSM    H9T12680   5.435   5.235   9.736 -0.2459  0.0778 -0.7973
  120OSM   C10S12681   5.458   5.061   9.613  0.5423 -0.4394  0.2407
  120OSM   H10S12682   5.353   5.025   9.606  1.0335 -1.5265 -2.3609
  120OSM   H10T12683   5.523   4.971   9.610  2.0305  0.4792  2.0843
  120OSM   C11S12684   5.491   5.159   9.492  0.4834  0.2453  0.0819
  120OSM   H11S12685   5.423   5.246   9.500  0.2235 -0.0866  2.3228
  120OSM   H11T12686   5.483   5.100   9.398  2.1301 -2.1302  1.3058
  120OSM   C12S12687   5.639   5.211   9.490  0.2948  0.3703 -0.2912
  120OSM   H12S12688   5.698   5.117   9.481 -1.9874 -1.4297  2.1566
  120OSM   H12T12689   5.671   5.260   9.584  3.4848  1.0273 -1.5712
  120OSM   C13S12690   5.672   5.296   9.367 -0.0949  0.7074  0.3600
  120OSM   H13S12691   5.641   5.247   9.272  1.6894  0.4955 -0.1329
  120OSM   H13T12692   5.782   5.302   9.364 -0.1443  1.3832 -1.4547
  120OSM   C14S12693   5.634   5.441   9.393  0.0156  0.0228  0.1938
  120OSM   H14S12694   5.684   5.470   9.488 -0.6984 -0.6723  0.7914
  120OSM   H14T12695   5.525   5.460   9.404 -0.2586  0.6393 -2.8227
  120OSM   C15S12696   5.697   5.524   9.284  0.4264 -1.1009  0.2342
  120OSM   H15S12697   5.805   5.504   9.271  1.6760  4.0794  0.4657
  120OSM   H15T12698   5.684   5.633   9.303 -0.4123 -0.9600 -0.9939
  120OSM   C16S12699   5.624   5.495   9.147  0.2561 -0.2137 -0.3630
  120OSM   H16S12700   5.518   5.527   9.153  0.2359  0.7258 -3.6070
  120OSM   H16T12701   5.628   5.387   9.122  0.0816 -1.3938  3.9427
  120OSM   C17S12702   5.693   5.572   9.029 -0.1554 -0.1936  0.2307
  120OSM   H17S12703   5.790   5.518   9.018 -0.3477 -0.1702 -2.0449
  120OSM   H17T12704   5.709   5.679   9.055  1.0313 -0.5443  1.0551
  120OSM   C18S12705   5.624   5.554   8.898 -0.2736  0.0421  0.4538
  120OSM   H18S12706   5.531   5.615   8.899  0.3868  1.0663  1.0586
  120OSM   H18T12707   5.608   5.448   8.868 -1.1230 -0.0063  1.0301
  120OSM   H18U12708   5.692   5.604   8.826 -0.5477  0.0900  0.2264
  120OSM    C1F12709   5.635   5.479  10.199 -0.0059 -0.1818 -0.0224
  120OSM     OF12710   5.732   5.430  10.256 -0.1026 -0.1009 -0.0284
  120OSM    C2F12711   5.647   5.536  10.061  0.2846 -0.1829 -0.4662
  120OSM    H2F12712   5.655   5.644  10.083 -1.3691 -0.2118  0.4570
  120OSM    H2G12713   5.551   5.510  10.011 -0.4479 -0.4563  1.0028
  120OSM    C3F12714   5.768   5.487   9.978  0.2743  0.4411 -0.3152
  120OSM    H3F12715   5.736   5.388   9.938  1.4357  0.5620 -1.6500
  120OSM    H3G12716   5.853   5.478  10.049  1.2226 -1.5005 -1.5888
  120OSM    C4F12717   5.802   5.584   9.859  0.0677 -0.3337  0.2521
  120OSM    H4F12718   5.849   5.681   9.888  0.7677 -0.0904 -1.5810
  120OSM    H4G12719   5.709   5.618   9.810 -0.0876 -1.9945 -0.6714
  120OSM    C5F12720   5.899   5.517   9.759  0.3703 -0.2056 -1.4077
  120OSM    H5F12721   5.834   5.438   9.715 -1.6103  1.2395 -1.2058
  120OSM    H5G12722   5.980   5.465   9.814 -0.9103  0.4838  1.2666
  120OSM    C6F12723   5.956   5.603   9.646  0.1967 -0.2491  0.3513
  120OSM    H6F12724   6.043   5.660   9.683 -1.1253  1.3706  1.0907
  120OSM    H6G12725   5.879   5.667   9.597  1.6244  2.3248  1.3077
  120OSM    C7F12726   6.020   5.517   9.531  0.2555  0.4156 -0.6252
  120OSM    H7F12727   5.945   5.470   9.463 -0.5273 -1.3513  1.3277
  120OSM    H7G12728   6.075   5.439   9.587 -0.5490  0.2341 -0.0583
  120OSM    C8F12729   6.122   5.601   9.449 -0.3504  0.3722  0.0902
  120OSM    H8F12730   6.192   5.638   9.526  1.9013 -0.6705 -1.3668
  120OSM    H8G12731   6.070   5.681   9.394 -0.4773  0.1988 -0.0449
  120OSM    C9F12732   6.201   5.513   9.352  0.6215  1.2483  0.4666
  120OSM    H9F12733   6.289   5.471   9.402  0.1725  1.2287  1.2473
  120OSM   C10F12734   6.180   5.490   9.220  0.4207 -0.0499 -0.3517
  120OSM   H10F12735   6.246   5.420   9.167  0.7653 -0.4907  0.6324
  120OSM   C11F12736   6.074   5.553   9.131 -0.5757  0.3192 -0.7323
  120OSM   H11F12737   5.986   5.592   9.185 -1.4608  0.4232 -2.1956
  120OSM   H11G12738   6.041   5.470   9.065 -2.0303 -0.3268  0.7570
  120OSM   C12F12739   6.134   5.657   9.024  0.1887  0.1859  0.0889
  120OSM   H12F12740   6.138   5.761   9.064  2.3876 -0.0276  0.5093
  120OSM   H12G12741   6.060   5.665   8.941  0.1492 -0.1557  0.0879
  120OSM   C13F12742   6.270   5.623   8.961 -0.3309 -0.8262 -0.2127
  120OSM   H13F12743   6.285   5.513   8.950  0.6417 -0.6285 -1.0055
  120OSM   H13G12744   6.358   5.655   9.021 -0.4469 -1.1714  0.1506
  120OSM   C14F12745   6.275   5.700   8.827 -0.0233 -0.2088 -0.0314
  120OSM   H14F12746   6.270   5.810   8.843  0.3785  0.2877 -2.8851
  120OSM   H14G12747   6.180   5.688   8.770  1.1845  0.8129 -2.4093
  120OSM   C15F12748   6.406   5.672   8.754 -0.0535  0.6226  0.3164
  120OSM   H15F12749   6.409   5.567   8.718  1.4812  1.2290 -1.5190
  120OSM   H15G12750   6.490   5.673   8.826  0.9538 -0.6320 -0.7786
  120OSM   C16F12751   6.431   5.771   8.641 -0.2952 -0.4239 -0.2559
  120OSM   H16F12752   6.534   5.766   8.601  0.9055  1.3419  2.3501
  120OSM   H16G12753   6.427   5.868   8.695  1.4470  0.0089 -0.8567
  120OSM   C17F12754   6.334   5.756   8.530 -0.5234  0.3999 -0.4520
  120OSM   H17F12755   6.241   5.810   8.557 -0.8750 -0.6152  0.4607
  120OSM   H17G12756   6.307   5.649   8.515 -0.4711 -0.0210  2.0331
  120OSM   C18F12757   6.388   5.804   8.393  0.6653 -0.1485 -0.5073
  120OSM   H18F12758   6.419   5.911   8.400 -0.5843  0.2135 -0.2187
  120OSM   H18G12759   6.305   5.800   8.320  1.0620  2.2567 -1.1712
  120OSM   H18H12760   6.477   5.746   8.359  0.0787 -0.6976 -1.1121
  121OSM      N12761   1.590   2.405  11.102  0.3981 -0.5016 -0.0047
  121OSM    C1512762   1.532   2.410  11.234  0.3047 -0.6521 -0.0791
  121OSM   H15A12763   1.609   2.433  11.307  1.3516 -3.6063 -0.1114
  121OSM   H15B12764   1.501   2.317  11.280  1.9101 -0.5150  1.3943
  121OSM   H15C12765   1.457   2.486  11.247  1.4649  0.5011  0.1904
  121OSM    C1412766   1.668   2.281  11.087  0.3692 -0.7045 -0.6043
  121OSM   H14A12767   1.739   2.267  11.168  0.4822  1.6286 -0.2336
  121OSM   H14B12768   1.729   2.291  10.999  1.1331  2.2878  0.1547
  121OSM   H14C12769   1.609   2.191  11.080  0.0045 -0.4755 -0.4811
  121OSM    C1312770   1.472   2.415  11.004  0.0832  0.4900 -0.2410
  121OSM   H13A12771   1.414   2.503  11.028  1.4601  1.3782 -0.0515
  121OSM   H13B12772   1.416   2.324  10.996  0.0167  0.5858 -1.0374
  121OSM   H13C12773   1.503   2.445  10.904  0.7322  1.2412  0.1661
  121OSM    C1212774   1.672   2.528  11.075  0.5641  0.4840  0.8989
  121OSM   H12A12775   1.755   2.539  11.143  1.9194  1.8220 -0.8606
  121OSM   H12B12776   1.605   2.609  11.099 -2.1953 -0.6572 -2.1976
  121OSM    C1112777   1.727   2.541  10.935  0.4540 -0.6815  1.1562
  121OSM   H11A12778   1.761   2.646  10.924 -0.9456 -0.4322 -2.3098
  121OSM   H11B12779   1.639   2.537  10.866  0.5740  1.2571  0.8168
  121OSM      P12780   1.978   2.483  10.920 -0.0195  0.1008 -0.4651
  121OSM    O1312781   1.991   2.524  11.058 -0.2788  0.3763 -0.5849
  121OSM    O1412782   2.066   2.374  10.873  0.8309  0.2586 -0.1200
  121OSM    O1112783   1.990   2.608  10.829 -0.3463  0.1527 -0.2478
  121OSM    O1212784   1.829   2.448  10.900  0.6560 -0.4031  0.2538
  121OSM    C1S12785   1.988   2.609  10.687 -0.1191  0.1459 -0.3667
  121OSM    H1S12786   1.958   2.508  10.651  0.4663 -0.0081 -0.4383
  121OSM    H1T12787   2.085   2.646  10.647  0.3062 -0.9382 -0.3752
  121OSM     NF12788   1.881   2.692  10.466 -0.4421 -0.0682  0.2956
  121OSM    HNF12789   1.938   2.750  10.410  2.3640 -3.4860 -0.7806
  121OSM    C2S12790   1.886   2.702  10.611  0.5281 -0.5262 -0.7171
  121OSM    H2S12791   1.787   2.680  10.655 -1.0623  2.2474 -2.6321
  121OSM    C3S12792   1.907   2.854  10.651  0.0090  0.7045 -0.2047
  121OSM    H3S12793   1.986   2.892  10.583  0.9531 -1.2313 -0.2692
  121OSM     O312794   1.934   2.884  10.789  0.3702 -0.4273  0.7795
  121OSM    HO312795   1.956   2.793  10.809  1.3466 -0.2546  0.5747
  121OSM    C4S12796   1.786   2.932  10.617 -0.5983  0.6581  0.4598
  121OSM    H4S12797   1.707   2.906  10.690 -1.2111  0.7339 -0.1657
  121OSM    C5S12798   1.768   3.032  10.531 -0.3460  0.4539 -0.2708
  121OSM    H5S12799   1.860   3.065  10.480 -0.1449 -0.9585 -0.8921
  121OSM    C6S12800   1.644   3.114  10.522 -0.6021  1.1580  0.3657
  121OSM    H6S12801   1.669   3.221  10.507 -1.1863  1.2067 -0.2875
  121OSM    H6T12802   1.599   3.117  10.624 -1.7451 -1.2121  0.0051
  121OSM    C7S12803   1.536   3.074  10.413 -0.3008  0.1741 -0.5249
  121OSM    H7S12804   1.451   3.139  10.443 -0.1886  0.8226 -1.5696
  121OSM    H7T12805   1.489   2.973  10.412  0.5586 -0.2352 -0.9243
  121OSM    C8S12806   1.584   3.093  10.267 -0.3770 -0.2777 -0.3090
  121OSM    H8S12807   1.674   3.030  10.252  0.1762  0.4777 -0.2244
  121OSM    H8T12808   1.614   3.200  10.257 -1.9277  0.2396  0.2642
  121OSM    C9S12809   1.484   3.068  10.154  0.2642  0.0943  0.5110
  121OSM    H9S12810   1.401   3.136  10.183 -0.6938 -0.2349 -1.3072
  121OSM    H9T12811   1.459   2.960  10.155  2.4188 -0.4716 -0.2156
  121OSM   C10S12812   1.539   3.109  10.012 -0.9397  0.1909  0.6492
  121OSM   H10S12813   1.608   3.196  10.016 -1.5917  0.9854 -2.6865
  121OSM   H10T12814   1.451   3.131   9.948 -2.0594 -2.3681  1.1549
  121OSM   C11S12815   1.624   3.002   9.936  0.3189  0.5775  0.1482
  121OSM   H11S12816   1.578   2.901   9.940  1.7748 -0.0705  1.4075
  121OSM   H11T12817   1.714   2.974   9.995 -0.8159 -2.6118  0.5714
  121OSM   C12S12818   1.654   3.033   9.791 -0.3859 -1.0589 -0.1084
  121OSM   H12S12819   1.732   2.959   9.765  2.0208  1.3502 -0.1607
  121OSM   H12T12820   1.706   3.127   9.762  1.7739 -2.1441  0.0866
  121OSM   C13S12821   1.534   3.010   9.704 -0.5179  0.5859 -0.6571
  121OSM   H13S12822   1.449   3.080   9.713  1.2725  2.7869 -0.0359
  121OSM   H13T12823   1.492   2.908   9.718  1.3573 -0.1302  0.1387
  121OSM   C14S12824   1.582   3.025   9.562  0.0583  0.4035 -0.3909
  121OSM   H14S12825   1.655   2.942   9.549  1.0542  1.2170 -0.1040
  121OSM   H14T12826   1.613   3.129   9.539 -1.5071  0.8842 -0.4342
  121OSM   C15S12827   1.467   3.004   9.467  0.0745  0.2071  0.4974
  121OSM   H15S12828   1.393   3.084   9.489 -0.3532 -0.5168  1.8249
  121OSM   H15T12829   1.420   2.905   9.488 -0.8237  0.6840  0.8076
  121OSM   C16S12830   1.508   3.037   9.323 -0.3756 -0.1198 -0.4778
  121OSM   H16S12831   1.610   2.997   9.302 -0.3268  0.2043 -0.8852
  121OSM   H16T12832   1.510   3.148   9.319  0.0936 -0.1478 -1.2218
  121OSM   C17S12833   1.410   2.983   9.221 -0.8030  0.4187 -0.0340
  121OSM   H17S12834   1.430   2.873   9.221  0.2367  0.5910  0.3742
  121OSM   H17T12835   1.441   3.029   9.125  2.9385  2.6149  1.9657
  121OSM   C18S12836   1.260   3.012   9.249  0.4204 -0.1478 -0.3408
  121OSM   H18S12837   1.215   2.980   9.345 -1.4894 -0.7051 -1.3553
  121OSM   H18T12838   1.199   2.973   9.164 -2.6133  0.1847  1.5129
  121OSM   H18U12839   1.248   3.121   9.262  1.3227 -0.2441  1.7133
  121OSM    C1F12840   1.831   2.587  10.398 -0.2719 -0.1468  0.0542
  121OSM     OF12841   1.822   2.478  10.453  0.7097  0.1030  0.2290
  121OSM    C2F12842   1.802   2.611  10.253 -0.2935  0.2708 -0.5434
  121OSM    H2F12843   1.897   2.616  10.196 -0.8000  0.5780 -1.3955
  121OSM    H2G12844   1.758   2.713  10.243 -0.6785  0.1410 -0.2050
  121OSM    C3F12845   1.706   2.494  10.218  0.2930  0.2870 -0.3416
  121OSM    H3F12846   1.621   2.482  10.289  0.0854  0.2398 -0.5950
  121OSM    H3G12847   1.760   2.397  10.230 -0.0103  0.2534  0.9067
  121OSM    C4F12848   1.657   2.519  10.075 -0.9468 -0.4352  0.8762
  121OSM    H4F12849   1.631   2.627  10.084  0.0463 -0.2146  1.2709
  121OSM    H4G12850   1.567   2.458  10.055 -2.3956  1.7180  0.4613
  121OSM    C5F12851   1.758   2.501   9.970 -0.0217  0.0631  0.4865
  121OSM    H5F12852   1.761   2.392   9.948 -1.9492  0.0284  0.2165
  121OSM    H5G12853   1.861   2.525  10.005 -0.6944  1.1114  1.7999
  121OSM    C6F12854   1.720   2.576   9.843 -0.2332 -0.1248  0.7793
  121OSM    H6F12855   1.718   2.679   9.882  0.9266  0.2611 -0.1405
  121OSM    H6G12856   1.619   2.548   9.805  0.1099  0.4806 -0.6396
  121OSM    C7F12857   1.822   2.564   9.724  1.0223  0.3861 -0.4502
  121OSM    H7F12858   1.810   2.461   9.683  0.5805  1.1115 -2.2693
  121OSM    H7G12859   1.925   2.568   9.767  0.4994 -1.7863  1.1360
  121OSM    C8F12860   1.782   2.669   9.613  0.1501 -0.5368 -0.2713
  121OSM    H8F12861   1.789   2.774   9.648  0.0241 -0.6231  0.0190
  121OSM    H8G12862   1.677   2.645   9.588  0.1627  0.4763 -1.3754
  121OSM    C9F12863   1.876   2.671   9.495  0.3296  1.0477  0.1627
  121OSM    H9F12864   1.973   2.723   9.504  1.4384 -0.7796 -0.6090
  121OSM   C10F12865   1.860   2.609   9.378  0.1569  0.1959  0.6140
  121OSM   H10F12866   1.937   2.627   9.301  0.6808 -0.4774  0.9668
  121OSM   C11F12867   1.737   2.528   9.350  0.1578 -0.3200  0.7359
  121OSM   H11F12868   1.691   2.471   9.434 -1.5470 -0.6699 -0.3767
  121OSM   H11G12869   1.769   2.448   9.279 -1.6823 -2.2772  1.9794
  121OSM   C12F12870   1.620   2.601   9.275 -0.5933  0.2494  0.1570
  121OSM   H12F12871   1.585   2.668   9.357 -3.4829  1.1024 -1.6313
  121OSM   H12G12872   1.538   2.535   9.240 -2.2847  2.0882  0.4599
  121OSM   C13F12873   1.666   2.694   9.171  0.7644  0.2559 -0.5152
  121OSM   H13F12874   1.758   2.751   9.196  2.4887 -2.4787 -0.1813
  121OSM   H13G12875   1.593   2.778   9.173 -1.2711 -1.4370 -0.3393
  121OSM   C14F12876   1.699   2.635   9.029 -0.1248 -0.5965 -0.0430
  121OSM   H14F12877   1.611   2.576   8.996 -0.4347  0.2803 -0.8300
  121OSM   H14G12878   1.790   2.574   9.048  1.8910  2.3285  0.4402
  121OSM   C15F12879   1.743   2.743   8.927 -0.3386 -0.3783 -0.2159
  121OSM   H15F12880   1.833   2.803   8.955 -1.9491  2.9285 -1.5900
  121OSM   H15G12881   1.655   2.810   8.916 -0.7406 -0.4753  2.0031
  121OSM   C16F12882   1.783   2.684   8.786 -0.2618  0.3803 -0.3742
  121OSM   H16F12883   1.702   2.617   8.750 -0.1304  1.5323 -3.0038
  121OSM   H16G12884   1.871   2.616   8.798 -0.2066 -0.0104 -2.4855
  121OSM   C17F12885   1.835   2.790   8.692  0.2020 -0.4921 -0.3920
  121OSM   H17F12886   1.939   2.818   8.720  0.3192 -1.2720 -0.0137
  121OSM   H17G12887   1.766   2.875   8.709  1.3403 -0.0124  2.3155
  121OSM   C18F12888   1.833   2.749   8.544 -0.0781  0.3411 -0.7198
  121OSM   H18F12889   1.816   2.837   8.478 -0.1337  2.4235  1.9083
  121OSM   H18G12890   1.745   2.683   8.531  1.8595 -2.2651 -1.3123
  121OSM   H18H12891   1.927   2.698   8.515 -0.3468  0.8403 -2.5733
  122OSM      N12892   4.034   6.361  10.440 -0.3444  0.2104 -1.0785
  122OSM    C1512893   3.886   6.337  10.445  1.0739  0.1068 -0.2501
  122OSM   H15A12894   3.857   6.234  10.454 -0.7688  0.5285 -0.8513
  122OSM   H15B12895   3.846   6.364  10.348  1.1661 -1.4799 -0.7438
  122OSM   H15C12896   3.836   6.387  10.527  0.2183 -0.4815 -0.4005
  122OSM    C1412897   4.081   6.269  10.330 -0.0447  0.0164 -0.1359
  122OSM   H14A12898   4.025   6.177  10.333 -1.3884  0.7835 -0.7167
  122OSM   H14B12899   4.188   6.261  10.320 -0.3326 -2.0128 -2.4415
  122OSM   H14C12900   4.057   6.316  10.236 -0.1729  0.2929  0.0330
  122OSM    C1312901   4.065   6.497  10.409 -0.4146 -0.0757 -0.2622
  122OSM   H13A12902   3.999   6.568  10.457  0.1502  0.4618 -0.2678
  122OSM   H13B12903   4.057   6.511  10.303 -0.4295  1.8555 -0.0330
  122OSM   H13C12904   4.166   6.518  10.441  0.1936 -1.6844 -0.9997
  122OSM    C1212905   4.098   6.318  10.569  0.1332  0.3729 -0.4507
  122OSM   H12A12906   4.080   6.212  10.580  2.0552 -0.0841 -1.4288
  122OSM   H12B12907   4.046   6.372  10.647  0.5510 -1.2043  0.9778
  122OSM    C1112908   4.248   6.338  10.599  0.3632  0.5966  0.9109
  122OSM   H11A12909   4.304   6.280  10.522  1.7724  1.6096  1.1445
  122OSM   H11B12910   4.262   6.284  10.695  1.3710 -2.1541 -0.6670
  122OSM      P12911   4.440   6.518  10.606  0.0852  0.1638 -0.0761
  122OSM    O1312912   4.451   6.664  10.625 -0.1851  0.1897  0.2144
  122OSM    O1412913   4.510   6.438  10.710  0.5123 -0.1845  0.6519
  122OSM    O1112914   4.490   6.475  10.456 -0.0199 -0.0886  0.4733
  122OSM    O1212915   4.286   6.476  10.603 -0.6793  0.8953  0.3351
  122OSM    C1S12916   4.470   6.574  10.344 -0.2998 -0.4891  0.4323
  122OSM    H1S12917   4.543   6.658  10.347  0.7131 -1.2930 -0.5723
  122OSM    H1T12918   4.364   6.607  10.339 -0.3609 -0.6017  0.9525
  122OSM     NF12919   4.466   6.634  10.101 -0.2037 -0.0197 -0.0998
  122OSM    HNF12920   4.383   6.644  10.045 -0.5153  0.8394  0.5015
  122OSM    C2S12921   4.490   6.526  10.197  0.1738  0.1079  0.5334
  122OSM    H2S12922   4.594   6.490  10.186 -0.0919 -0.3097 -0.8449
  122OSM    C3S12923   4.394   6.400  10.167  0.5683 -0.0878  0.2515
  122OSM    H3S12924   4.287   6.428  10.165  0.2146 -1.3806 -0.1156
  122OSM     O312925   4.398   6.306  10.266  0.0332  0.6154 -1.0451
  122OSM    HO312926   4.435   6.354  10.340 -2.2114 -0.4414  0.8936
  122OSM    C4S12927   4.433   6.338  10.037 -0.2044  0.1049  0.7390
  122OSM    H4S12928   4.541   6.319  10.028 -0.0371  0.1108  2.4196
  122OSM    C5S12929   4.341   6.290   9.954  0.2736  0.2198  0.5239
  122OSM    H5S12930   4.234   6.312   9.964  0.5504  1.0554  1.9539
  122OSM    C6S12931   4.373   6.229   9.820  0.9321  0.3984 -0.5841
  122OSM    H6S12932   4.278   6.192   9.774  1.0680  1.8392 -2.1342
  122OSM    H6T12933   4.444   6.143   9.819  1.2854  0.6154 -3.2640
  122OSM    C7S12934   4.409   6.337   9.722 -0.3098  0.2287 -0.0433
  122OSM    H7S12935   4.484   6.406   9.767  0.5274 -0.1714 -0.7970
  122OSM    H7T12936   4.314   6.393   9.708 -0.2064 -0.0825 -2.2382
  122OSM    C8S12937   4.463   6.298   9.581 -0.3049 -0.0433 -0.3447
  122OSM    H8S12938   4.561   6.245   9.590  0.5193  1.5530  0.4434
  122OSM    H8T12939   4.477   6.391   9.522  0.3908 -0.8222 -1.4440
  122OSM    C9S12940   4.354   6.219   9.503  0.4734  0.5083 -0.0507
  122OSM    H9S12941   4.272   6.292   9.485 -0.9158 -0.5900  1.4831
  122OSM    H9T12942   4.310   6.135   9.561 -1.5092  1.5621  0.0582
  122OSM   C10S12943   4.396   6.184   9.357  0.7576 -0.3132 -0.3861
  122OSM   H10S12944   4.447   6.264   9.300  3.1182 -0.7873  0.9170
  122OSM   H10T12945   4.303   6.155   9.305  1.8546 -1.4868 -1.7857
  122OSM   C11S12946   4.475   6.050   9.349  0.1939 -1.2696  0.3693
  122OSM   H11S12947   4.409   5.962   9.361  0.3503 -1.3870  0.3821
  122OSM   H11T12948   4.554   6.059   9.426 -0.1563 -2.0597  0.8373
  122OSM   C12S12949   4.559   6.029   9.218  0.4166  0.2314 -0.0357
  122OSM   H12S12950   4.636   5.951   9.236 -1.8639 -1.8399  1.4117
  122OSM   H12T12951   4.623   6.119   9.211  1.3019 -0.1163  2.3889
  122OSM   C13S12952   4.474   6.003   9.097  0.4472 -0.8738  0.2872
  122OSM   H13S12953   4.392   6.077   9.109  0.1099 -1.1943 -0.0057
  122OSM   H13T12954   4.429   5.901   9.092 -2.2915 -0.1211  4.3815
  122OSM   C14S12955   4.543   6.040   8.961 -0.2010  0.0854 -0.7249
  122OSM   H14S12956   4.620   5.962   8.942 -1.4978 -1.4032 -0.0386
  122OSM   H14T12957   4.585   6.141   8.980 -0.8381  0.2224  0.0352
  122OSM   C15S12958   4.452   6.044   8.841  0.1257 -0.6497  0.0769
  122OSM   H15S12959   4.407   6.145   8.845 -1.0600 -1.1624  0.2734
  122OSM   H15T12960   4.376   5.966   8.862 -2.2137  1.4426 -0.1601
  122OSM   C16S12961   4.528   6.016   8.707 -0.6982  0.3825  0.5628
  122OSM   H16S12962   4.577   5.917   8.719 -0.6350  0.3934  0.4018
  122OSM   H16T12963   4.613   6.084   8.683 -0.3101 -0.6741 -1.2780
  122OSM   C17S12964   4.447   6.005   8.584  0.1361  0.3002  0.5925
  122OSM   H17S12965   4.382   5.916   8.600 -0.8032  1.1602  1.7092
  122OSM   H17T12966   4.513   5.988   8.496  0.3427  1.2468  0.5536
  122OSM   C18S12967   4.365   6.137   8.553 -0.2496  1.0422 -0.0626
  122OSM   H18S12968   4.279   6.128   8.484 -2.0216 -1.7091  2.2451
  122OSM   H18T12969   4.440   6.210   8.516 -0.6998  1.4348 -0.2033
  122OSM   H18U12970   4.311   6.168   8.645  0.5736 -2.6932  1.9046
  122OSM    C1F12971   4.550   6.736  10.094 -0.1293  0.7855  0.2438
  122OSM     OF12972   4.663   6.722  10.141 -0.1581  0.1093  0.1719
  122OSM    C2F12973   4.513   6.859  10.020 -0.6775 -0.2752 -0.3209
  122OSM    H2F12974   4.413   6.892  10.057  0.2329  1.6615  0.5684
  122OSM    H2G12975   4.507   6.843   9.910  1.0693 -0.6601 -0.3828
  122OSM    C3F12976   4.623   6.971  10.051 -0.3765 -0.2282 -0.1337
  122OSM    H3F12977   4.722   6.939  10.012 -0.5789 -2.0049  0.7070
  122OSM    H3G12978   4.639   6.970  10.161  1.1121 -0.5666 -0.3273
  122OSM    C4F12979   4.591   7.114  10.007 -0.0573 -0.1830 -0.3533
  122OSM    H4F12980   4.615   7.179  10.094 -0.9721  0.7246 -0.7404
  122OSM    H4G12981   4.480   7.119   9.999 -0.0771  0.3257  0.1528
  122OSM    C5F12982   4.666   7.145   9.876 -0.5191 -0.3871  0.2739
  122OSM    H5F12983   4.649   7.066   9.800  1.3287  1.0076 -1.7034
  122OSM    H5G12984   4.775   7.147   9.900 -0.9982 -1.3428  2.8557
  122OSM    C6F12985   4.633   7.284   9.813 -0.6880 -0.6516  0.1075
  122OSM    H6F12986   4.650   7.363   9.890 -1.8388 -0.2137 -0.0787
  122OSM    H6G12987   4.527   7.301   9.788 -0.0953 -0.6961 -2.7561
  122OSM    C7F12988   4.719   7.306   9.690  0.4454  0.2736  0.9523
  122OSM    H7F12989   4.704   7.217   9.624  1.5092 -0.6372  1.8829
  122OSM    H7G12990   4.830   7.309   9.698  0.9480 -0.6830 -3.2818
  122OSM    C8F12991   4.673   7.428   9.602  0.1687  0.1388 -0.0781
  122OSM    H8F12992   4.671   7.525   9.656  1.6894  1.3159 -1.9750
  122OSM    H8G12993   4.570   7.403   9.569 -0.3465  0.8267  0.9791
  122OSM    C9F12994   4.766   7.438   9.479 -0.4439  0.2836 -0.2522
  122OSM    H9F12995   4.871   7.444   9.509  0.1046 -0.5541 -1.8341
  122OSM   C10F12996   4.736   7.427   9.345 -0.2086  0.0535 -0.5814
  122OSM   H10F12997   4.815   7.410   9.271  0.3756  2.4959 -0.6012
  122OSM   C11F12998   4.595   7.415   9.287 -0.4747 -0.2609  0.1345
  122OSM   H11F12999   4.531   7.497   9.324 -1.9157 -0.7113 -1.2443
  122OSM   H11G13000   4.555   7.319   9.327 -2.3489 -0.2181 -1.4967
  122OSM   C12F13001   4.581   7.386   9.134  0.1770 -0.0324 -0.1637
  122OSM   H12F13002   4.475   7.369   9.103 -0.0036 -3.2256  1.6813
  122OSM   H12G13003   4.637   7.293   9.109  1.5008  0.9875 -1.1060
  122OSM   C13F13004   4.654   7.482   9.041  0.2854 -0.1724 -0.2089
  122OSM   H13F13005   4.758   7.489   9.080  0.5369  2.2073 -1.1267
  122OSM   H13G13006   4.607   7.583   9.040 -1.2058 -0.8344 -1.4163
  122OSM   C14F13007   4.639   7.438   8.899  0.1074 -0.3311  0.4691
  122OSM   H14F13008   4.661   7.329   8.895  0.8963 -0.1450 -2.1205
  122OSM   H14G13009   4.717   7.480   8.831  0.2673 -1.1408  0.1370
  122OSM   C15F13010   4.505   7.468   8.831  1.3302  0.1895 -0.3898
  122OSM   H15F13011   4.473   7.571   8.858 -1.4080 -1.0033  1.4957
  122OSM   H15G13012   4.419   7.408   8.869  1.3535 -0.2886 -1.0767
  122OSM   C16F13013   4.524   7.448   8.682  0.2708  0.0765  0.5258
  122OSM   H16F13014   4.562   7.346   8.664 -0.0730 -0.0896  0.7216
  122OSM   H16G13015   4.604   7.517   8.648  0.0460  0.0248 -0.1391
  122OSM   C17F13016   4.394   7.472   8.611  0.3933  0.2615 -0.4469
  122OSM   H17F13017   4.341   7.543   8.677  1.9104  1.9508 -0.9668
  122OSM   H17G13018   4.333   7.379   8.618  2.0831 -1.1082 -2.4823
  122OSM   C18F13019   4.401   7.520   8.470  0.5329  0.0445  0.4474
  122OSM   H18F13020   4.418   7.630   8.465 -1.9392  0.4425 -0.7272
  122OSM   H18G13021   4.302   7.504   8.423  1.3473 -2.7623 -0.5126
  122OSM   H18H13022   4.472   7.453   8.417  0.6038  1.6531 -1.6069
  123OSM      N13023   6.345   5.628   6.060 -0.4381  0.2944  0.1245
  123OSM    C1513024   6.475   5.560   6.024 -0.2129 -0.7289  0.0204
  123OSM   H15A13025   6.453   5.510   5.932  0.4733  0.1348 -0.6388
  123OSM   H15B13026   6.500   5.485   6.097  1.3199 -0.2582  0.0100
  123OSM   H15C13027   6.558   5.626   6.001 -0.2663 -0.6452  0.0643
  123OSM    C1413028   6.248   5.517   6.072 -0.0853 -0.0677 -0.3213
  123OSM   H14A13029   6.146   5.553   6.083 -0.0018  0.8943 -2.1830
  123OSM   H14B13030   6.280   5.456   6.155  0.4554  2.5434  1.5252
  123OSM   H14C13031   6.250   5.454   5.984  1.0026  3.4221 -3.0786
  123OSM    C1313032   6.357   5.700   6.193 -0.1579 -0.2762  0.2451
  123OSM   H13A13033   6.267   5.740   6.237 -0.0378 -1.2730  1.4442
  123OSM   H13B13034   6.414   5.791   6.180  0.0236 -0.4924 -0.5634
  123OSM   H13C13035   6.388   5.632   6.271  0.3137  1.6583  1.8276
  123OSM    C1213036   6.302   5.720   5.950 -0.4012 -0.0650  0.4729
  123OSM   H12A13037   6.205   5.763   5.970 -0.4305  0.8001 -1.3361
  123OSM   H12B13038   6.286   5.667   5.858  1.8558  0.8566 -0.5355
  123OSM    C1113039   6.403   5.826   5.891 -0.5776 -1.0010  0.2031
  123OSM   H11A13040   6.353   5.901   5.826 -2.1345 -2.5920 -0.4969
  123OSM   H11B13041   6.468   5.758   5.833  0.7178 -1.1480  1.7381
  123OSM      P13042   6.631   5.946   5.946  0.0447 -0.2808 -0.2111
  123OSM    O1313043   6.700   5.858   5.845 -0.4125  0.0756 -0.1716
  123OSM    O1413044   6.626   6.091   5.909 -0.7029  0.0448  0.2449
  123OSM    O1113045   6.711   5.941   6.080 -0.1358  0.3530 -0.0668
  123OSM    O1213046   6.483   5.897   5.988  0.2119 -0.0357 -0.0700
  123OSM    C1S13047   6.718   6.032   6.182 -0.0256 -0.0117 -0.3740
  123OSM    H1S13048   6.626   6.091   6.199  0.8307  1.1709  0.2680
  123OSM    H1T13049   6.799   6.106   6.165  1.0484 -1.1485 -0.3605
  123OSM     NF13050   6.723   6.065   6.427 -0.0196 -0.2450  0.1716
  123OSM    HNF13051   6.800   6.126   6.442  1.7479 -1.8331 -1.7578
  123OSM    C2S13052   6.737   5.965   6.321  0.8924  0.8828 -0.2913
  123OSM    H2S13053   6.660   5.886   6.329 -0.0070  1.7851  0.0951
  123OSM    C3S13054   6.876   5.896   6.319  0.5445  0.8955 -0.0057
  123OSM    H3S13055   6.950   5.977   6.301  1.6588  0.3464  1.8833
  123OSM     O313056   6.897   5.821   6.201  0.4018  0.8236 -0.2447
  123OSM    HO313057   6.825   5.857   6.148 -0.6813  0.6064  1.0147
  123OSM    C4S13058   6.901   5.826   6.452 -0.8306  0.0592 -0.2180
  123OSM    H4S13059   6.958   5.881   6.529 -1.0726 -1.1916  0.8910
  123OSM    C5S13060   6.862   5.697   6.481  0.2005 -0.4960  0.1454
  123OSM    H5S13061   6.811   5.639   6.403 -2.2129 -0.0886  1.3451
  123OSM    C6S13062   6.879   5.613   6.608 -0.4557 -0.3033 -0.0552
  123OSM    H6S13063   6.975   5.557   6.605 -0.2286  0.1183 -0.8177
  123OSM    H6T13064   6.808   5.529   6.597 -0.2257 -0.4045 -0.7931
  123OSM    C7S13065   6.855   5.682   6.750  0.3426  0.6486  0.5279
  123OSM    H7S13066   6.751   5.722   6.751 -0.2386 -0.7298 -1.1106
  123OSM    H7T13067   6.916   5.774   6.761 -0.0315  1.6376 -3.9274
  123OSM    C8S13068   6.849   5.568   6.865  0.4302 -0.1892 -0.2458
  123OSM    H8S13069   6.948   5.518   6.863 -0.0069 -1.1929  1.3956
  123OSM    H8T13070   6.776   5.493   6.826 -0.0533 -0.0948  0.4650
  123OSM    C9S13071   6.794   5.620   6.998 -0.5989  0.9387  0.0419
  123OSM    H9S13072   6.721   5.702   6.983 -0.5616  0.9604 -0.0216
  123OSM    H9T13073   6.889   5.657   7.042  0.1377  0.7317 -1.3271
  123OSM   C10S13074   6.733   5.503   7.084 -0.2597  0.5523  0.1296
  123OSM   H10S13075   6.816   5.430   7.080  0.8255  1.7688 -1.7319
  123OSM   H10T13076   6.644   5.454   7.039 -0.6966  2.7779 -1.6741
  123OSM   C11S13077   6.709   5.544   7.230 -0.2772 -0.0038  0.1022
  123OSM   H11S13078   6.797   5.593   7.277 -1.4983 -0.9756  3.6881
  123OSM   H11T13079   6.694   5.454   7.293 -2.5226 -0.3940 -0.8929
  123OSM   C12S13080   6.592   5.634   7.260 -0.0021 -0.2587 -0.4156
  123OSM   H12S13081   6.504   5.567   7.272 -1.2432  1.4040  0.1215
  123OSM   H12T13082   6.567   5.702   7.176 -0.3588 -1.7019 -1.5279
  123OSM   C13S13083   6.614   5.714   7.386  0.1616 -0.6932  0.5080
  123OSM   H13S13084   6.525   5.778   7.404  2.7447  2.5210  3.0541
  123OSM   H13T13085   6.699   5.784   7.380  0.5403 -1.0177  1.6962
  123OSM   C14S13086   6.616   5.634   7.515 -0.4263  0.6214 -0.0783
  123OSM   H14S13087   6.718   5.588   7.515 -1.9341 -3.0897 -0.1482
  123OSM   H14T13088   6.542   5.551   7.513  1.3991 -1.1193  0.7893
  123OSM   C15S13089   6.601   5.719   7.644 -0.3252  0.5651 -0.2600
  123OSM   H15S13090   6.495   5.751   7.652 -0.0608  1.0527  2.0746
  123OSM   H15T13091   6.660   5.811   7.625 -1.4258  1.8057  1.9217
  123OSM   C16S13092   6.643   5.647   7.779  0.4749 -0.4596 -0.8777
  123OSM   H16S13093   6.751   5.623   7.774  0.5422 -0.4522  0.1904
  123OSM   H16T13094   6.595   5.548   7.769 -0.6019  0.1654 -2.2141
  123OSM   C17S13095   6.599   5.710   7.908 -0.4175 -0.1523 -0.6223
  123OSM   H17S13096   6.545   5.806   7.896  1.1766  0.9076  0.4828
  123OSM   H17T13097   6.686   5.727   7.974 -1.5974 -0.3575  1.0584
  123OSM   C18S13098   6.502   5.613   7.982  0.3682 -0.2252  0.4680
  123OSM   H18S13099   6.490   5.651   8.086  1.3900  0.5820  0.3140
  123OSM   H18T13100   6.550   5.513   7.974  0.9900  0.0239  0.9653
  123OSM   H18U13101   6.402   5.604   7.935 -0.2380  0.4685  1.5942
  123OSM    C1F13102   6.611   6.088   6.481  0.0186  0.5483 -0.2779
  123OSM     OF13103   6.508   6.033   6.449  0.0705 -0.5955  0.0501
  123OSM    C2F13104   6.619   6.197   6.592  0.1847  0.6694 -0.2106
  123OSM    H2F13105   6.528   6.196   6.656 -0.0648  2.7567 -0.4825
  123OSM    H2G13106   6.629   6.295   6.542  4.0401  0.5439  0.0439
  123OSM    C3F13107   6.743   6.186   6.689  0.3880 -1.2199  0.4943
  123OSM    H3F13108   6.840   6.193   6.635  0.6324 -3.4259  0.5310
  123OSM    H3G13109   6.746   6.088   6.742  2.9199 -0.2424  2.3994
  123OSM    C4F13110   6.745   6.296   6.803  0.4671  0.5777  0.1278
  123OSM    H4F13111   6.781   6.392   6.759  2.3626 -0.7089 -1.2947
  123OSM    H4G13112   6.816   6.266   6.883  0.4618  0.7642  0.2050
  123OSM    C5F13113   6.608   6.326   6.876  0.5608  0.2454 -0.4576
  123OSM    H5F13114   6.533   6.370   6.808 -1.0615  0.1924  1.2307
  123OSM    H5G13115   6.627   6.398   6.958  0.3453 -0.8054  0.5459
  123OSM    C6F13116   6.549   6.207   6.958 -0.1271 -0.0123 -0.1586
  123OSM    H6F13117   6.572   6.116   6.898  1.6447  0.6666 -0.5805
  123OSM    H6G13118   6.439   6.215   6.968 -0.1782 -1.4643  0.6200
  123OSM    C7F13119   6.606   6.195   7.106  0.0852  0.8614  0.3285
  123OSM    H7F13120   6.712   6.165   7.093 -0.5861 -1.4514 -0.2707
  123OSM    H7G13121   6.569   6.099   7.149  1.6708  0.9775  2.0819
  123OSM    C8F13122   6.570   6.318   7.190  0.0736 -0.0594  0.3143
  123OSM    H8F13123   6.523   6.384   7.114  2.1816 -0.7389 -1.6978
  123OSM    H8G13124   6.660   6.376   7.221 -0.4174  2.4462 -2.5217
  123OSM    C9F13125   6.475   6.294   7.300  0.2794 -0.0683 -0.2674
  123OSM    H9F13126   6.368   6.313   7.285  0.3247  2.5634  1.8893
  123OSM   C10F13127   6.509   6.240   7.417 -0.1682 -0.0495 -0.6912
  123OSM   H10F13128   6.429   6.199   7.479  2.4387 -0.4133  2.7371
  123OSM   C11F13129   6.641   6.190   7.476  0.2514 -0.2370  0.2551
  123OSM   H11F13130   6.725   6.250   7.435 -0.7433  0.7419 -0.4068
  123OSM   H11G13131   6.674   6.088   7.449  4.7281  1.0176  0.1052
  123OSM   C12F13132   6.631   6.190   7.626  0.1884 -0.5083 -0.6258
  123OSM   H12F13133   6.729   6.158   7.668 -0.1807  1.3067  1.8679
  123OSM   H12G13134   6.542   6.140   7.669 -0.6338  1.7817  0.4718
  123OSM   C13F13135   6.627   6.338   7.680  0.4693  0.7851  0.7670
  123OSM   H13F13136   6.532   6.388   7.650  1.1125 -0.5311 -4.5121
  123OSM   H13G13137   6.710   6.397   7.636 -0.2142 -0.9015 -3.2862
  123OSM   C14F13138   6.644   6.340   7.834 -0.1323 -0.7456 -0.5006
  123OSM   H14F13139   6.622   6.445   7.862  0.5373 -0.0993 -2.2415
  123OSM   H14G13140   6.747   6.304   7.859 -0.0690 -0.2600 -0.0363
  123OSM   C15F13141   6.540   6.249   7.902 -0.1486  0.3581  0.5681
  123OSM   H15F13142   6.551   6.142   7.875  0.4885  0.1246  1.7004
  123OSM   H15G13143   6.439   6.286   7.876 -0.2117 -1.2278 -1.7583
  123OSM   C16F13144   6.559   6.248   8.056 -0.1235  0.5523  0.0307
  123OSM   H16F13145   6.473   6.192   8.098  1.0077 -0.4357  1.1025
  123OSM   H16G13146   6.555   6.354   8.090 -2.5776  0.3429  0.5568
  123OSM   C17F13147   6.692   6.185   8.095 -0.0982 -0.2631 -0.5452
  123OSM   H17F13148   6.773   6.245   8.050  0.1639 -1.9698 -2.5184
  123OSM   H17G13149   6.702   6.086   8.045  0.1221 -0.3786 -0.2747
  123OSM   C18F13150   6.732   6.170   8.242 -0.0902  0.5856  0.9008
  123OSM   H18F13151   6.711   6.261   8.302 -0.3206  0.1700  1.4604
  123OSM   H18G13152   6.840   6.149   8.257 -0.2744 -0.4786  0.8246
  123OSM   H18H13153   6.674   6.092   8.295 -0.4062 -0.7912 -1.3743
  124OSM      N13154   1.880   2.445   5.941 -0.2802  0.6396  0.3908
  124OSM    C1513155   1.819   2.476   6.076 -0.5539 -0.5864 -0.3112
  124OSM   H15A13156   1.769   2.571   6.076 -1.2815 -0.9596  0.6696
  124OSM   H15B13157   1.897   2.484   6.150 -2.2232 -0.3913  1.5015
  124OSM   H15C13158   1.752   2.401   6.114  1.4581 -1.1924  2.3419
  124OSM    C1413159   1.916   2.301   5.942  0.4493  0.2283 -0.2884
  124OSM   H14A13160   1.952   2.261   5.848  1.5736 -1.2523  0.7131
  124OSM   H14B13161   1.826   2.246   5.965 -0.0948  0.7593 -1.1444
  124OSM   H14C13162   1.997   2.283   6.012 -0.0977  0.6679  0.4675
  124OSM    C1313163   1.776   2.456   5.841  0.9178  0.1038  0.5434
  124OSM   H13A13164   1.700   2.382   5.859  1.2479 -0.3013  0.2625
  124OSM   H13B13165   1.816   2.426   5.746 -0.9199 -1.0802  0.0873
  124OSM   H13C13166   1.730   2.554   5.832  3.0274  1.2016  1.0142
  124OSM    C1213167   1.998   2.540   5.910  0.1423 -0.1717  0.0053
  124OSM   H12A13168   1.967   2.639   5.941  1.7091  0.3170  0.1354
  124OSM   H12B13169   2.011   2.551   5.803 -3.3391 -1.5054 -0.6641
  124OSM    C1113170   2.146   2.522   5.972  0.3256  0.0287 -0.1049
  124OSM   H11A13171   2.198   2.616   5.944 -0.7907  0.5594 -0.4659
  124OSM   H11B13172   2.199   2.437   5.922 -0.5219 -1.1709  0.9539
  124OSM      P13173   2.141   2.623   6.207  0.4246  0.2808 -0.3822
  124OSM    O1313174   2.262   2.698   6.176 -0.4164  0.5184  0.0110
  124OSM    O1413175   2.010   2.687   6.217 -0.3436  0.5234  0.9295
  124OSM    O1113176   2.177   2.548   6.338  0.5114 -0.5539  0.2355
  124OSM    O1213177   2.140   2.494   6.109 -0.4842 -0.0153 -0.0587
  124OSM    C1S13178   2.299   2.477   6.368 -0.3118 -0.3897  0.0929
  124OSM    H1S13179   2.389   2.543   6.360  1.1579 -2.2386  0.8022
  124OSM    H1T13180   2.321   2.386   6.308 -0.0447  0.3792 -1.0157
  124OSM     NF13181   2.417   2.390   6.573  0.3509 -0.5056  0.6963
  124OSM    HNF13182   2.439   2.293   6.565 -1.5193 -1.1514  2.4761
  124OSM    C2S13183   2.289   2.433   6.519 -0.1388 -0.3500 -0.6785
  124OSM    H2S13184   2.263   2.524   6.578  0.3318 -0.4876 -0.2522
  124OSM    C3S13185   2.176   2.324   6.524 -1.0886 -0.6489  0.2958
  124OSM    H3S13186   2.200   2.229   6.470  0.8421  0.0914 -0.2250
  124OSM     O313187   2.049   2.366   6.473  0.0990  0.5541  0.5443
  124OSM    HO313188   2.074   2.435   6.411  0.2425  2.2283  2.3337
  124OSM    C4S13189   2.148   2.281   6.665 -0.3321  0.0841 -0.4484
  124OSM    H4S13190   2.076   2.344   6.718  2.0817  0.9187  2.0660
  124OSM    C5S13191   2.196   2.165   6.730  0.8317 -0.1673  0.4933
  124OSM    H5S13192   2.263   2.095   6.679 -0.3311 -0.5033 -0.6439
  124OSM    C6S13193   2.157   2.127   6.872 -0.9399  0.8859  0.4475
  124OSM    H6S13194   2.253   2.128   6.929 -0.7474  1.0979  0.1202
  124OSM    H6T13195   2.115   2.024   6.870 -0.5896  0.7467  0.0472
  124OSM    C7S13196   2.059   2.210   6.947  0.1824  0.3262  0.1360
  124OSM    H7S13197   1.970   2.232   6.884  1.5657  2.7951 -1.0924
  124OSM    H7T13198   2.108   2.306   6.974  0.0299  0.9767 -1.7792
  124OSM    C8S13199   2.013   2.122   7.067 -0.0595 -0.0560 -0.8278
  124OSM    H8S13200   1.935   2.044   7.057 -0.3516 -0.0048  0.7925
  124OSM    H8T13201   1.957   2.185   7.140  1.6048  0.0790  0.3806
  124OSM    C9S13202   2.126   2.068   7.156  0.1705 -0.1028  0.0569
  124OSM    H9S13203   2.197   2.147   7.190  0.2523 -0.0336 -0.2759
  124OSM    H9T13204   2.185   1.990   7.105 -1.4560 -0.0827 -1.9676
  124OSM   C10S13205   2.058   1.996   7.275  0.4165  0.5735  0.5986
  124OSM   H10S13206   2.018   1.898   7.241  0.7978  0.1752  1.2650
  124OSM   H10T13207   1.968   2.055   7.305  0.0747  0.0834  0.5447
  124OSM   C11S13208   2.161   1.976   7.389  0.4244  0.2089  0.7576
  124OSM   H11S13209   2.191   2.082   7.401 -2.5740  1.4339 -1.5018
  124OSM   H11T13210   2.244   1.915   7.347  2.0748  2.0552  1.1950
  124OSM   C12S13211   2.097   1.915   7.511  0.1552  0.1667 -0.4669
  124OSM   H12S13212   2.052   1.819   7.477  1.3847 -1.0792  1.2450
  124OSM   H12T13213   2.017   1.981   7.550  0.2998 -0.5826  1.1893
  124OSM   C13S13214   2.194   1.891   7.627  0.4396 -0.4913  0.0476
  124OSM   H13S13215   2.285   1.844   7.583  0.1140  1.8054 -3.5525
  124OSM   H13T13216   2.149   1.820   7.699 -2.2300 -0.9904 -1.9527
  124OSM   C14S13217   2.238   2.019   7.685 -0.0498 -0.0058  0.5636
  124OSM   H14S13218   2.152   2.087   7.700 -0.4001  0.0362 -1.3762
  124OSM   H14T13219   2.309   2.076   7.621 -1.5989  0.3195 -0.9249
  124OSM   C15S13220   2.317   2.006   7.814 -0.0544  0.0739 -0.1384
  124OSM   H15S13221   2.354   2.107   7.841 -0.4664 -0.2933  1.9435
  124OSM   H15T13222   2.410   1.955   7.779  0.6006  0.7394  0.5903
  124OSM   C16S13223   2.248   1.934   7.934  0.3830  0.4522  0.0066
  124OSM   H16S13224   2.216   1.829   7.913  0.9984  0.3342 -0.3747
  124OSM   H16T13225   2.160   1.991   7.969  0.2386 -0.1514  0.6700
  124OSM   C17S13226   2.355   1.938   8.047  0.4794  0.0178 -0.6841
  124OSM   H17S13227   2.392   2.041   8.062 -0.1181  0.2888 -1.0289
  124OSM   H17T13228   2.442   1.874   8.022  1.7414  0.9628  1.0907
  124OSM   C18S13229   2.285   1.891   8.180  0.5557  0.2797 -0.4775
  124OSM   H18S13230   2.358   1.882   8.263 -0.6231  2.1160  0.8284
  124OSM   H18T13231   2.229   1.796   8.168 -1.5074  1.5815 -1.7199
  124OSM   H18U13232   2.210   1.967   8.211 -0.4656 -0.3141 -1.4034
  124OSM    C1F13233   2.511   2.479   6.597 -0.7178 -0.4087  0.1385
  124OSM     OF13234   2.495   2.599   6.593 -0.6116  0.7914  0.6184
  124OSM    C2F13235   2.648   2.423   6.626  0.3772 -0.0793  0.3562
  124OSM    H2F13236   2.725   2.480   6.570 -0.5428  0.6458 -0.1878
  124OSM    H2G13237   2.656   2.317   6.594  1.2730 -0.3857  1.4898
  124OSM    C3F13238   2.690   2.433   6.778  0.5021 -0.3585 -0.3844
  124OSM    H3F13239   2.640   2.353   6.836 -1.5538  1.7242  0.9078
  124OSM    H3G13240   2.662   2.531   6.822  1.3346 -0.6317  0.8139
  124OSM    C4F13241   2.839   2.406   6.817  0.1749  0.1190 -0.5729
  124OSM    H4F13242   2.903   2.483   6.768  0.0154  1.7331  1.6350
  124OSM    H4G13243   2.870   2.307   6.776  0.4457 -0.5504  1.1869
  124OSM    C5F13244   2.868   2.414   6.964  0.1292 -0.3775 -0.4869
  124OSM    H5F13245   2.962   2.358   6.980 -1.2423 -2.5143  0.6013
  124OSM    H5G13246   2.787   2.363   7.020 -1.5425  1.5312 -1.0387
  124OSM    C6F13247   2.893   2.560   7.017  0.4196  0.4440 -0.1957
  124OSM    H6F13248   2.802   2.619   7.037 -1.3495 -1.3892 -2.3451
  124OSM    H6G13249   2.939   2.618   6.934 -3.2576  0.8315 -2.1436
  124OSM    C7F13250   2.986   2.572   7.131  0.5417  0.3947  0.4138
  124OSM    H7F13251   3.058   2.652   7.102  0.8672 -0.2864 -0.7348
  124OSM    H7G13252   3.027   2.472   7.159 -0.1805 -0.0590 -0.1386
  124OSM    C8F13253   2.918   2.626   7.261 -0.1960 -0.0930 -0.0168
  124OSM    H8F13254   2.858   2.713   7.228 -0.7191 -0.9608 -1.4511
  124OSM    H8G13255   2.995   2.678   7.321  0.2126  0.1148 -0.7247
  124OSM    C9F13256   2.831   2.526   7.339 -0.9327 -0.1970  0.5036
  124OSM    H9F13257   2.734   2.504   7.292 -0.3787  2.3454 -2.1084
  124OSM   C10F13258   2.850   2.468   7.463  0.1028 -0.1751 -0.2552
  124OSM   H10F13259   2.768   2.408   7.506  0.1241  1.6730  2.6620
  124OSM   C11F13260   2.978   2.475   7.551 -0.0309  0.1376 -0.4386
  124OSM   H11F13261   3.058   2.532   7.498  1.7625 -0.7928  1.1276
  124OSM   H11G13262   3.016   2.373   7.572 -0.9469  0.1698  1.6739
  124OSM   C12F13263   2.935   2.551   7.683  0.0049  0.5021  0.1850
  124OSM   H12F13264   2.838   2.512   7.720  0.4878  1.4327  2.6900
  124OSM   H12G13265   2.914   2.658   7.664  0.3311  0.3086 -1.3539
  124OSM   C13F13266   3.036   2.544   7.796 -0.5646  0.3302 -0.7623
  124OSM   H13F13267   3.139   2.580   7.772  0.0555 -1.9483 -1.7575
  124OSM   H13G13268   3.053   2.442   7.836  2.3760  0.9314 -0.1950
  124OSM   C14F13269   2.977   2.628   7.913  0.7400 -0.3577  0.3276
  124OSM   H14F13270   2.886   2.580   7.955  1.6004 -1.7094  0.7201
  124OSM   H14G13271   2.945   2.731   7.884 -0.7221 -0.5295  1.2445
  124OSM   C15F13272   3.075   2.642   8.033 -0.9432 -1.3672 -0.0976
  124OSM   H15F13273   3.036   2.723   8.099 -0.5267  0.6324 -2.1761
  124OSM   H15G13274   3.175   2.672   7.994 -1.4277  0.4275 -0.0615
  124OSM   C16F13275   3.094   2.500   8.104  0.1786  0.2334  0.5772
  124OSM   H16F13276   3.128   2.426   8.029 -1.7367 -1.3932  1.2156
  124OSM   H16G13277   2.990   2.472   8.131 -0.3580  2.2914  0.8289
  124OSM   C17F13278   3.182   2.503   8.228  0.3887  0.4936  0.8424
  124OSM   H17F13279   3.159   2.429   8.308  1.4548  1.4874  2.1153
  124OSM   H17G13280   3.169   2.600   8.280  2.6793  1.4873 -0.3136
  124OSM   C18F13281   3.326   2.494   8.195 -0.0456 -0.3991  0.2390
  124OSM   H18F13282   3.389   2.541   8.274 -0.2781 -2.4103  1.7168
  124OSM   H18G13283   3.349   2.554   8.104 -2.2875 -0.2607 -0.2924
  124OSM   H18H13284   3.352   2.388   8.176 -0.5582 -0.3989 -0.4917
  125OSM      N13285   1.669   4.668   6.073  0.4604  0.0198  0.0087
  125OSM    C1513286   1.720   4.807   6.067  0.1690 -0.6625  0.1196
  125OSM   H15A13287   1.815   4.818   6.016  1.3193  0.5586  2.3755
  125OSM   H15B13288   1.723   4.841   6.169  0.3511 -1.9240  0.5411
  125OSM   H15C13289   1.643   4.862   6.014  1.9919  1.0520 -0.9142
  125OSM    C1413290   1.628   4.615   5.946 -0.2194  0.5081  0.3478
  125OSM   H14A13291   1.714   4.599   5.883 -0.7001  2.0375 -0.7525
  125OSM   H14B13292   1.563   4.685   5.897  1.4027  2.0024  0.2515
  125OSM   H14C13293   1.573   4.522   5.957 -1.0572  0.8714 -0.5846
  125OSM    C1313294   1.782   4.585   6.117  0.0414  0.1802 -0.7394
  125OSM   H13A13295   1.826   4.641   6.198 -0.1690 -0.8046  0.0683
  125OSM   H13B13296   1.855   4.571   6.039 -0.5995  0.3575 -1.3802
  125OSM   H13C13297   1.750   4.491   6.158  3.0997 -0.4649  0.4666
  125OSM    C1213298   1.553   4.671   6.182 -0.4111 -0.4228  0.2828
  125OSM   H12A13299   1.479   4.744   6.153  0.3297  1.0672  1.9610
  125OSM   H12B13300   1.592   4.714   6.273 -1.8035  3.9717 -0.9618
  125OSM    C1113301   1.487   4.535   6.219  0.6413  0.8783 -0.0356
  125OSM   H11A13302   1.425   4.540   6.311  0.6090  1.0839 -0.0675
  125OSM   H11B13303   1.568   4.467   6.255  0.6174 -0.5653 -2.4895
  125OSM      P13304   1.280   4.536   6.059 -0.2242 -0.3684  0.0506
  125OSM    O1313305   1.306   4.670   5.989  0.5887 -0.4352 -1.2903
  125OSM    O1413306   1.202   4.434   5.981 -0.0823  0.0141 -0.3628
  125OSM    O1113307   1.200   4.570   6.184  0.1410 -0.0103  0.3241
  125OSM    O1213308   1.417   4.474   6.111  0.2675  0.2006  0.4858
  125OSM    C1S13309   1.105   4.489   6.250 -0.2707  0.1069 -0.5751
  125OSM    H1S13310   1.152   4.391   6.269 -0.2666  0.6516  2.8052
  125OSM    H1T13311   1.012   4.493   6.189  0.2638  2.5317 -1.3445
  125OSM     NF13312   0.954   4.483   6.454  0.2237 -0.0265 -0.2964
  125OSM    HNF13313   0.863   4.524   6.460  0.9790  1.6121  0.5581
  125OSM    C2S13314   1.059   4.549   6.388 -0.4205 -0.2814  0.7097
  125OSM    H2S13315   1.147   4.528   6.453  1.9400 -4.1503 -3.1839
  125OSM    C3S13316   1.029   4.703   6.378  0.2354 -0.7818 -0.3016
  125OSM    H3S13317   0.929   4.721   6.333  0.3563  0.1757 -0.2039
  125OSM     O313318   1.129   4.775   6.315 -0.3835 -0.4495  0.6825
  125OSM    HO313319   1.172   4.712   6.257 -0.3414  0.4350 -0.2905
  125OSM    C4S13320   1.012   4.757   6.523 -0.1481  0.0105 -0.1290
  125OSM    H4S13321   0.907   4.776   6.549 -1.5455 -1.8179 -3.7747
  125OSM    C5S13322   1.115   4.790   6.610 -0.3038 -0.0424 -0.1372
  125OSM    H5S13323   1.212   4.743   6.591  0.4428  0.2975  2.4158
  125OSM    C6S13324   1.097   4.837   6.749  0.2451  0.6126 -0.3462
  125OSM    H6S13325   1.168   4.778   6.811 -2.0887 -2.7097 -0.6037
  125OSM    H6T13326   0.991   4.825   6.782  0.1109  2.3817 -0.0331
  125OSM    C7S13327   1.140   4.981   6.777 -0.0456 -0.3352 -0.2257
  125OSM    H7S13328   1.080   5.055   6.720  0.3563 -0.2100 -0.4850
  125OSM    H7T13329   1.244   4.995   6.741 -0.0688 -0.8898 -0.5213
  125OSM    C8S13330   1.163   5.025   6.926 -0.4924  0.4526  0.7145
  125OSM    H8S13331   1.067   5.049   6.976 -1.0442 -1.7045  0.8017
  125OSM    H8T13332   1.212   5.124   6.932 -2.1198  1.4566 -1.3564
  125OSM    C9S13333   1.256   4.921   7.004 -0.1766  0.2443  0.7328
  125OSM    H9S13334   1.328   4.884   6.928 -0.9614 -1.4504  0.7841
  125OSM    H9T13335   1.210   4.823   7.026 -0.8082 -0.1175 -1.7923
  125OSM   C10S13336   1.318   4.979   7.122  0.3784 -0.3058 -0.0359
  125OSM   H10S13337   1.346   5.085   7.103 -0.4473 -0.2912 -1.3304
  125OSM   H10T13338   1.406   4.912   7.132 -0.2488 -0.9558  1.3624
  125OSM   C11S13339   1.229   4.983   7.249 -0.0487  0.4761  0.5957
  125OSM   H11S13340   1.196   4.882   7.281 -0.3760  0.4263  0.1135
  125OSM   H11T13341   1.146   5.051   7.221  0.8580  0.8184 -1.4685
  125OSM   C12S13342   1.306   5.031   7.372 -0.2873  0.3856  0.2034
  125OSM   H12S13343   1.339   5.135   7.353 -1.2878  0.8703  1.0061
  125OSM   H12T13344   1.397   4.970   7.385  0.1388  1.1779  1.0115
  125OSM   C13S13345   1.228   5.026   7.501  0.3015  0.0593  0.3862
  125OSM   H13S13346   1.176   4.928   7.503 -1.2673  0.7285 -2.2169
  125OSM   H13T13347   1.153   5.109   7.497  0.3355  0.0475 -1.1933
  125OSM   C14S13348   1.318   5.039   7.623  0.0804 -0.4122 -0.4610
  125OSM   H14S13349   1.374   5.135   7.630 -1.0494  0.2793 -0.5683
  125OSM   H14T13350   1.390   4.954   7.627  1.6905  0.9557  2.3701
  125OSM   C15S13351   1.233   5.025   7.752  0.1998 -0.2175 -0.8427
  125OSM   H15S13352   1.280   4.972   7.838 -0.3026 -0.1062 -0.4924
  125OSM   H15T13353   1.137   4.973   7.729 -0.2211 -0.5161  1.3467
  125OSM   C16S13354   1.191   5.165   7.814  0.9258  0.4792  0.3764
  125OSM   H16S13355   1.140   5.220   7.731 -0.9939  0.7274  1.6525
  125OSM   H16T13356   1.282   5.212   7.857  2.2091 -3.1627  2.0007
  125OSM   C17S13357   1.101   5.152   7.935 -0.3983 -0.0452  0.6125
  125OSM   H17S13358   1.020   5.078   7.920 -0.6349  0.3067  0.0974
  125OSM   H17T13359   1.048   5.250   7.944 -0.0441  0.1150  0.9809
  125OSM   C18S13360   1.170   5.116   8.071  0.5006 -0.2783 -0.1254
  125OSM   H18S13361   1.094   5.113   8.152  2.0093 -2.1732  1.3276
  125OSM   H18T13362   1.246   5.190   8.102 -0.4072  0.0330  1.4653
  125OSM   H18U13363   1.213   5.014   8.062  0.5305 -0.3585  0.8268
  125OSM    C1F13364   0.963   4.356   6.513  0.0615 -0.1846  0.0600
  125OSM     OF13365   1.077   4.296   6.519  0.2433 -0.8482 -0.1083
  125OSM    C2F13366   0.831   4.292   6.553  0.3672  0.1452 -0.1470
  125OSM    H2F13367   0.783   4.229   6.475  1.2585 -1.2381  0.3840
  125OSM    H2G13368   0.753   4.368   6.574 -2.5021 -2.5939 -0.0821
  125OSM    C3F13369   0.847   4.196   6.676  0.0111  0.6794 -0.4573
  125OSM    H3F13370   0.915   4.112   6.650 -0.5244 -0.5215  1.7408
  125OSM    H3G13371   0.753   4.139   6.694 -0.0305  0.7916 -0.3200
  125OSM    C4F13372   0.900   4.260   6.802  0.2286 -0.1676 -0.8093
  125OSM    H4F13373   0.977   4.335   6.772 -0.3102 -0.2938 -2.6734
  125OSM    H4G13374   0.946   4.186   6.870 -0.9885  0.1263  0.3700
  125OSM    C5F13375   0.784   4.336   6.881 -0.1817  0.4477 -0.1659
  125OSM    H5F13376   0.701   4.269   6.912 -0.2373  1.3595  1.7682
  125OSM    H5G13377   0.729   4.406   6.815 -1.0018  1.7686  1.8349
  125OSM    C6F13378   0.841   4.395   7.013 -0.0889  0.6501  0.3631
  125OSM    H6F13379   0.904   4.473   6.967  0.1575 -0.4198 -1.1991
  125OSM    H6G13380   0.907   4.324   7.067 -1.6543 -0.2619  1.1429
  125OSM    C7F13381   0.744   4.477   7.096  0.4862  0.5469  0.0846
  125OSM    H7F13382   0.693   4.551   7.030  0.3037  1.2388  0.9930
  125OSM    H7G13383   0.808   4.541   7.159 -0.6569 -0.4221  2.3287
  125OSM    C8F13384   0.656   4.398   7.200  0.2344  0.1927  0.1034
  125OSM    H8F13385   0.720   4.323   7.250 -1.6879 -0.5510  1.5799
  125OSM    H8G13386   0.595   4.329   7.139  1.6819 -0.4383 -0.6769
  125OSM    C9F13387   0.576   4.478   7.302  0.1004 -0.6119  0.1493
  125OSM    H9F13388   0.502   4.546   7.256  1.6104 -0.8142 -2.7856
  125OSM   C10F13389   0.614   4.509   7.428 -0.3597 -0.1345  0.3696
  125OSM   H10F13390   0.543   4.569   7.488 -0.2415 -1.4033  1.8324
  125OSM   C11F13391   0.735   4.470   7.507  0.1177 -0.1822  0.0671
  125OSM   H11F13392   0.793   4.558   7.543  2.0656 -0.5686 -1.9301
  125OSM   H11G13393   0.800   4.401   7.449  0.9612  0.0689  0.6950
  125OSM   C12F13394   0.697   4.395   7.636  0.2706 -0.4351  0.1643
  125OSM   H12F13395   0.597   4.346   7.635  0.4048 -0.7418  0.8644
  125OSM   H12G13396   0.681   4.470   7.716  4.8579  2.3011 -1.1088
  125OSM   C13F13397   0.787   4.283   7.670  0.6052 -0.5695  0.1218
  125OSM   H13F13398   0.896   4.305   7.679  0.8912 -2.4627  1.8835
  125OSM   H13G13399   0.766   4.211   7.588 -0.7252 -1.3056  1.0782
  125OSM   C14F13400   0.754   4.216   7.799 -0.0703  0.4529  0.4520
  125OSM   H14F13401   0.658   4.162   7.784  0.5348 -0.4267 -0.3729
  125OSM   H14G13402   0.721   4.293   7.873  1.5596  0.5581  1.1113
  125OSM   C15F13403   0.857   4.108   7.845 -0.0480 -0.3559  1.1522
  125OSM   H15F13404   0.836   4.074   7.949  0.8057 -2.7403  0.6000
  125OSM   H15G13405   0.957   4.156   7.852  0.7981 -1.6409 -1.1329
  125OSM   C16F13406   0.873   3.978   7.765  0.1667 -0.1932 -0.2464
  125OSM   H16F13407   0.908   3.983   7.659  0.5863  1.2858 -0.0498
  125OSM   H16G13408   0.776   3.924   7.760 -0.3386  0.2934  2.7035
  125OSM   C17F13409   0.984   3.889   7.817  0.0775 -0.4643 -0.1616
  125OSM   H17F13410   0.957   3.883   7.924  1.0982 -1.0310  0.0800
  125OSM   H17G13411   1.092   3.913   7.806  0.3604 -1.8098 -0.6314
  125OSM   C18F13412   0.967   3.747   7.766 -0.2928 -0.7195  1.2150
  125OSM   H18F13413   0.914   3.678   7.835  0.9238 -3.4110 -0.3620
  125OSM   H18G13414   1.062   3.696   7.738  0.6926  1.5261  0.2193
  125OSM   H18H13415   0.906   3.753   7.674  1.7077 -0.0772 -0.1507
  126OSM      N13416   5.220   3.929   6.532  0.0927  0.6237  0.0136
  126OSM    C1513417   5.180   3.870   6.400  0.1479 -0.1209 -0.1196
  126OSM   H15A13418   5.139   3.940   6.329  0.6614  1.0618  0.6945
  126OSM   H15B13419   5.106   3.794   6.419  0.0620  0.4172  1.9373
  126OSM   H15C13420   5.262   3.814   6.358  0.6443  1.2366 -1.0243
  126OSM    C1413421   5.253   3.813   6.628  0.3448  0.1650  0.0854
  126OSM   H14A13422   5.328   3.763   6.568 -0.2149  3.3332 -3.6540
  126OSM   H14B13423   5.163   3.755   6.639 -0.1526  1.0153  0.5240
  126OSM   H14C13424   5.272   3.840   6.731 -4.4180  1.2270  0.9324
  126OSM    C1313425   5.345   4.007   6.529 -0.1430 -0.0218 -0.2592
  126OSM   H13A13426   5.427   3.937   6.518 -0.4630 -0.1872 -1.7624
  126OSM   H13B13427   5.350   4.056   6.625 -0.1318  0.6757 -0.6133
  126OSM   H13C13428   5.344   4.081   6.451 -0.5680  0.0927 -0.1512
  126OSM    C1213429   5.109   4.009   6.604 -0.5301 -1.0990  0.6802
  126OSM   H12A13430   5.144   4.018   6.706 -2.8204 -1.2385  1.5272
  126OSM   H12B13431   5.023   3.944   6.613  0.1302 -2.2824 -1.0672
  126OSM    C1113432   5.067   4.153   6.548  0.1381 -0.6649  0.1857
  126OSM   H11A13433   4.980   4.181   6.611  0.1981  0.9049 -0.3730
  126OSM   H11B13434   5.045   4.141   6.440 -1.5241 -0.2470  0.4608
  126OSM      P13435   5.190   4.369   6.463 -0.4043  0.0804 -0.0370
  126OSM    O1313436   5.230   4.306   6.329 -0.0557  0.2729  0.2496
  126OSM    O1413437   5.071   4.457   6.454  0.6133 -0.2375 -0.0183
  126OSM    O1113438   5.305   4.447   6.523 -0.2216 -0.3773 -0.2569
  126OSM    O1213439   5.171   4.249   6.567  0.6108 -0.7243 -0.6842
  126OSM    C1S13440   5.293   4.526   6.645 -1.2672 -0.2308  0.2569
  126OSM    H1S13441   5.243   4.464   6.723 -0.9959 -2.1853 -1.0386
  126OSM    H1T13442   5.225   4.612   6.626 -0.9780  0.4511  2.1700
  126OSM     NF13443   5.437   4.603   6.830 -0.5026  0.0732 -0.4184
  126OSM    HNF13444   5.441   4.699   6.856  0.8377  0.2677 -1.2269
  126OSM    C2S13445   5.437   4.569   6.688  0.2704  0.6713 -0.5227
  126OSM    H2S13446   5.516   4.492   6.684 -1.3432 -1.0583 -0.2525
  126OSM    C3S13447   5.479   4.686   6.596 -0.9130 -0.4796  0.1034
  126OSM    H3S13448   5.406   4.769   6.598 -0.4795 -0.0942  0.0197
  126OSM     O313449   5.484   4.649   6.456 -0.1301 -0.4346  0.1800
  126OSM    HO313450   5.464   4.555   6.454  1.3342 -0.7780  0.3836
  126OSM    C4S13451   5.609   4.732   6.643 -0.6574  0.5577 -0.1239
  126OSM    H4S13452   5.605   4.834   6.684  0.8646  0.8775 -0.7040
  126OSM    C5S13453   5.723   4.654   6.652  0.1324 -0.0043  0.4331
  126OSM    H5S13454   5.701   4.557   6.605 -3.1673  1.7222 -2.0607
  126OSM    C6S13455   5.855   4.692   6.714  0.4912 -0.7601  0.6031
  126OSM    H6S13456   5.869   4.802   6.720  1.0694 -0.5781 -2.4978
  126OSM    H6T13457   5.935   4.666   6.641 -0.4332 -0.1002 -0.6794
  126OSM    C7S13458   5.883   4.628   6.848  0.1160  0.6572  0.0460
  126OSM    H7S13459   5.989   4.653   6.868  1.1566 -0.6240 -3.2772
  126OSM    H7T13460   5.886   4.518   6.834 -0.1495  0.7886 -1.1549
  126OSM    C8S13461   5.794   4.661   6.962 -0.5759  0.3863  0.1850
  126OSM    H8S13462   5.702   4.599   6.962 -0.3076 -0.0435 -0.9367
  126OSM    H8T13463   5.778   4.771   6.968 -0.5543  0.3605  0.7558
  126OSM    C9S13464   5.858   4.616   7.097 -0.1308 -0.7869 -0.5657
  126OSM    H9S13465   5.947   4.680   7.116 -0.7892 -0.0038  0.0039
  126OSM    H9T13466   5.895   4.512   7.089 -0.9796 -1.0557 -1.1520
  126OSM   C10S13467   5.766   4.638   7.218  0.6029 -0.0065  0.3921
  126OSM   H10S13468   5.685   4.562   7.212 -0.3333  0.9698  0.1928
  126OSM   H10T13469   5.716   4.737   7.221 -0.1300 -0.3179 -0.6881
  126OSM   C11S13470   5.839   4.619   7.359 -0.3784 -0.6453  0.1804
  126OSM   H11S13471   5.921   4.692   7.375 -0.6372 -0.5492  1.1352
  126OSM   H11T13472   5.889   4.521   7.346 -1.8673 -1.2761 -1.1809
  126OSM   C12S13473   5.738   4.621   7.472 -0.0521 -0.3532  0.7436
  126OSM   H12S13474   5.657   4.548   7.454  0.2915 -0.4840 -0.3274
  126OSM   H12T13475   5.708   4.727   7.483  1.5301  0.1147  0.7873
  126OSM   C13S13476   5.804   4.589   7.605 -0.7236 -0.0568 -0.3408
  126OSM   H13S13477   5.884   4.657   7.640  0.3850 -1.8015  0.6946
  126OSM   H13T13478   5.864   4.498   7.585  0.7739  0.9610 -0.6665
  126OSM   C14S13479   5.707   4.573   7.720 -0.3557 -0.3456 -0.3265
  126OSM   H14S13480   5.612   4.524   7.692  0.1413 -1.4680 -0.1270
  126OSM   H14T13481   5.676   4.673   7.756 -0.6513 -0.8382  0.8301
  126OSM   C15S13482   5.771   4.517   7.847  0.4664 -0.4372 -0.9373
  126OSM   H15S13483   5.870   4.563   7.870  1.0127 -2.7080  1.8179
  126OSM   H15T13484   5.791   4.409   7.831  4.2144  0.2819 -2.2127
  126OSM   C16S13485   5.684   4.530   7.967 -0.0138  0.5199  0.4712
  126OSM   H16S13486   5.576   4.516   7.945  0.0197  0.8324  0.1043
  126OSM   H16T13487   5.702   4.629   8.013 -0.5029  2.2040 -2.6668
  126OSM   C17S13488   5.708   4.415   8.067 -0.1253  0.2089 -1.0990
  126OSM   H17S13489   5.726   4.313   8.025  0.2206 -0.3057  0.2485
  126OSM   H17T13490   5.618   4.410   8.133  0.0101 -0.9326 -0.9700
  126OSM   C18S13491   5.825   4.453   8.158  0.4125 -0.3829  0.1763
  126OSM   H18S13492   5.804   4.558   8.187 -2.1428 -0.1538 -2.0765
  126OSM   H18T13493   5.920   4.462   8.102  1.1691 -1.9654  1.1247
  126OSM   H18U13494   5.829   4.375   8.238 -0.4543 -0.6637 -0.0476
  126OSM    C1F13495   5.428   4.519   6.937  0.6686  0.5555  0.2941
  126OSM     OF13496   5.423   4.395   6.918  0.0743 -0.1992 -0.3668
  126OSM    C2F13497   5.401   4.578   7.071  0.3019  0.0926 -0.2514
  126OSM    H2F13498   5.326   4.660   7.064 -0.0424 -0.0287  1.6345
  126OSM    H2G13499   5.489   4.627   7.116 -2.6618  3.4853  2.3659
  126OSM    C3F13500   5.340   4.484   7.172 -0.5274  0.2506 -0.1986
  126OSM    H3F13501   5.401   4.394   7.190  1.5787  1.8643  1.2375
  126OSM    H3G13502   5.240   4.460   7.130 -0.2072  0.0168 -0.8334
  126OSM    C4F13503   5.323   4.549   7.310  0.3661  0.0050 -0.1107
  126OSM    H4F13504   5.269   4.646   7.319  2.1861  0.8338  4.5542
  126OSM    H4G13505   5.423   4.573   7.353 -0.2594  0.8156  0.9378
  126OSM    C5F13506   5.259   4.452   7.417  0.9293  0.4189  0.1141
  126OSM    H5F13507   5.308   4.354   7.396 -1.1641 -0.4569 -0.9367
  126OSM    H5G13508   5.150   4.434   7.406  1.1134 -0.7045  0.0197
  126OSM    C6F13509   5.277   4.492   7.572  1.1999 -0.8076 -0.0909
  126OSM    H6F13510   5.214   4.583   7.584 -0.2865 -1.5364 -1.8775
  126OSM    H6G13511   5.383   4.518   7.589  1.7370 -2.4787 -0.6920
  126OSM    C7F13512   5.244   4.385   7.672  0.1355  0.4851 -1.1468
  126OSM    H7F13513   5.310   4.301   7.643  0.3120  0.0954  0.3277
  126OSM    H7G13514   5.145   4.337   7.654  0.3894 -0.1459 -0.8674
  126OSM    C8F13515   5.257   4.435   7.816  0.0029  0.4629  0.3407
  126OSM    H8F13516   5.352   4.491   7.822  0.0176  0.4015  0.7371
  126OSM    H8G13517   5.258   4.359   7.897  0.9833  0.2251  0.1111
  126OSM    C9F13518   5.140   4.529   7.843 -0.9772  0.8060  0.6133
  126OSM    H9F13519   5.142   4.622   7.784  1.1161 -0.6038 -1.7433
  126OSM   C10F13520   5.048   4.525   7.934  0.2975  0.4953 -0.0928
  126OSM   H10F13521   4.976   4.607   7.947 -1.3152 -0.5577 -1.8581
  126OSM   C11F13522   5.026   4.415   8.036 -0.3391  0.4086 -0.0176
  126OSM   H11F13523   5.060   4.314   8.007  1.0661  1.4799 -2.3539
  126OSM   H11G13524   4.915   4.416   8.044 -0.2634  1.4046  1.4217
  126OSM   C12F13525   5.076   4.442   8.178  0.0508  0.5552 -0.4270
  126OSM   H12F13526   5.041   4.542   8.212  0.1090  0.2454  0.5515
  126OSM   H12G13527   5.186   4.434   8.184  0.0902  0.3348 -1.2717
  126OSM   C13F13528   5.025   4.352   8.286  0.5010 -0.2073  0.6289
  126OSM   H13F13529   5.042   4.249   8.248  0.0390 -0.1551  0.2685
  126OSM   H13G13530   4.916   4.360   8.270  0.7989 -0.9080 -2.3435
  126OSM   C14F13531   5.075   4.379   8.429 -0.2076  0.0477 -0.1507
  126OSM   H14F13532   5.017   4.466   8.467  0.0022  0.7369 -1.3389
  126OSM   H14G13533   5.183   4.405   8.434 -0.5378  1.5724 -0.3489
  126OSM   C15F13534   5.033   4.277   8.538 -1.1855  0.5391  0.1576
  126OSM   H15F13535   5.069   4.315   8.637  1.5279 -2.8840  0.6987
  126OSM   H15G13536   5.093   4.184   8.521 -0.5196  1.2216 -1.3489
  126OSM   C16F13537   4.879   4.252   8.544  0.1957  0.1294  0.8383
  126OSM   H16F13538   4.864   4.220   8.439  0.3675  0.7510  0.6178
  126OSM   H16G13539   4.821   4.348   8.547  0.7536  0.5613 -1.0403
  126OSM   C17F13540   4.834   4.148   8.643  0.6937  0.0212 -0.6126
  126OSM   H17F13541   4.825   4.203   8.740  1.1579 -0.4533 -0.2978
  126OSM   H17G13542   4.904   4.062   8.652 -0.6448 -1.0879 -0.4719
  126OSM   C18F13543   4.697   4.097   8.591  0.0088 -0.0453  0.4788
  126OSM   H18F13544   4.647   4.044   8.675  0.7592 -1.1491  0.2475
  126OSM   H18G13545   4.700   4.026   8.506 -1.4538 -1.2785  1.3846
  126OSM   H18H13546   4.633   4.180   8.553 -2.2642 -2.1566 -0.6152
  127OSM      N13547   5.597   3.176   6.243  0.2483  0.2997  0.0971
  127OSM    C1513548   5.571   3.090   6.362  0.6328 -0.0321 -0.6216
  127OSM   H15A13549   5.633   3.003   6.349 -1.1906 -1.4007 -0.6354
  127OSM   H15B13550   5.468   3.061   6.377  0.4338  1.7119  1.8867
  127OSM   H15C13551   5.605   3.132   6.455 -1.3824 -2.0636  1.1523
  127OSM    C1413552   5.555   3.102   6.121  0.1317 -0.0934 -0.5374
  127OSM   H14A13553   5.623   3.021   6.099 -0.1094 -0.9436  1.5887
  127OSM   H14B13554   5.543   3.169   6.037  1.8758 -1.6508 -2.1424
  127OSM   H14C13555   5.458   3.060   6.141  0.0444  0.5706  0.4899
  127OSM    C1313556   5.513   3.301   6.269 -0.2819 -0.1052  0.3158
  127OSM   H13A13557   5.407   3.295   6.248  0.0725  1.1918 -2.3213
  127OSM   H13B13558   5.544   3.386   6.210  3.2600 -1.7449 -0.4501
  127OSM   H13C13559   5.525   3.333   6.372 -2.0869 -1.5206  1.0303
  127OSM    C1213560   5.741   3.211   6.230 -0.6246  0.3328  0.3033
  127OSM   H12A13561   5.751   3.268   6.139 -0.6770  0.1337  0.1740
  127OSM   H12B13562   5.792   3.119   6.205 -0.8873 -0.3278  2.0573
  127OSM    C1113563   5.815   3.280   6.344  0.1485 -0.3624 -0.3709
  127OSM   H11A13564   5.919   3.282   6.305  0.4477 -0.5180  0.3941
  127OSM   H11B13565   5.821   3.219   6.437  2.9449  0.1370 -0.1315
  127OSM      P13566   5.801   3.536   6.284  0.1149 -0.4315  0.2212
  127OSM    O1313567   5.842   3.484   6.153  0.1754  0.4024  0.6568
  127OSM    O1413568   5.688   3.628   6.291  0.8354  0.4282 -0.8739
  127OSM    O1113569   5.936   3.587   6.349  0.2690 -1.0277 -0.1510
  127OSM    O1213570   5.771   3.412   6.378  0.1624  0.5069  0.5817
  127OSM    C1S13571   5.942   3.647   6.479  0.2239 -0.1068 -0.0280
  127OSM    H1S13572   5.845   3.694   6.507 -1.1844 -1.8360 -1.7569
  127OSM    H1T13573   6.035   3.707   6.487  1.4815 -1.9514 -0.3184
  127OSM     NF13574   5.932   3.577   6.726  0.0999 -0.1016  0.0968
  127OSM    HNF13575   6.007   3.572   6.790  0.1515 -0.9229 -0.0221
  127OSM    C2S13576   5.956   3.538   6.589 -0.1271  0.4744  0.4330
  127OSM    H2S13577   5.869   3.470   6.574  1.5050 -1.2630 -1.9396
  127OSM    C3S13578   6.086   3.458   6.565  0.3729  0.5461 -0.8553
  127OSM    H3S13579   6.175   3.525   6.576 -0.1000  1.2088 -1.0028
  127OSM     O313580   6.108   3.401   6.440  0.0481  0.4761 -0.4698
  127OSM    HO313581   6.036   3.436   6.387  0.0774  2.3852  0.6809
  127OSM    C4S13582   6.105   3.354   6.676  0.1908  0.1299  0.4526
  127OSM    H4S13583   6.172   3.398   6.751  1.6005  0.3365 -0.8864
  127OSM    C5S13584   6.041   3.237   6.691 -0.6949  0.1373 -0.6923
  127OSM    H5S13585   5.972   3.203   6.614  0.0371  0.2665 -1.4159
  127OSM    C6S13586   6.073   3.133   6.798 -0.5598 -0.1119 -0.5450
  127OSM    H6S13587   6.101   3.033   6.757  2.7790  0.8379 -0.8071
  127OSM    H6T13588   5.990   3.115   6.870 -0.4659 -0.3342 -0.4926
  127OSM    C7S13589   6.193   3.168   6.894 -0.3988 -0.2703  0.6669
  127OSM    H7S13590   6.172   3.267   6.940 -0.3834  1.2080 -2.3153
  127OSM    H7T13591   6.281   3.162   6.827 -0.1234 -1.1307  1.0898
  127OSM    C8S13592   6.210   3.066   7.009 -0.5484  0.2029 -1.0898
  127OSM    H8S13593   6.222   2.961   6.974 -1.7176 -0.5477  0.6257
  127OSM    H8T13594   6.124   3.063   7.079  1.1047  0.6836  1.0548
  127OSM    C9S13595   6.327   3.089   7.107  0.0077 -0.2847  0.1129
  127OSM    H9S13596   6.422   3.108   7.053  0.5245 -0.8145  0.8256
  127OSM    H9T13597   6.344   2.992   7.158  2.8255 -0.6946 -1.3964
  127OSM   C10S13598   6.306   3.202   7.210  0.8072  0.1316 -0.6384
  127OSM   H10S13599   6.197   3.215   7.229  1.2143  2.3654  0.5744
  127OSM   H10T13600   6.343   3.291   7.155 -0.4456  1.9642  1.3197
  127OSM   C11S13601   6.388   3.190   7.337  0.2807  0.0804 -0.1003
  127OSM   H11S13602   6.399   3.295   7.372 -0.3785  0.7250 -1.7259
  127OSM   H11T13603   6.484   3.155   7.294 -0.8354 -0.3118 -2.4170
  127OSM   C12S13604   6.326   3.101   7.449 -0.6851  0.0439 -0.3096
  127OSM   H12S13605   6.310   3.001   7.403 -2.2113 -0.1385  0.5644
  127OSM   H12T13606   6.227   3.143   7.473 -0.6763 -1.6687  3.2666
  127OSM   C13S13607   6.418   3.102   7.572  0.2241 -0.2549 -0.8934
  127OSM   H13S13608   6.421   3.209   7.600 -0.3746 -0.3640 -0.3789
  127OSM   H13T13609   6.519   3.059   7.557 -0.0256 -1.7434  1.2441
  127OSM   C14S13610   6.340   3.024   7.681 -0.4965 -0.5650  0.2711
  127OSM   H14S13611   6.316   2.931   7.626 -2.3197  0.4116 -0.6960
  127OSM   H14T13612   6.245   3.080   7.697  0.6185  1.9358 -1.2281
  127OSM   C15S13613   6.421   3.002   7.806 -0.5668  0.3877  0.3385
  127OSM   H15S13614   6.459   3.097   7.849  0.3449  0.9287 -1.5457
  127OSM   H15T13615   6.512   2.946   7.775 -0.0119  0.9465  0.9435
  127OSM   C16S13616   6.350   2.921   7.911 -0.1876  0.1784 -0.4268
  127OSM   H16S13617   6.293   2.840   7.861  1.3029 -0.1245 -1.7564
  127OSM   H16T13618   6.273   2.982   7.963 -1.0494 -1.1569 -0.1160
  127OSM   C17S13619   6.450   2.886   8.024  0.3504 -0.7188  0.4843
  127OSM   H17S13620   6.504   2.982   8.040  1.6110 -1.0733 -1.3236
  127OSM   H17T13621   6.523   2.814   7.982  0.8646  0.1867 -0.2290
  127OSM   C18S13622   6.384   2.837   8.154 -0.3347 -0.6603  0.4891
  127OSM   H18S13623   6.348   2.734   8.134 -3.9065  0.7719 -1.2572
  127OSM   H18T13624   6.296   2.899   8.181 -0.9611  0.5184 -3.5819
  127OSM   H18U13625   6.460   2.848   8.235 -0.2796  1.1196  0.2222
  127OSM    C1F13626   5.816   3.630   6.770 -0.1848  0.6201  0.1980
  127OSM     OF13627   5.711   3.616   6.710 -0.1166 -0.4464  0.7230
  127OSM    C2F13628   5.834   3.715   6.896  0.5255  0.1737  0.1005
  127OSM    H2F13629   5.901   3.800   6.869  1.6783 -0.6335  0.3401
  127OSM    H2G13630   5.896   3.651   6.962  0.2556 -2.4333 -2.0069
  127OSM    C3F13631   5.694   3.759   6.964  0.4544  0.5676  0.6325
  127OSM    H3F13632   5.608   3.689   6.955 -0.5593  1.9264 -0.6511
  127OSM    H3G13633   5.662   3.836   6.891  0.3434  0.1521  0.2404
  127OSM    C4F13634   5.713   3.811   7.107 -0.1028  0.0994  0.2278
  127OSM    H4F13635   5.628   3.882   7.109  0.2675  0.5573 -0.0166
  127OSM    H4G13636   5.800   3.881   7.104  0.7341 -0.8885 -3.3565
  127OSM    C5F13637   5.694   3.699   7.215  0.6715 -0.8759  0.1483
  127OSM    H5F13638   5.790   3.643   7.221  0.6604 -1.1060 -1.4509
  127OSM    H5G13639   5.621   3.632   7.164 -1.2181  0.9938  0.2209
  127OSM    C6F13640   5.644   3.747   7.352 -0.1936  0.5549 -0.1982
  127OSM    H6F13641   5.534   3.736   7.357 -0.3866  2.7592  3.3700
  127OSM    H6G13642   5.660   3.852   7.381  3.0315 -0.1276  0.8897
  127OSM    C7F13643   5.683   3.655   7.471  0.0129  0.6100 -0.4597
  127OSM    H7F13644   5.681   3.549   7.440  2.1603  0.6632 -0.9057
  127OSM    H7G13645   5.613   3.675   7.555 -0.5567 -0.3814 -0.6901
  127OSM    C8F13646   5.824   3.677   7.514  0.5438 -0.5683 -0.5090
  127OSM    H8F13647   5.888   3.652   7.427 -0.6832 -2.1619 -1.0226
  127OSM    H8G13648   5.842   3.604   7.597  2.2835  0.5915  0.1919
  127OSM    C9F13649   5.851   3.817   7.572  0.3062 -0.4857  0.4695
  127OSM    H9F13650   5.867   3.894   7.496  0.9767  0.0270  1.1245
  127OSM   C10F13651   5.845   3.854   7.702  0.2630  0.5764 -0.5188
  127OSM   H10F13652   5.887   3.951   7.732 -0.1716  0.3555  0.9236
  127OSM   C11F13653   5.809   3.762   7.813 -0.0368 -0.2177  0.1124
  127OSM   H11F13654   5.737   3.685   7.779  1.9916 -2.1438 -0.0050
  127OSM   H11G13655   5.769   3.822   7.898  1.6192  1.0072  0.0816
  127OSM   C12F13656   5.923   3.684   7.877  0.5243 -0.3606  0.4510
  127OSM   H12F13657   5.994   3.669   7.792  0.2842  1.4388 -0.1096
  127OSM   H12G13658   5.898   3.589   7.928  2.0960 -1.0110  0.0553
  127OSM   C13F13659   5.994   3.764   7.982 -0.4770  0.6832 -0.1242
  127OSM   H13F13660   5.995   3.875   7.981  0.7995  0.6960  0.2718
  127OSM   H13G13661   6.102   3.745   7.966 -0.0194  2.6123  0.4125
  127OSM   C14F13662   5.954   3.740   8.126  0.5726 -0.7851  0.5052
  127OSM   H14F13663   5.960   3.631   8.145  0.6028 -0.2578  4.2825
  127OSM   H14G13664   5.850   3.776   8.144  0.9515  1.6395 -1.5467
  127OSM   C15F13665   6.053   3.813   8.213 -0.1803  0.1020 -0.1849
  127OSM   H15F13666   6.001   3.806   8.311  1.5473 -3.8800  0.6325
  127OSM   H15G13667   6.063   3.921   8.186 -1.2291  0.2943  0.1642
  127OSM   C16F13668   6.184   3.734   8.238 -0.5191  0.2909 -0.0763
  127OSM   H16F13669   6.267   3.799   8.274  1.6061 -2.8609  1.2046
  127OSM   H16G13670   6.219   3.691   8.142 -0.3435  0.3373 -0.0351
  127OSM   C17F13671   6.177   3.618   8.348 -0.8365 -0.1743  0.3824
  127OSM   H17F13672   6.120   3.538   8.296  0.8204 -0.4755 -1.0574
  127OSM   H17G13673   6.119   3.653   8.436 -0.8505 -2.3646  1.3202
  127OSM   C18F13674   6.320   3.583   8.380  1.0075 -1.0422 -0.5959
  127OSM   H18F13675   6.363   3.550   8.283 -0.1611 -0.8715 -1.1818
  127OSM   H18G13676   6.311   3.507   8.461  1.2567  1.2248  1.6877
  127OSM   H18H13677   6.375   3.670   8.422  1.5972 -1.3361 -0.7505
  128OSM      N13678   1.487   5.502   5.756 -0.3212 -0.1481 -0.7744
  128OSM    C1513679   1.396   5.584   5.844  0.1876  0.3049  0.3765
  128OSM   H15A13680   1.318   5.631   5.785  0.2448 -1.5554 -1.2907
  128OSM   H15B13681   1.451   5.662   5.895 -1.0933  1.1842  0.4587
  128OSM   H15C13682   1.353   5.524   5.923  2.3678  0.1211  1.4991
  128OSM    C1413683   1.408   5.372   5.740 -0.6659 -1.1066 -0.3786
  128OSM   H14A13684   1.419   5.317   5.832 -0.1183 -0.7629 -0.2352
  128OSM   H14B13685   1.445   5.315   5.656  1.2757 -0.5190  0.0357
  128OSM   H14C13686   1.304   5.397   5.725  0.0040  1.4932 -1.0940
  128OSM    C1313687   1.494   5.566   5.622  0.2436  0.4500  0.1244
  128OSM   H13A13688   1.553   5.510   5.551 -0.2500  2.4145 -1.9244
  128OSM   H13B13689   1.538   5.664   5.629  2.2294 -0.2377 -1.7466
  128OSM   H13C13690   1.394   5.586   5.585  0.7179  2.4881 -0.1639
  128OSM    C1213691   1.625   5.477   5.821  0.2981  0.2214  0.3113
  128OSM   H12A13692   1.677   5.572   5.823  0.3021  0.2710 -1.3019
  128OSM   H12B13693   1.678   5.411   5.754  0.6748  0.4590  0.3716
  128OSM    C1113694   1.643   5.422   5.961 -0.0701 -0.0862  0.2023
  128OSM   H11A13695   1.587   5.494   6.026 -1.1548  0.3165 -1.1405
  128OSM   H11B13696   1.741   5.420   6.013 -1.1291 -1.3817  2.2786
  128OSM      P13697   1.653   5.167   5.950  0.2381  0.3045  0.2734
  128OSM    O1313698   1.551   5.057   5.935  0.1331  0.0855 -0.3333
  128OSM    O1413699   1.753   5.173   5.845 -0.6442 -0.2244  0.1193
  128OSM    O1113700   1.725   5.150   6.091  0.2322  0.2230  0.3024
  128OSM    O1213701   1.573   5.296   5.972  0.8628 -0.5424  0.1930
  128OSM    C1S13702   1.653   5.124   6.214  0.3046 -0.0570  0.2374
  128OSM    H1S13703   1.608   5.022   6.214 -1.4695  0.6857  0.3449
  128OSM    H1T13704   1.566   5.190   6.230  1.3780  1.1455  1.3147
  128OSM     NF13705   1.654   5.085   6.451  0.0067 -0.6114  0.3694
  128OSM    HNF13706   1.601   5.154   6.500  2.6865  2.2962 -0.5083
  128OSM    C2S13707   1.740   5.132   6.339 -0.4636 -0.6031 -0.6786
  128OSM    H2S13708   1.824   5.059   6.334  0.2694  0.2721 -1.9793
  128OSM    C3S13709   1.804   5.277   6.352 -0.1849 -0.0787 -0.0026
  128OSM    H3S13710   1.720   5.348   6.367  1.4108  1.6286  1.4445
  128OSM     O313711   1.883   5.324   6.248  0.0324  0.1390  0.2507
  128OSM    HO313712   1.848   5.274   6.173 -0.3898  1.3581 -0.4010
  128OSM    C4S13713   1.876   5.281   6.485  0.3321 -0.6146 -0.7302
  128OSM    H4S13714   1.835   5.360   6.549  0.7607 -0.6809 -0.3675
  128OSM    C5S13715   1.990   5.214   6.512  0.6422  0.1074  0.7203
  128OSM    H5S13716   2.034   5.161   6.426 -1.1300 -0.1103 -0.1070
  128OSM    C6S13717   2.068   5.212   6.641  0.2561  0.1544  0.2002
  128OSM    H6S13718   2.136   5.300   6.634 -1.8092  1.7554 -0.8618
  128OSM    H6T13719   2.135   5.124   6.657  0.2551 -0.0416 -0.8268
  128OSM    C7S13720   1.984   5.236   6.767 -0.1009  0.1599 -0.0034
  128OSM    H7S13721   1.903   5.161   6.779 -0.7808  1.0277  0.9733
  128OSM    H7T13722   1.936   5.336   6.772 -0.9089 -0.2704  1.2136
  128OSM    C8S13723   2.074   5.222   6.893  0.4496  0.3745 -0.2051
  128OSM    H8S13724   2.149   5.304   6.892 -0.0619  0.8398 -0.6474
  128OSM    H8T13725   2.116   5.119   6.900 -0.0641  0.0064 -2.0091
  128OSM    C9S13726   1.986   5.235   7.026 -0.3772 -0.4001  0.7085
  128OSM    H9S13727   1.925   5.143   7.032  1.4955 -1.7169  0.3422
  128OSM    H9T13728   1.928   5.329   7.010 -0.6026 -0.6830 -0.1882
  128OSM   C10S13729   2.077   5.257   7.151 -0.5227 -0.5532 -0.1754
  128OSM   H10S13730   2.144   5.346   7.143  3.9769 -3.3995  1.8882
  128OSM   H10T13731   2.156   5.181   7.169  1.5473  1.7616  1.1859
  128OSM   C11S13732   1.996   5.253   7.279  0.1928  0.0888 -0.3532
  128OSM   H11S13733   1.961   5.149   7.296  0.1662 -0.1657 -1.8563
  128OSM   H11T13734   1.909   5.321   7.266  2.0609  2.5502 -0.5929
  128OSM   C12S13735   2.078   5.281   7.411  0.1023  0.0106 -0.4242
  128OSM   H12S13736   2.125   5.381   7.402  0.0289  0.0504 -0.3735
  128OSM   H12T13737   2.165   5.213   7.412 -1.0241 -1.4841  1.2969
  128OSM   C13S13738   2.011   5.254   7.546 -0.3024 -0.2396  0.3523
  128OSM   H13S13739   2.055   5.165   7.596  0.0700  0.8670  2.0854
  128OSM   H13T13740   1.905   5.222   7.532 -0.5307  0.9818 -0.8378
  128OSM   C14S13741   2.016   5.371   7.636 -0.3776  0.2335 -0.3525
  128OSM   H14S13742   1.965   5.462   7.597 -0.0619  0.6835  0.2624
  128OSM   H14T13743   2.124   5.393   7.644 -0.4968  0.4476  0.9158
  128OSM   C15S13744   1.945   5.331   7.763 -0.3945 -0.9043  0.4274
  128OSM   H15S13745   2.006   5.251   7.811 -1.2103 -0.5491  2.1562
  128OSM   H15T13746   1.843   5.301   7.732 -0.7982  1.5863 -0.8483
  128OSM   C16S13747   1.923   5.445   7.861 -0.7479 -0.0225 -0.2643
  128OSM   H16S13748   1.879   5.405   7.955  1.6839  0.3779  1.1164
  128OSM   H16T13749   1.865   5.524   7.809  0.2399 -1.3396 -3.6111
  128OSM   C17S13750   2.053   5.528   7.896  0.7625 -0.1887  0.0912
  128OSM   H17S13751   2.081   5.591   7.808 -3.2619  0.8181 -0.6462
  128OSM   H17T13752   2.134   5.462   7.934  1.4710  0.0333 -0.9740
  128OSM   C18S13753   2.039   5.628   8.018 -0.1725  0.2766  0.8830
  128OSM   H18S13754   1.972   5.712   7.988 -1.1493 -1.3526 -1.9244
  128OSM   H18T13755   2.138   5.658   8.058 -0.0980  1.2338  0.0242
  128OSM   H18U13756   1.981   5.584   8.102 -0.9737  0.8585  0.6500
  128OSM    C1F13757   1.627   4.961   6.465  0.2300  0.3169 -0.6878
  128OSM     OF13758   1.674   4.876   6.393 -0.1143  0.1117  0.2433
  128OSM    C2F13759   1.546   4.926   6.589 -0.0120 -0.0366 -0.2519
  128OSM    H2F13760   1.451   4.876   6.562 -0.2987  0.3842 -0.0433
  128OSM    H2G13761   1.500   5.021   6.623 -1.1883 -0.3790 -0.8586
  128OSM    C3F13762   1.618   4.854   6.702 -0.1100  0.6319  0.9478
  128OSM    H3F13763   1.666   4.763   6.659  2.4567  3.0597 -1.7695
  128OSM    H3G13764   1.543   4.798   6.763  2.1118 -1.5074  1.8920
  128OSM    C4F13765   1.712   4.942   6.782 -0.3344  0.3182  0.5351
  128OSM    H4F13766   1.655   5.036   6.791  0.5281  1.2633 -2.5237
  128OSM    H4G13767   1.805   4.971   6.727  0.1742 -0.7991  0.7756
  128OSM    C5F13768   1.785   4.874   6.905  0.7572 -0.5633 -0.6317
  128OSM    H5F13769   1.862   4.944   6.944 -1.0536  1.5421 -0.6323
  128OSM    H5G13770   1.842   4.789   6.862 -0.5193 -1.5635 -0.3854
  128OSM    C6F13771   1.701   4.846   7.028  0.2170  0.4147  0.2468
  128OSM    H6F13772   1.659   4.745   7.010  1.5771 -0.4787  1.8535
  128OSM    H6G13773   1.621   4.923   7.038  0.9840  1.1609  0.7464
  128OSM    C7F13774   1.790   4.819   7.149  0.5537  0.0084 -0.8690
  128OSM    H7F13775   1.890   4.780   7.121  0.3422 -1.4846  0.3591
  128OSM    H7G13776   1.751   4.736   7.211  0.4661  0.6055 -0.1149
  128OSM    C8F13777   1.811   4.937   7.246 -0.0960 -0.5839  0.1348
  128OSM    H8F13778   1.845   5.023   7.184  1.8990 -1.9234 -0.7403
  128OSM    H8G13779   1.902   4.913   7.305  1.3244  2.8199 -0.4506
  128OSM    C9F13780   1.696   4.984   7.338 -0.4498 -0.4085  0.3729
  128OSM    H9F13781   1.632   5.062   7.294  0.9453  0.2195 -0.6191
  128OSM   C10F13782   1.687   4.951   7.469  0.5234  0.0822  0.0284
  128OSM   H10F13783   1.591   4.967   7.520  0.0266  1.4344 -1.2502
  128OSM   C11F13784   1.780   4.865   7.546 -1.2290  0.4505  0.7198
  128OSM   H11F13785   1.885   4.894   7.529 -1.2650  0.5284  0.6255
  128OSM   H11G13786   1.778   4.755   7.531  1.5935  0.1088  2.2407
  128OSM   C12F13787   1.753   4.876   7.696  0.6396 -0.2800  0.3029
  128OSM   H12F13788   1.797   4.787   7.747 -0.5959 -0.7739  0.5396
  128OSM   H12G13789   1.643   4.879   7.709  0.5544 -0.0802 -0.4612
  128OSM   C13F13790   1.791   5.014   7.752 -0.4628  0.2360 -0.2955
  128OSM   H13F13791   1.720   5.095   7.724  0.1623  1.0732  0.4540
  128OSM   H13G13792   1.892   5.040   7.713  0.7699 -1.4927  1.5551
  128OSM   C14F13793   1.791   5.021   7.905 -0.1884 -0.5510  0.1227
  128OSM   H14F13794   1.813   5.129   7.924 -0.5636 -0.7178  1.6636
  128OSM   H14G13795   1.870   4.954   7.944 -0.8658  0.2900  3.2251
  128OSM   C15F13796   1.657   4.981   7.974 -0.3309 -0.2550  0.3986
  128OSM   H15F13797   1.626   4.885   7.926 -1.0516  0.4583 -0.6065
  128OSM   H15G13798   1.577   5.051   7.944 -0.3618 -0.5330 -0.1699
  128OSM   C16F13799   1.658   4.981   8.127 -0.0378 -0.0071 -0.1932
  128OSM   H16F13800   1.669   5.084   8.167  2.7233 -0.2138 -0.2186
  128OSM   H16G13801   1.748   4.928   8.166 -0.3287  0.5151  1.2524
  128OSM   C17F13802   1.539   4.895   8.171  0.0294 -0.1004  0.6152
  128OSM   H17F13803   1.539   4.805   8.105  1.5700 -0.3682  0.9463
  128OSM   H17G13804   1.447   4.948   8.139  0.4085 -0.6488 -1.5415
  128OSM   C18F13805   1.531   4.864   8.317  0.0130 -0.1522 -0.3906
  128OSM   H18F13806   1.611   4.796   8.355 -0.5389 -0.8453 -0.4377
  128OSM   H18G13807   1.435   4.814   8.342 -0.6646  1.3151  0.0405
  128OSM   H18H13808   1.538   4.955   8.379 -2.6372 -1.1670  1.6088
  129OSM      N13809   6.100   2.873   5.703  0.6645 -0.3297 -0.1323
  129OSM    C1513810   6.156   2.756   5.627 -0.0095 -0.5084  0.7938
  129OSM   H15A13811   6.220   2.808   5.557 -1.9120 -1.3847 -1.7230
  129OSM   H15B13812   6.082   2.703   5.570  0.0470 -0.3152  0.5419
  129OSM   H15C13813   6.215   2.686   5.684 -0.2860 -0.6135  0.9512
  129OSM    C1413814   6.217   2.968   5.706  0.0376 -0.3119  0.3044
  129OSM   H14A13815   6.200   3.055   5.768  1.5926 -0.2303  0.6651
  129OSM   H14B13816   6.232   3.003   5.605  0.3109 -0.9963  0.1061
  129OSM   H14C13817   6.313   2.930   5.738  0.9609  0.6514 -1.1822
  129OSM    C1313818   5.985   2.937   5.628  0.3341  0.1461  0.7991
  129OSM   H13A13819   5.892   2.885   5.645 -0.9871  1.2751 -2.2001
  129OSM   H13B13820   6.002   2.946   5.522 -0.1642  2.8451  0.8753
  129OSM   H13C13821   5.960   3.040   5.648 -1.0024  0.3751 -1.6230
  129OSM    C1213822   6.054   2.844   5.847  0.3692  0.5926 -0.1744
  129OSM   H12A13823   5.970   2.776   5.843  0.4183  0.3745  1.6651
  129OSM   H12B13824   6.020   2.931   5.902  0.5956  0.5892 -0.0266
  129OSM    C1113825   6.155   2.784   5.946 -0.1735 -0.0168  0.6106
  129OSM   H11A13826   6.204   2.696   5.899 -2.1100 -2.0001  2.0938
  129OSM   H11B13827   6.103   2.741   6.034  1.2121 -1.0175  0.9715
  129OSM      P13828   6.359   2.855   6.097 -0.2580 -0.2373 -0.2718
  129OSM    O1313829   6.475   2.792   6.033 -0.2724  1.4736 -0.2859
  129OSM    O1413830   6.385   2.983   6.164 -0.1816  0.4242 -0.1257
  129OSM    O1113831   6.278   2.763   6.196  0.2607 -0.2929 -0.3031
  129OSM    O1213832   6.249   2.888   5.993  0.4007  0.6917  0.2461
  129OSM    C1S13833   6.328   2.719   6.321  0.1989 -0.4435 -0.1142
  129OSM    H1S13834   6.365   2.804   6.383  0.5284  0.0192 -0.9401
  129OSM    H1T13835   6.417   2.652   6.309  0.1728 -0.3327 -0.9796
  129OSM     NF13836   6.269   2.604   6.535  0.1630 -0.0202 -0.4946
  129OSM    HNF13837   6.272   2.509   6.565 -0.0817 -0.1681 -0.9224
  129OSM    C2S13838   6.223   2.632   6.403  0.0106  0.2669  0.6464
  129OSM    H2S13839   6.129   2.689   6.417  0.1612  0.6521  0.1202
  129OSM    C3S13840   6.189   2.496   6.331 -0.2969  0.6823 -0.3729
  129OSM    H3S13841   6.272   2.425   6.355 -0.9730  0.4425  1.4334
  129OSM     O313842   6.174   2.511   6.192 -0.1937  0.1838  0.5261
  129OSM    HO313843   6.207   2.600   6.179  0.2415 -0.1991 -1.3263
  129OSM    C4S13844   6.059   2.442   6.374  0.3879  0.3449  0.8184
  129OSM    H4S13845   5.977   2.486   6.315 -0.3347 -0.2750  1.3429
  129OSM    C5S13846   6.026   2.346   6.467 -0.5871  0.0256 -0.3870
  129OSM    H5S13847   6.104   2.298   6.528 -0.7102  3.3023  2.6349
  129OSM    C6S13848   5.893   2.310   6.503  0.7312  0.5069 -0.6031
  129OSM    H6S13849   5.878   2.205   6.536  1.8968  0.8058  0.9833
  129OSM    H6T13850   5.824   2.344   6.422 -1.3373 -0.2430  0.7749
  129OSM    C7S13851   5.842   2.377   6.632 -0.1104 -0.3766 -0.1996
  129OSM    H7S13852   5.847   2.486   6.610 -2.6742  0.1349  1.2836
  129OSM    H7T13853   5.916   2.353   6.712  0.3133  0.1424 -0.4255
  129OSM    C8S13854   5.706   2.335   6.688 -0.0253  0.6463  1.1482
  129OSM    H8S13855   5.693   2.225   6.674 -0.1840  0.9442 -1.4513
  129OSM    H8T13856   5.630   2.389   6.628 -1.6126  0.9284  3.2896
  129OSM    C9S13857   5.658   2.368   6.832 -0.3356 -0.1259 -0.4833
  129OSM    H9S13858   5.551   2.345   6.815 -0.7966  2.7175 -2.0495
  129OSM    H9T13859   5.661   2.479   6.839  0.8799 -0.2336  1.1904
  129OSM   C10S13860   5.733   2.298   6.944  0.4390 -0.6306 -0.4425
  129OSM   H10S13861   5.839   2.295   6.913  1.1727  0.0744  1.7620
  129OSM   H10T13862   5.690   2.195   6.948  1.3396 -0.9854  2.1468
  129OSM   C11S13863   5.713   2.376   7.078 -0.0941 -0.0681 -0.0401
  129OSM   H11S13864   5.606   2.397   7.099  0.0806  1.2551 -0.3766
  129OSM   H11T13865   5.769   2.471   7.060 -0.8741  0.2877 -0.6473
  129OSM   C12S13866   5.756   2.313   7.207 -0.3979  0.4919 -0.6319
  129OSM   H12S13867   5.866   2.325   7.196 -0.1272  1.1691  2.0479
  129OSM   H12T13868   5.727   2.207   7.223 -0.9866  0.7732  0.1854
  129OSM   C13S13869   5.710   2.394   7.329 -0.0102  0.3349  0.2384
  129OSM   H13S13870   5.602   2.389   7.355  0.2093  2.6139  2.0297
  129OSM   H13T13871   5.727   2.502   7.306 -4.8899  1.0218 -1.4040
  129OSM   C14S13872   5.780   2.353   7.457 -0.1567  0.6882  0.4872
  129OSM   H14S13873   5.887   2.378   7.474 -0.4413  1.7681  0.7841
  129OSM   H14T13874   5.774   2.242   7.459  3.5882  0.3004 -0.9316
  129OSM   C15S13875   5.704   2.395   7.584 -0.5687 -0.8379  0.2162
  129OSM   H15S13876   5.598   2.361   7.581 -0.7100 -0.3946  0.1483
  129OSM   H15T13877   5.700   2.505   7.599  1.3694 -0.8955  1.4486
  129OSM   C16S13878   5.771   2.331   7.707 -0.8792  0.1057  0.6812
  129OSM   H16S13879   5.874   2.370   7.720 -0.6612 -0.5702  0.9775
  129OSM   H16T13880   5.779   2.224   7.678  1.0874  0.5270 -0.4950
  129OSM   C17S13881   5.696   2.347   7.838  0.1918 -0.4117 -0.2670
  129OSM   H17S13882   5.757   2.300   7.918 -1.9123  1.0943  2.3665
  129OSM   H17T13883   5.600   2.292   7.826  1.1038 -1.7834 -1.7309
  129OSM   C18S13884   5.662   2.487   7.889 -0.0827  0.8135 -0.4016
  129OSM   H18S13885   5.758   2.532   7.921 -0.3245 -0.1206  1.8215
  129OSM   H18T13886   5.586   2.491   7.971 -0.2846  3.5111 -0.6217
  129OSM   H18U13887   5.615   2.545   7.806 -0.6901  0.4615 -0.3159
  129OSM    C1F13888   6.287   2.702   6.624  0.0912 -0.8044  0.2510
  129OSM     OF13889   6.250   2.817   6.595  0.2456 -0.4126 -0.0345
  129OSM    C2F13890   6.343   2.669   6.751 -0.5038 -0.0233 -0.9411
  129OSM    H2F13891   6.435   2.730   6.765 -1.0227  0.0998  3.0942
  129OSM    H2G13892   6.361   2.560   6.750  1.0417  0.2032 -2.1778
  129OSM    C3F13893   6.230   2.700   6.853  0.4776 -0.3669  0.2864
  129OSM    H3F13894   6.137   2.642   6.837  0.2395 -0.5945  2.2746
  129OSM    H3G13895   6.213   2.810   6.853 -1.1638 -0.5943 -0.3859
  129OSM    C4F13896   6.279   2.661   6.988 -0.5920 -0.8236  0.2508
  129OSM    H4F13897   6.362   2.734   7.000 -0.3203 -1.2831  1.3003
  129OSM    H4G13898   6.333   2.565   6.988  1.9702  0.5164  1.6092
  129OSM    C5F13899   6.195   2.682   7.111 -0.8791 -0.0779  0.0448
  129OSM    H5F13900   6.138   2.588   7.126  0.2208 -0.7567  0.0879
  129OSM    H5G13901   6.132   2.772   7.094 -0.1410  0.7074  1.3022
  129OSM    C6F13902   6.279   2.695   7.242  0.4070 -0.1816 -0.8044
  129OSM    H6F13903   6.370   2.753   7.215 -0.3643  1.8274  0.6159
  129OSM    H6G13904   6.304   2.591   7.271 -0.1532  0.3193  1.7610
  129OSM    C7F13905   6.204   2.768   7.358 -0.6438  0.5312 -0.2550
  129OSM    H7F13906   6.176   2.859   7.301  2.6028  0.0230 -3.0255
  129OSM    H7G13907   6.271   2.787   7.445 -0.6055 -1.6738  0.2638
  129OSM    C8F13908   6.079   2.694   7.406 -0.4330 -0.1120  0.8349
  129OSM    H8F13909   6.014   2.681   7.317 -0.5503  2.2533  0.5205
  129OSM    H8G13910   6.032   2.751   7.489  4.7590 -0.3786  4.4551
  129OSM    C9F13911   6.128   2.567   7.465  0.1898  0.8172  0.0129
  129OSM    H9F13912   6.125   2.485   7.391  2.4049  1.9264 -1.4279
  129OSM   C10F13913   6.162   2.540   7.593 -0.2574  0.6632 -0.1064
  129OSM   H10F13914   6.192   2.440   7.625 -1.1960  1.0183  2.0889
  129OSM   C11F13915   6.167   2.648   7.700 -0.2452 -0.0515 -0.1506
  129OSM   H11F13916   6.070   2.702   7.703 -0.7197 -0.9212  0.2583
  129OSM   H11G13917   6.246   2.725   7.684  1.4445 -1.1013  2.5000
  129OSM   C12F13918   6.194   2.583   7.838 -0.1743 -0.3695  0.2203
  129OSM   H12F13919   6.223   2.659   7.914  2.3469 -0.8718 -0.1446
  129OSM   H12G13920   6.285   2.521   7.826  1.5714  2.4695 -3.1178
  129OSM   C13F13921   6.076   2.500   7.891 -0.6204  0.4239 -0.3528
  129OSM   H13F13922   6.042   2.426   7.817 -0.2720 -1.9814  1.7556
  129OSM   H13G13923   5.998   2.578   7.907 -1.1872 -0.3915  1.0649
  129OSM   C14F13924   6.103   2.426   8.030  0.1325  0.6753 -0.0325
  129OSM   H14F13925   6.132   2.505   8.102  2.3774  0.1189 -0.2311
  129OSM   H14G13926   6.188   2.358   8.005  0.6912  1.4751 -0.3771
  129OSM   C15F13927   5.980   2.359   8.088 -0.3091 -0.4488 -0.3381
  129OSM   H15F13928   5.953   2.271   8.027 -0.1626  0.4548 -1.7379
  129OSM   H15G13929   5.903   2.439   8.081  0.5745  0.8679  2.8567
  129OSM   C16F13930   5.989   2.316   8.242  0.0614  0.4892 -0.2747
  129OSM   H16F13931   5.887   2.293   8.278 -0.2581  1.0837 -0.7977
  129OSM   H16G13932   6.031   2.402   8.298  0.4801 -0.9478  1.7355
  129OSM   C17F13933   6.082   2.192   8.259  0.2338  0.2077 -0.5001
  129OSM   H17F13934   6.172   2.233   8.207 -0.8655  0.0230 -2.6568
  129OSM   H17G13935   6.055   2.102   8.200 -0.3680 -0.2944  0.5322
  129OSM   C18F13936   6.120   2.144   8.403 -0.7799  0.0958  0.5336
  129OSM   H18F13937   6.159   2.225   8.467  1.4123 -0.7466  0.3422
  129OSM   H18G13938   6.185   2.054   8.402 -1.7125 -0.5901  0.4788
  129OSM   H18H13939   6.024   2.115   8.450  0.3320 -2.0773  1.6107
  130OSM      N13940   3.439   5.128   5.726  0.3572  0.4747 -0.1512
  130OSM    C1513941   3.507   5.257   5.687 -0.5864  0.1386 -0.0328
  130OSM   H15A13942   3.506   5.324   5.772 -0.1057  1.4445 -1.0331
  130OSM   H15B13943   3.459   5.307   5.605 -1.3757 -1.9516 -0.9014
  130OSM   H15C13944   3.610   5.235   5.665 -0.0618 -1.1093  3.0536
  130OSM    C1413945   3.406   5.036   5.618  0.5006 -0.0684 -0.2418
  130OSM   H14A13946   3.362   4.943   5.652 -0.6228  0.0363 -1.3168
  130OSM   H14B13947   3.496   5.009   5.564  2.3221  2.9722  1.0501
  130OSM   H14C13948   3.339   5.082   5.546 -0.6029  2.4046  2.1831
  130OSM    C1313949   3.525   5.049   5.826 -0.1189 -0.4399 -0.2718
  130OSM   H13A13950   3.624   5.047   5.782 -0.6040 -0.3121 -1.4307
  130OSM   H13B13951   3.488   4.949   5.843 -0.8295  0.0176  0.9926
  130OSM   H13C13952   3.518   5.101   5.920 -0.0323  3.2254 -2.0900
  130OSM    C1213953   3.309   5.162   5.792 -0.0557 -0.1989 -0.0255
  130OSM   H12A13954   3.275   5.070   5.838  0.5761 -0.3218  0.2079
  130OSM   H12B13955   3.235   5.195   5.721 -1.6730 -1.7453  0.8590
  130OSM    C1113956   3.308   5.257   5.908  0.2050 -0.9386  0.3540
  130OSM   H11A13957   3.205   5.290   5.934  0.5491  1.2095 -0.7528
  130OSM   H11B13958   3.360   5.347   5.868  0.2749 -0.3962  1.6106
  130OSM      P13959   3.441   5.303   6.129 -0.0485 -0.5963  0.2556
  130OSM    O1313960   3.470   5.230   6.256 -0.1980 -0.1493  0.3915
  130OSM    O1413961   3.559   5.368   6.062  0.1617  0.1675 -0.2902
  130OSM    O1113962   3.331   5.412   6.159  0.0401 -0.3175 -0.0639
  130OSM    O1213963   3.378   5.210   6.022 -0.6627 -0.4911  0.0043
  130OSM    C1S13964   3.198   5.375   6.205  0.5205 -0.9400 -0.2294
  130OSM    H1S13965   3.171   5.284   6.147  1.3628  0.4361 -2.9832
  130OSM    H1T13966   3.136   5.462   6.175  1.1390  0.0523  1.2468
  130OSM     NF13967   3.051   5.319   6.388  0.3897  0.1907  0.4905
  130OSM    HNF13968   2.984   5.388   6.413  0.3231  0.0781  0.6266
  130OSM    C2S13969   3.187   5.373   6.360  0.2595 -0.0007 -0.0100
  130OSM    H2S13970   3.263   5.300   6.394 -1.0238 -0.1359  2.7956
  130OSM    C3S13971   3.219   5.508   6.430  0.0181 -0.2573 -0.6273
  130OSM    H3S13972   3.140   5.579   6.399  0.1394  0.7711  1.2529
  130OSM     O313973   3.344   5.576   6.392  0.1855 -0.6440 -0.0521
  130OSM    HO313974   3.367   5.532   6.309 -1.9693  1.6592 -2.0326
  130OSM    C4S13975   3.221   5.487   6.584  0.8275  0.3488 -0.7125
  130OSM    H4S13976   3.316   5.442   6.617  0.1303 -2.0150 -1.6869
  130OSM    C5S13977   3.126   5.524   6.677  0.0397 -0.0013  0.0140
  130OSM    H5S13978   3.031   5.566   6.642  0.1964 -0.0112 -0.4290
  130OSM    C6S13979   3.119   5.507   6.824 -0.5672  0.1856 -0.7265
  130OSM    H6S13980   3.201   5.441   6.859 -0.1455 -0.1731 -2.3056
  130OSM    H6T13981   3.025   5.447   6.825 -0.1274 -0.7465 -4.0568
  130OSM    C7S13982   3.111   5.641   6.894  0.2310  0.2126 -0.5774
  130OSM    H7S13983   3.020   5.696   6.861 -1.2588 -3.2463 -2.8722
  130OSM    H7T13984   3.197   5.707   6.868  0.1250  0.7877  0.4888
  130OSM    C8S13985   3.096   5.647   7.047 -0.3839 -0.5667 -0.2393
  130OSM    H8S13986   3.193   5.617   7.092 -1.2041 -1.9096  0.7189
  130OSM    H8T13987   3.019   5.572   7.077 -2.6629  2.3161  1.6140
  130OSM    C9S13988   3.053   5.775   7.124  0.3192 -0.4216 -0.2205
  130OSM    H9S13989   2.948   5.806   7.108  0.7787  0.8668 -0.8282
  130OSM    H9T13990   3.107   5.858   7.073  0.9701 -1.2185 -0.8654
  130OSM   C10S13991   3.100   5.775   7.272 -0.1764  0.0540 -0.0877
  130OSM   H10S13992   3.202   5.731   7.284 -1.2430 -2.1885  1.7042
  130OSM   H10T13993   3.024   5.704   7.313 -1.3778  0.0814 -2.1728
  130OSM   C11S13994   3.109   5.917   7.335  0.2814  0.2547  0.4028
  130OSM   H11S13995   3.019   5.978   7.313 -0.6110 -0.1512  2.7273
  130OSM   H11T13996   3.200   5.963   7.290  0.2059  1.4122  1.4025
  130OSM   C12S13997   3.139   5.913   7.487  0.3211 -0.1608 -0.0103
  130OSM   H12S13998   3.123   6.016   7.527  1.3901 -0.0566  0.1601
  130OSM   H12T13999   3.241   5.871   7.501  0.2808  0.2499  1.6794
  130OSM   C13S14000   3.037   5.822   7.551  0.5367 -0.0220  0.1526
  130OSM   H13S14001   3.080   5.720   7.542 -0.0476 -0.6302  3.0740
  130OSM   H13T14002   2.937   5.826   7.502  0.5271 -0.6232  0.1232
  130OSM   C14S14003   3.010   5.849   7.697 -0.8757 -0.0025  0.1522
  130OSM   H14S14004   3.012   5.960   7.708  0.3348  0.0493 -0.4457
  130OSM   H14T14005   3.100   5.815   7.752  0.0795 -1.8523 -2.3794
  130OSM   C15S14006   2.880   5.793   7.746 -0.1249  0.1762  0.1585
  130OSM   H15S14007   2.892   5.683   7.736  1.6874  0.4805 -1.8680
  130OSM   H15T14008   2.799   5.819   7.675 -0.7184 -0.1046  0.7299
  130OSM   C16S14009   2.852   5.834   7.895 -0.4441  0.6591 -0.6510
  130OSM   H16S14010   2.915   5.922   7.921  0.1595  0.1437 -0.3324
  130OSM   H16T14011   2.879   5.745   7.956 -0.2740  0.2570 -1.2965
  130OSM   C17S14012   2.701   5.875   7.919  0.2712 -0.0985  0.1456
  130OSM   H17S14013   2.635   5.788   7.897  0.0627  0.4630 -1.6582
  130OSM   H17T14014   2.696   5.948   7.836  0.9955 -0.2972 -0.0823
  130OSM   C18S14015   2.688   5.940   8.053  0.2859  0.3933 -0.2312
  130OSM   H18S14016   2.753   6.031   8.051  0.3789  0.3253 -2.3425
  130OSM   H18T14017   2.705   5.868   8.136  1.3772  1.2487  0.3357
  130OSM   H18U14018   2.583   5.976   8.050  0.1387 -0.0404 -0.2546
  130OSM    C1F14019   3.006   5.195   6.351 -0.2453  0.6512 -0.8270
  130OSM     OF14020   3.075   5.108   6.296  0.8810 -0.2404  0.5859
  130OSM    C2F14021   2.860   5.166   6.368 -0.2973 -0.9271  0.6958
  130OSM    H2F14022   2.826   5.152   6.263  1.0128 -0.6177  0.2021
  130OSM    H2G14023   2.823   5.263   6.407  0.7955  0.1324 -0.7454
  130OSM    C3F14024   2.823   5.045   6.450  0.4179 -0.0411 -0.0233
  130OSM    H3F14025   2.858   4.950   6.406 -0.3104  0.3300 -1.4842
  130OSM    H3G14026   2.714   5.040   6.472 -0.1922  4.0427 -1.2015
  130OSM    C4F14027   2.874   5.065   6.591  0.7418 -0.5062  0.1848
  130OSM    H4F14028   2.825   5.159   6.625 -1.1095 -0.4260 -2.4489
  130OSM    H4G14029   2.981   5.090   6.608  0.8043  0.0521 -0.9742
  130OSM    C5F14030   2.850   4.946   6.676 -0.5626 -0.1711  0.4629
  130OSM    H5F14031   2.758   4.892   6.646 -1.0230  0.3066  0.9986
  130OSM    H5G14032   2.832   4.991   6.776  0.3505  0.6923  0.2529
  130OSM    C6F14033   2.968   4.844   6.681  0.6508 -0.6630  0.0297
  130OSM    H6F14034   3.060   4.885   6.726  0.2513 -1.9352  2.0979
  130OSM    H6G14035   2.982   4.824   6.572 -1.4417  1.9705 -0.8560
  130OSM    C7F14036   2.934   4.711   6.750 -0.0074 -0.4139  0.4179
  130OSM    H7F14037   3.009   4.636   6.717 -0.0495 -0.9948  1.6233
  130OSM    H7G14038   2.831   4.685   6.720  0.4439 -1.3656 -0.3587
  130OSM    C8F14039   2.938   4.720   6.901 -0.6156 -0.1282 -0.1618
  130OSM    H8F14040   2.888   4.642   6.962 -0.8200  0.5886  0.6104
  130OSM    H8G14041   2.893   4.820   6.921  2.4025  1.6597 -1.6145
  130OSM    C9F14042   3.082   4.736   6.945 -0.3400  0.8668  0.4268
  130OSM    H9F14043   3.148   4.747   6.858 -3.3617  0.0960 -2.1644
  130OSM   C10F14044   3.131   4.737   7.066 -0.3014  0.2590 -0.3148
  130OSM   H10F14045   3.235   4.766   7.085  0.0020 -0.7769 -0.3166
  130OSM   C11F14046   3.043   4.721   7.189 -0.6960  0.0475  0.3938
  130OSM   H11F14047   3.098   4.660   7.264  0.3030 -0.2543 -0.5758
  130OSM   H11G14048   2.946   4.669   7.172 -1.2783  0.7933  1.3494
  130OSM   C12F14049   3.008   4.856   7.258  0.1928  0.4053 -0.2643
  130OSM   H12F14050   2.959   4.928   7.189 -1.4758  0.8294  1.2914
  130OSM   H12G14051   3.099   4.915   7.284  0.8538 -0.9150  0.5707
  130OSM   C13F14052   2.917   4.832   7.381  0.1968 -0.2489 -0.0322
  130OSM   H13F14053   2.967   4.766   7.455  1.9197  0.7869 -0.2170
  130OSM   H13G14054   2.823   4.787   7.342 -0.6165  2.7869 -1.9366
  130OSM   C14F14055   2.886   4.963   7.452 -0.3488 -0.6454  0.1108
  130OSM   H14F14056   2.794   5.002   7.403 -0.2334  0.0997  0.4765
  130OSM   H14G14057   2.967   5.039   7.442  1.1687 -2.0183  1.4865
  130OSM   C15F14058   2.864   4.957   7.604 -0.1568  0.5679  0.8012
  130OSM   H15F14059   2.861   5.059   7.648 -0.1841  0.4808  0.9996
  130OSM   H15G14060   2.947   4.898   7.649  1.0552  0.8873 -0.8883
  130OSM   C16F14061   2.728   4.888   7.637 -0.2719  0.6633 -0.2293
  130OSM   H16F14062   2.734   4.791   7.584 -0.9261  1.2200 -1.3609
  130OSM   H16G14063   2.645   4.945   7.590  1.2718  1.0758 -2.6334
  130OSM   C17F14064   2.685   4.866   7.781 -0.1623 -0.1462  0.2087
  130OSM   H17F14065   2.773   4.810   7.820  0.2708 -1.4473 -2.3571
  130OSM   H17G14066   2.595   4.803   7.795 -0.7697  0.9804  1.5784
  130OSM   C18F14067   2.667   4.991   7.866 -0.1098  0.3711 -0.3695
  130OSM   H18F14068   2.641   4.968   7.971  0.0349  0.4245 -0.3201
  130OSM   H18G14069   2.590   5.053   7.816 -1.7268 -0.2813  1.2164
  130OSM   H18H14070   2.768   5.037   7.874  0.7523 -1.6462  1.2053
  131OSM      N14071   2.758   1.057   5.604  0.2069 -0.0826 -0.0577
  131OSM    C1514072   2.902   1.008   5.597 -0.2887  0.6591 -0.2218
  131OSM   H15A14073   2.958   1.033   5.685  0.8514 -0.4636 -0.5903
  131OSM   H15B14074   2.958   1.057   5.518 -1.6823  0.4015 -1.4222
  131OSM   H15C14075   2.905   0.904   5.570 -1.2088  0.4219  0.5471
  131OSM    C1414076   2.751   1.204   5.638 -0.2764  0.2684  0.7241
  131OSM   H14A14077   2.768   1.217   5.744  0.4814 -0.9810  0.7807
  131OSM   H14B14078   2.650   1.236   5.621 -0.8554 -1.4831  0.6782
  131OSM   H14C14079   2.802   1.271   5.570 -4.6774  2.8896 -0.3601
  131OSM    C1314080   2.710   1.043   5.466 -0.0462  0.6090  0.0325
  131OSM   H13A14081   2.699   0.938   5.440  2.2880  0.6897 -1.5871
  131OSM   H13B14082   2.785   1.083   5.399  0.6322  0.0639  0.4546
  131OSM   H13C14083   2.615   1.092   5.456 -0.5545 -0.5531 -1.2887
  131OSM    C1214084   2.676   0.972   5.702  0.3222  0.7091  0.0438
  131OSM   H12A14085   2.693   0.870   5.671  0.8054  0.9006 -0.3319
  131OSM   H12B14086   2.571   0.998   5.692  0.3520  0.2411 -2.0798
  131OSM    C1114087   2.721   0.986   5.848  0.0552  0.3624 -0.8208
  131OSM   H11A14088   2.646   0.930   5.907  0.2281  1.3433  0.3700
  131OSM   H11B14089   2.706   1.091   5.879  0.2101  0.2244 -0.2633
  131OSM      P14090   2.939   0.975   5.997  0.4907  0.0109 -0.7334
  131OSM    O1314091   3.047   0.879   6.011 -0.7973 -0.1775 -0.0119
  131OSM    O1414092   2.965   1.117   5.985 -0.4946 -0.0733  0.5059
  131OSM    O1114093   2.841   0.945   6.117 -0.3920  0.6825 -0.1843
  131OSM    O1214094   2.851   0.926   5.873 -0.3368 -0.5646  0.3564
  131OSM    C1S14095   2.764   1.056   6.173  0.1377  0.5552 -0.0334
  131OSM    H1S14096   2.699   1.104   6.097 -2.3799 -2.9778 -0.3519
  131OSM    H1T14097   2.829   1.139   6.210 -0.0758  0.7029  0.0134
  131OSM     NF14098   2.590   1.093   6.352  0.2956 -0.0347  0.4257
  131OSM    HNF14099   2.611   1.161   6.421 -1.1583  1.2157 -0.3096
  131OSM    C2S14100   2.697   1.007   6.311 -1.2679  0.5702 -0.6219
  131OSM    H2S14101   2.654   0.905   6.300 -2.3045  0.7326  1.4366
  131OSM    C3S14102   2.814   0.987   6.418  0.0171 -0.3287  0.0648
  131OSM    H3S14103   2.857   1.088   6.432 -1.0970  0.1672 -0.0387
  131OSM     O314104   2.926   0.910   6.374 -0.1710  0.1150  0.1764
  131OSM    HO314105   2.895   0.889   6.285 -2.3705 -1.3824  1.2312
  131OSM    C4S14106   2.766   0.924   6.543  0.3651  0.2343 -0.6256
  131OSM    H4S14107   2.712   0.828   6.537  1.0836 -0.3940  1.8032
  131OSM    C5S14108   2.771   0.982   6.666  0.0707 -0.0773  0.2459
  131OSM    H5S14109   2.828   1.076   6.675 -0.2415  0.0978  0.4128
  131OSM    C6S14110   2.716   0.936   6.794  0.4275 -0.1500  0.0549
  131OSM    H6S14111   2.609   0.965   6.796  0.6735  0.8559  2.6947
  131OSM    H6T14112   2.777   0.990   6.869  3.1382  3.6746 -4.2889
  131OSM    C7S14113   2.711   0.781   6.805 -1.0889 -0.4067 -0.8927
  131OSM    H7S14114   2.815   0.744   6.794  0.3435  2.8617  0.3489
  131OSM    H7T14115   2.652   0.742   6.719 -2.7593 -0.1103  0.0698
  131OSM    C8S14116   2.646   0.737   6.935 -0.1013  0.2061 -0.0948
  131OSM    H8S14117   2.618   0.630   6.937 -0.0371  0.1937  0.2321
  131OSM    H8T14118   2.549   0.792   6.944 -0.4768 -0.5928  1.0455
  131OSM    C9S14119   2.728   0.775   7.059  0.7475 -0.5929 -0.1673
  131OSM    H9S14120   2.751   0.883   7.063 -0.6816 -0.2934  0.5713
  131OSM    H9T14121   2.827   0.725   7.049  0.1231 -1.9195 -0.0143
  131OSM   C10S14122   2.667   0.715   7.184  0.1016 -0.2793  0.2945
  131OSM   H10S14123   2.671   0.604   7.185 -1.7317 -0.4523 -2.3033
  131OSM   H10T14124   2.567   0.760   7.204  0.6392  0.1287  2.3110
  131OSM   C11S14125   2.731   0.766   7.310 -0.0604  0.1133  0.3156
  131OSM   H11S14126   2.722   0.877   7.309  0.8757  0.2029  0.9138
  131OSM   H11T14127   2.839   0.740   7.303  0.3473  1.6021  0.6407
  131OSM   C12S14128   2.657   0.712   7.431  0.0676 -0.1960 -0.5218
  131OSM   H12S14129   2.665   0.601   7.427  3.6864 -0.0717  0.0881
  131OSM   H12T14130   2.552   0.748   7.423  0.5693  1.0490 -1.9150
  131OSM   C13S14131   2.719   0.765   7.569  0.7049  0.0655  0.2861
  131OSM   H13S14132   2.706   0.875   7.578 -1.0937 -0.0591 -0.4034
  131OSM   H13T14133   2.828   0.743   7.566  0.4511 -1.3539 -2.7618
  131OSM   C14S14134   2.667   0.694   7.695  0.4053 -0.1464  0.0747
  131OSM   H14S14135   2.708   0.592   7.711  0.4103  0.1045  1.8709
  131OSM   H14T14136   2.557   0.688   7.684  0.0962 -0.2760  2.6731
  131OSM   C15S14137   2.699   0.767   7.825  0.1640 -0.4338  0.5205
  131OSM   H15S14138   2.688   0.876   7.805  1.1662 -0.1495  1.4267
  131OSM   H15T14139   2.800   0.752   7.869  0.1995 -1.9808 -0.0263
  131OSM   C16S14140   2.600   0.745   7.942 -0.5960  0.1594 -0.6989
  131OSM   H16S14141   2.500   0.792   7.925 -0.3800  0.3356 -1.5551
  131OSM   H16T14142   2.628   0.806   8.030  0.5343  0.5518 -1.3148
  131OSM   C17S14143   2.591   0.595   7.984 -1.2716 -0.5409 -0.3878
  131OSM   H17S14144   2.696   0.559   7.984 -0.6916  1.0069  0.8381
  131OSM   H17T14145   2.528   0.538   7.913 -4.0841 -0.0062  1.4803
  131OSM   C18S14146   2.517   0.587   8.114  0.5681  0.4951  0.3237
  131OSM   H18S14147   2.415   0.630   8.118  0.0182 -0.8307  1.5876
  131OSM   H18T14148   2.579   0.641   8.189  2.5746  0.0284 -0.9127
  131OSM   H18U14149   2.506   0.482   8.148 -0.6233  0.8929  1.2564
  131OSM    C1F14150   2.471   1.084   6.294  0.0463 -0.4754  0.7726
  131OSM     OF14151   2.447   1.002   6.207 -0.6647 -0.3123  0.1700
  131OSM    C2F14152   2.367   1.174   6.343  0.3338 -0.2206 -0.0109
  131OSM    H2F14153   2.297   1.197   6.259 -1.0344  1.8968  1.5972
  131OSM    H2G14154   2.408   1.270   6.382 -0.5253 -1.3736  4.2535
  131OSM    C3F14155   2.281   1.110   6.455 -0.3549  0.3488  0.0429
  131OSM    H3F14156   2.220   1.030   6.409  2.4878 -0.2437 -3.1049
  131OSM    H3G14157   2.209   1.185   6.492  0.0584  0.1499  1.2900
  131OSM    C4F14158   2.356   1.060   6.579 -0.0131 -0.3760  0.4816
  131OSM    H4F14159   2.425   1.138   6.618  1.1129 -1.4988  0.8114
  131OSM    H4G14160   2.423   0.979   6.544  2.1527  1.7401 -0.6055
  131OSM    C5F14161   2.269   1.030   6.700 -0.1850  0.6688 -0.1002
  131OSM    H5F14162   2.216   0.934   6.681  0.4080  0.6356 -1.7496
  131OSM    H5G14163   2.194   1.109   6.720 -1.3378 -0.0624 -1.3931
  131OSM    C6F14164   2.357   0.991   6.827  0.2600 -0.0167  0.9399
  131OSM    H6F14165   2.437   1.067   6.843  2.5686 -2.3520  1.1138
  131OSM    H6G14166   2.407   0.893   6.809 -0.2711 -0.0049 -0.7460
  131OSM    C7F14167   2.265   0.978   6.948 -0.0044 -0.2206  0.1604
  131OSM    H7F14168   2.175   0.914   6.930 -1.6159  1.9032  0.2445
  131OSM    H7G14169   2.225   1.080   6.969  2.2625  0.9305 -0.8780
  131OSM    C8F14170   2.322   0.925   7.079  0.4940 -0.6197 -0.4169
  131OSM    H8F14171   2.377   0.829   7.065 -0.9667 -1.7483  1.1625
  131OSM    H8G14172   2.248   0.883   7.150  0.0892 -1.4019 -1.2852
  131OSM    C9F14173   2.419   1.018   7.143  0.0651 -0.0949  0.6089
  131OSM    H9F14174   2.520   1.003   7.102 -0.9811 -0.0516 -2.1729
  131OSM   C10F14175   2.394   1.104   7.251 -0.2111  0.4297 -0.1009
  131OSM   H10F14176   2.472   1.174   7.285  2.3107 -1.6844 -1.1858
  131OSM   C11F14177   2.261   1.132   7.321 -0.8799 -0.0177 -0.1874
  131OSM   H11F14178   2.174   1.134   7.252 -0.3576  3.2076 -0.8988
  131OSM   H11G14179   2.258   1.234   7.364 -2.5827 -1.6508  4.1896
  131OSM   C12F14180   2.250   1.036   7.442  1.0010  0.3672 -0.4806
  131OSM   H12F14181   2.277   0.933   7.413 -2.8250 -0.1196 -3.1820
  131OSM   H12G14182   2.142   1.044   7.469  1.5676 -0.5189  2.3163
  131OSM   C13F14183   2.321   1.085   7.571  0.1425 -0.3881  0.0930
  131OSM   H13F14184   2.293   1.182   7.619  0.0710 -0.5415  0.3634
  131OSM   H13G14185   2.430   1.096   7.553  0.6117  0.5712  2.9727
  131OSM   C14F14186   2.338   0.986   7.687 -0.4248  0.2748  0.9809
  131OSM   H14F14187   2.440   0.997   7.730 -0.1160  0.0319  0.3176
  131OSM   H14G14188   2.349   0.889   7.634  3.9310  1.4584 -0.7603
  131OSM   C15F14189   2.236   0.998   7.805  0.3972  1.0238  0.6293
  131OSM   H15F14190   2.247   1.099   7.851 -1.1829  0.2550  2.8312
  131OSM   H15G14191   2.271   0.933   7.888  1.0104  0.2678 -0.2000
  131OSM   C16F14192   2.090   0.971   7.773 -0.4017 -0.0239 -0.1543
  131OSM   H16F14193   2.055   0.866   7.757 -2.4808  0.2906  1.7896
  131OSM   H16G14194   2.069   1.016   7.673  0.5136 -0.3149 -0.4888
  131OSM   C17F14195   1.997   1.022   7.886 -0.4628  0.1820 -0.5884
  131OSM   H17F14196   1.895   1.000   7.847 -0.6172  0.5205 -0.3820
  131OSM   H17G14197   2.008   1.133   7.884 -0.2439  0.1589 -0.7774
  131OSM   C18F14198   2.028   0.967   8.024 -0.1973  0.7016  0.2539
  131OSM   H18F14199   2.130   1.000   8.052  2.5957 -5.2244 -1.4070
  131OSM   H18G14200   2.038   0.857   8.030  1.0180  0.8025  0.4133
  131OSM   H18H14201   1.955   0.993   8.103 -0.5020 -1.8692  0.8973
  132OSM      N14202   2.475   1.837   6.072  1.1662  0.1562 -0.0063
  132OSM    C1514203   2.339   1.799   6.019  0.2581 -0.4877 -0.0169
  132OSM   H15A14204   2.336   1.693   6.002  0.6376 -0.1914 -2.1082
  132OSM   H15B14205   2.331   1.844   5.921 -0.2219 -0.4326  0.0440
  132OSM   H15C14206   2.257   1.823   6.087  1.0714 -0.5950  1.0251
  132OSM    C1414207   2.561   1.789   5.967 -0.0053  0.6305 -0.3809
  132OSM   H14A14208   2.662   1.825   5.979  0.6529 -0.7952 -1.3442
  132OSM   H14B14209   2.533   1.813   5.866  0.5970 -0.4680 -0.8321
  132OSM   H14C14210   2.573   1.683   5.987  0.7200  0.8009  0.1496
  132OSM    C1314211   2.481   1.985   6.071 -0.9865  0.7987  0.5856
  132OSM   H13A14212   2.577   2.022   6.103 -1.1924  2.1679 -0.2523
  132OSM   H13B14213   2.400   2.024   6.132 -1.2447  2.4494 -0.7251
  132OSM   H13C14214   2.479   2.013   5.966  2.8684  1.5650  0.5897
  132OSM    C1214215   2.498   1.766   6.209 -0.0008 -0.4820  0.1408
  132OSM   H12A14216   2.471   1.663   6.192  1.0249 -0.6653 -0.4980
  132OSM   H12B14217   2.429   1.807   6.281  1.1455  3.0231 -0.5437
  132OSM    C1114218   2.646   1.763   6.268 -0.2008  0.2799 -0.0003
  132OSM   H11A14219   2.634   1.713   6.366  0.2979 -0.9704 -0.5484
  132OSM   H11B14220   2.680   1.867   6.286 -1.6204  1.0646 -1.6386
  132OSM      P14221   2.701   1.518   6.190 -0.3343  0.5146 -0.2700
  132OSM    O1314222   2.559   1.488   6.147 -0.3855  0.3898 -0.1951
  132OSM    O1414223   2.799   1.448   6.109 -0.1588  0.6201 -0.2552
  132OSM    O1114224   2.727   1.491   6.338 -0.2038  0.4283  0.3791
  132OSM    O1214225   2.727   1.676   6.183 -0.7369 -0.5005 -0.1900
  132OSM    C1S14226   2.833   1.543   6.415 -0.4287  0.6425  0.3845
  132OSM    H1S14227   2.841   1.654   6.411 -1.2369  0.9306  3.9285
  132OSM    H1T14228   2.928   1.499   6.378 -0.7845  1.1408 -1.2329
  132OSM     NF14229   2.918   1.559   6.639 -0.0311  0.2395  0.5379
  132OSM    HNF14230   2.988   1.492   6.660 -1.2029 -0.8028  1.3017
  132OSM    C2S14231   2.802   1.508   6.560  0.2264  0.4021 -0.7023
  132OSM    H2S14232   2.721   1.575   6.596 -0.4472 -0.9137  0.3271
  132OSM    C3S14233   2.764   1.356   6.585 -0.3967  0.1718  0.1589
  132OSM    H3S14234   2.847   1.291   6.552 -0.5394  0.5700 -1.0410
  132OSM     O314235   2.645   1.314   6.515 -0.5762 -0.0930  0.2269
  132OSM    HO314236   2.651   1.365   6.435  0.6821  1.4432  1.2449
  132OSM    C4S14237   2.757   1.340   6.740  0.0136  0.7083 -0.0111
  132OSM    H4S14238   2.853   1.299   6.776 -1.1975 -0.5645  1.9250
  132OSM    C5S14239   2.657   1.363   6.833 -1.0312 -0.2627  0.2857
  132OSM    H5S14240   2.563   1.407   6.796  0.1287 -0.2915 -3.0971
  132OSM    C6S14241   2.659   1.328   6.979  0.2853  0.8592 -0.3294
  132OSM    H6S14242   2.581   1.255   7.009  1.0546 -0.0629 -0.5480
  132OSM    H6T14243   2.636   1.413   7.047 -1.2718 -0.6957  1.1726
  132OSM    C7S14244   2.784   1.256   7.036  0.2941 -0.3681 -0.3187
  132OSM    H7S14245   2.873   1.323   7.036 -0.2743  0.4043  0.0114
  132OSM    H7T14246   2.825   1.169   6.981 -0.2120 -1.4167  0.9105
  132OSM    C8S14247   2.759   1.204   7.180  0.0061  0.0403 -0.4286
  132OSM    H8S14248   2.682   1.127   7.198 -1.0241  0.8919 -1.0384
  132OSM    H8T14249   2.721   1.292   7.237 -1.5332 -1.5370  1.0877
  132OSM    C9S14250   2.883   1.166   7.258  0.8347 -0.3344  0.3121
  132OSM    H9S14251   2.950   1.254   7.244  0.1071 -0.0080 -1.3190
  132OSM    H9T14252   2.929   1.079   7.208  0.1771 -0.3709 -0.2427
  132OSM   C10S14253   2.862   1.140   7.407 -0.6473 -0.7648  0.3503
  132OSM   H10S14254   2.774   1.072   7.416 -0.9307 -0.1559  2.5323
  132OSM   H10T14255   2.823   1.230   7.458  0.3440  0.6672 -1.3218
  132OSM   C11S14256   2.988   1.084   7.474 -0.5165 -0.9248  0.5738
  132OSM   H11S14257   3.078   1.130   7.429 -2.5502  3.9989  0.7744
  132OSM   H11T14258   2.985   0.974   7.463 -0.9220 -0.9427  0.8266
  132OSM   C12S14259   2.996   1.106   7.620 -0.2875 -1.0201 -0.0617
  132OSM   H12S14260   2.905   1.056   7.660 -0.3956  0.0265  1.0716
  132OSM   H12T14261   2.991   1.215   7.639 -0.5661 -1.0585  0.0897
  132OSM   C13S14262   3.123   1.064   7.702  0.0153  0.6205 -0.1934
  132OSM   H13S14263   3.219   1.089   7.651 -0.3868  0.1525 -1.1961
  132OSM   H13T14264   3.127   0.953   7.714 -0.6174  0.3474 -2.1989
  132OSM   C14S14265   3.120   1.128   7.839  0.2635 -0.6179 -0.6700
  132OSM   H14S14266   3.022   1.094   7.881  0.6945 -0.1810  0.7503
  132OSM   H14T14267   3.122   1.239   7.833 -0.7747 -0.4430  1.2357
  132OSM   C15S14268   3.235   1.074   7.933  0.4562  0.3185  0.3535
  132OSM   H15S14269   3.323   1.111   7.876 -1.7954  1.4842 -2.6517
  132OSM   H15T14270   3.231   0.963   7.940  0.0285  0.3205  0.2181
  132OSM   C16S14271   3.222   1.123   8.081 -0.2882 -0.3672  0.3589
  132OSM   H16S14272   3.118   1.092   8.106 -0.3786 -0.1804  0.2141
  132OSM   H16T14273   3.232   1.233   8.075  1.3522 -0.3729  2.0641
  132OSM   C17S14274   3.321   1.065   8.180 -0.6084  0.4638 -0.3353
  132OSM   H17S14275   3.324   0.954   8.173  0.5720  0.5046 -0.8261
  132OSM   H17T14276   3.297   1.097   8.284  1.0004  1.7021 -0.2910
  132OSM   C18S14277   3.465   1.113   8.141 -0.0526  0.3249  0.2019
  132OSM   H18S14278   3.497   1.069   8.045  0.6558 -1.8432  1.3543
  132OSM   H18T14279   3.535   1.077   8.220 -1.4787  0.3662  1.5528
  132OSM   H18U14280   3.474   1.223   8.130  1.9439  0.1325 -0.4302
  132OSM    C1F14281   2.948   1.687   6.656 -0.0482 -0.4519  0.4958
  132OSM     OF14282   2.879   1.775   6.615 -0.0632 -0.5217 -0.4270
  132OSM    C2F14283   3.084   1.707   6.719 -0.4298 -0.1441 -0.0163
  132OSM    H2F14284   3.154   1.737   6.639  1.9411  0.9690  2.3079
  132OSM    H2G14285   3.125   1.617   6.769  2.3169 -0.1675 -2.0843
  132OSM    C3F14286   3.085   1.827   6.815  0.2158 -0.7012  0.7102
  132OSM    H3F14287   3.076   1.916   6.748  0.2104 -0.2710  1.2716
  132OSM    H3G14288   3.180   1.828   6.873  0.7731 -1.2066 -0.1795
  132OSM    C4F14289   2.967   1.832   6.917  0.2018  0.5049 -0.7701
  132OSM    H4F14290   2.871   1.789   6.882  0.2664 -1.3068  1.0118
  132OSM    H4G14291   2.934   1.935   6.939 -0.6141 -0.0881  0.9904
  132OSM    C5F14292   2.988   1.769   7.058  0.7944  0.3237 -0.8439
  132OSM    H5F14293   3.075   1.826   7.097  0.8555 -1.2689  1.5961
  132OSM    H5G14294   3.019   1.663   7.054  0.8378  0.3539 -1.3060
  132OSM    C6F14295   2.868   1.781   7.140  0.1466 -0.3830  0.3651
  132OSM    H6F14296   2.786   1.729   7.086  0.0448  0.3353 -0.1923
  132OSM    H6G14297   2.839   1.888   7.135  0.3013 -0.2797  1.5000
  132OSM    C7F14298   2.891   1.729   7.282 -0.2780 -0.5147 -0.3097
  132OSM    H7F14299   2.939   1.629   7.281  0.8339  0.0135 -0.6330
  132OSM    H7G14300   2.796   1.708   7.337  0.8495  0.1507  2.0289
  132OSM    C8F14301   2.993   1.819   7.356 -0.1406 -0.1866  0.7261
  132OSM    H8F14302   2.990   1.925   7.324  1.6946 -0.3075 -0.0136
  132OSM    H8G14303   3.096   1.786   7.327 -0.1204 -0.6341  1.2837
  132OSM    C9F14304   2.956   1.809   7.502 -0.1335  0.0162 -0.3182
  132OSM    H9F14305   2.861   1.859   7.526 -0.9595 -1.4785 -0.3598
  132OSM   C10F14306   3.018   1.740   7.601  0.8931 -0.0777 -0.6097
  132OSM   H10F14307   2.982   1.743   7.705 -1.8429 -1.6345 -1.4048
  132OSM   C11F14308   3.139   1.657   7.573 -0.2121  0.3878 -0.4084
  132OSM   H11F14309   3.227   1.721   7.551  0.1417 -0.3729 -1.2908
  132OSM   H11G14310   3.123   1.597   7.481 -1.0253  0.4546 -0.3201
  132OSM   C12F14311   3.164   1.555   7.683  0.3100  0.5061 -0.8324
  132OSM   H12F14312   3.251   1.498   7.642 -0.2399  0.2938 -1.7354
  132OSM   H12G14313   3.085   1.485   7.717  1.4164 -0.4251 -0.1181
  132OSM   C13F14314   3.222   1.608   7.816 -0.0789 -0.4955 -0.0757
  132OSM   H13F14315   3.138   1.653   7.873  0.2065  1.7736 -1.3418
  132OSM   H13G14316   3.298   1.686   7.795 -0.3178 -0.3361 -0.3457
  132OSM   C14F14317   3.290   1.499   7.897 -0.1890 -0.2039 -0.5068
  132OSM   H14F14318   3.380   1.462   7.843  0.4763  1.7684 -0.8335
  132OSM   H14G14319   3.219   1.414   7.900  1.2898 -1.4793  1.3867
  132OSM   C15F14320   3.327   1.539   8.041  0.4374 -0.0539  0.4735
  132OSM   H15F14321   3.362   1.446   8.092 -0.5909 -0.8468 -0.2381
  132OSM   H15G14322   3.238   1.579   8.094  0.9875 -0.8548  2.0850
  132OSM   C16F14323   3.452   1.643   8.031  0.4900  0.4311 -0.4799
  132OSM   H16F14324   3.415   1.742   7.995 -1.1591  0.4594  1.1403
  132OSM   H16G14325   3.525   1.598   7.961  0.1718 -2.5711  0.9824
  132OSM   C17F14326   3.531   1.650   8.161  0.3462  0.0585 -0.6271
  132OSM   H17F14327   3.638   1.656   8.133  0.7162  2.3251  1.0206
  132OSM   H17G14328   3.514   1.560   8.224  0.7224 -1.3267 -2.4225
  132OSM   C18F14329   3.495   1.771   8.252  0.8012 -0.3265 -0.4815
  132OSM   H18F14330   3.540   1.863   8.211 -1.6936  0.7324 -1.0498
  132OSM   H18G14331   3.542   1.746   8.349 -1.5968 -0.6703  0.6639
  132OSM   H18H14332   3.384   1.781   8.255  0.6370 -1.6987 -1.0760
  133OSM      N14333   3.831   1.879   5.928 -0.2145 -0.4887  0.0597
  133OSM    C1514334   3.919   1.845   5.808 -0.7072 -0.2015  0.0827
  133OSM   H15A14335   3.920   1.914   5.725  0.9504  0.7202  0.8309
  133OSM   H15B14336   3.896   1.750   5.762 -0.1157  0.0233 -0.6885
  133OSM   H15C14337   4.023   1.831   5.833 -0.7154 -2.9858 -1.1215
  133OSM    C1414338   3.885   1.997   5.999 -0.0849 -0.0368  0.2342
  133OSM   H14A14339   3.902   2.072   5.924  0.3852  1.3580  1.6688
  133OSM   H14B14340   3.985   1.976   6.032  1.1993  0.7082 -2.8788
  133OSM   H14C14341   3.822   2.034   6.079 -0.2191  2.1021 -0.7679
  133OSM    C1314342   3.701   1.907   5.882 -0.5243 -0.0659 -0.3768
  133OSM   H13A14343   3.654   1.821   5.837  0.5953 -1.4106  0.9588
  133OSM   H13B14344   3.706   1.988   5.810  0.8197 -0.8815 -1.2345
  133OSM   H13C14345   3.633   1.926   5.964  0.2970  0.5935  0.1607
  133OSM    C1214346   3.831   1.762   6.023 -0.1597 -0.3692  0.9248
  133OSM   H12A14347   3.933   1.730   6.036  0.0171  0.3761  1.4404
  133OSM   H12B14348   3.782   1.678   5.977 -1.1400  1.4778 -1.6406
  133OSM    C1114349   3.770   1.775   6.160  0.4055 -0.7542 -0.0333
  133OSM   H11A14350   3.818   1.853   6.224  0.3926 -0.2044 -0.6883
  133OSM   H11B14351   3.799   1.678   6.205  2.0664 -0.9362 -1.3941
  133OSM      P14352   3.532   1.686   6.209  0.2767  1.0185 -0.2640
  133OSM    O1314353   3.394   1.739   6.187  0.5070  1.0035  0.6376
  133OSM    O1414354   3.552   1.555   6.145 -0.3882 -0.3310  0.1142
  133OSM    O1114355   3.563   1.683   6.363  0.2061  0.3632  0.1482
  133OSM    O1214356   3.625   1.802   6.146 -0.7633  0.6381  0.0783
  133OSM    C1S14357   3.551   1.794   6.453 -0.3468 -0.4994  0.0792
  133OSM    H1S14358   3.516   1.886   6.402  2.2035  0.8759  0.6362
  133OSM    H1T14359   3.654   1.817   6.487 -0.6451  0.8811  0.0856
  133OSM     NF14360   3.432   1.877   6.660 -0.2835  0.1105 -1.1014
  133OSM    HNF14361   3.491   1.889   6.739 -1.1461  1.1524 -0.5880
  133OSM    C2S14362   3.463   1.758   6.580 -0.4328  0.1102  0.3267
  133OSM    H2S14363   3.365   1.721   6.543 -0.8817  1.4350  0.1652
  133OSM    C3S14364   3.532   1.636   6.662  0.0856 -0.0973  0.8635
  133OSM    H3S14365   3.633   1.672   6.693 -0.1892  1.0091  0.5328
  133OSM     O314366   3.558   1.530   6.577  0.4525  0.4427  0.5265
  133OSM    HO314367   3.561   1.573   6.491 -2.9692  0.1258  0.1011
  133OSM    C4S14368   3.454   1.593   6.786  0.5952 -0.2952  0.3395
  133OSM    H4S14369   3.461   1.679   6.855 -1.1779 -0.2431  0.4892
  133OSM    C5S14370   3.377   1.483   6.812 -0.3674 -0.3154  0.2766
  133OSM    H5S14371   3.371   1.404   6.734  1.4512 -1.8886  1.6114
  133OSM    C6S14372   3.296   1.451   6.935 -0.3620 -0.0027  0.0742
  133OSM    H6S14373   3.340   1.353   6.964  0.6173  0.0727 -1.0524
  133OSM    H6T14374   3.188   1.441   6.910 -0.4281  0.1606  0.2940
  133OSM    C7S14375   3.317   1.543   7.052  0.2200 -0.3842  0.1468
  133OSM    H7S14376   3.292   1.648   7.025  1.9050 -0.1380 -0.5452
  133OSM    H7T14377   3.425   1.545   7.076  0.6767 -1.8427 -1.6546
  133OSM    C8S14378   3.238   1.513   7.184 -0.1766 -0.4105 -0.3787
  133OSM    H8S14379   3.134   1.494   7.150  0.5797 -2.5275 -1.7632
  133OSM    H8T14380   3.232   1.605   7.246 -1.1757 -1.5757  1.3544
  133OSM    C9S14381   3.290   1.395   7.263 -0.1740  0.1511 -1.0153
  133OSM    H9S14382   3.321   1.316   7.191 -0.5961 -1.6453  0.6777
  133OSM    H9T14383   3.214   1.362   7.337  1.5235 -0.9127  0.3354
  133OSM   C10S14384   3.414   1.428   7.347  0.3512 -0.9270 -0.0082
  133OSM   H10S14385   3.395   1.505   7.425  1.2640 -0.6438 -0.0454
  133OSM   H10T14386   3.488   1.480   7.282  1.0250 -1.8593 -0.0007
  133OSM   C11S14387   3.484   1.310   7.418 -0.1995  0.5178  0.4434
  133OSM   H11S14388   3.525   1.246   7.337  0.8985  2.5266 -0.6748
  133OSM   H11T14389   3.408   1.247   7.468  2.3762 -1.4752  2.1011
  133OSM   C12S14390   3.588   1.342   7.518  0.8562 -0.0158 -0.4436
  133OSM   H12S14391   3.567   1.424   7.590 -1.2206 -0.0619 -0.9422
  133OSM   H12T14392   3.674   1.391   7.467  0.5377  0.8560 -0.1659
  133OSM   C13S14393   3.624   1.228   7.598 -0.2033  0.2120  0.1558
  133OSM   H13S14394   3.669   1.156   7.526 -1.8631  0.9556 -1.7243
  133OSM   H13T14395   3.536   1.185   7.651  0.9663 -0.2168  1.8413
  133OSM   C14S14396   3.731   1.269   7.705  0.1823 -0.2151  0.2684
  133OSM   H14S14397   3.688   1.340   7.778  3.5556  1.2168  1.0602
  133OSM   H14T14398   3.806   1.327   7.647  0.7053 -1.3211 -0.1898
  133OSM   C15S14399   3.803   1.150   7.773  0.2686 -0.1902  0.6507
  133OSM   H15S14400   3.852   1.082   7.700  1.0817 -0.0039  1.0172
  133OSM   H15T14401   3.724   1.091   7.824 -0.3758  0.6306  0.6338
  133OSM   C16S14402   3.907   1.186   7.884 -0.5400 -0.0694  0.4958
  133OSM   H16S14403   3.985   1.242   7.827  1.2735 -0.2330  2.6871
  133OSM   H16T14404   3.939   1.089   7.927 -0.6629 -0.2455  0.1966
  133OSM   C17S14405   3.854   1.271   8.002  0.4758  0.1116  0.1178
  133OSM   H17S14406   3.781   1.208   8.056  1.1450 -1.7199 -1.0227
  133OSM   H17T14407   3.796   1.360   7.968 -0.7787  0.0762  2.0105
  133OSM   C18S14408   3.961   1.321   8.102  0.4094  0.7320  0.1548
  133OSM   H18S14409   4.023   1.236   8.137 -1.8471 -1.2638 -0.4092
  133OSM   H18T14410   3.927   1.384   8.187  1.4659  0.9239  0.4413
  133OSM   H18U14411   4.037   1.375   8.041  1.2680 -1.1999 -0.5712
  133OSM    C1F14412   3.369   1.980   6.604  0.2119  0.7617  0.2997
  133OSM     OF14413   3.288   1.961   6.512 -0.7609  0.2834 -0.4477
  133OSM    C2F14414   3.409   2.121   6.637 -0.2988 -1.0976 -0.2651
  133OSM    H2F14415   3.327   2.190   6.607  1.8042  2.1761  0.9376
  133OSM    H2G14416   3.494   2.148   6.572 -1.1402 -1.0774 -1.3847
  133OSM    C3F14417   3.457   2.155   6.777  0.1893 -0.0848 -0.3845
  133OSM    H3F14418   3.473   2.264   6.792 -0.4198 -0.1649  1.0119
  133OSM    H3G14419   3.559   2.114   6.796 -0.5477 -1.2720  1.3164
  133OSM    C4F14420   3.372   2.113   6.897  0.8784 -0.5624  0.3798
  133OSM    H4F14421   3.430   2.157   6.981 -1.1015  2.1841  0.4424
  133OSM    H4G14422   3.365   2.002   6.910  0.8540 -0.8131 -1.4632
  133OSM    C5F14423   3.224   2.171   6.913 -0.0940  0.6505  0.7604
  133OSM    H5F14424   3.155   2.097   6.868  1.8796 -0.2009 -1.0040
  133OSM    H5G14425   3.212   2.263   6.851 -0.9683 -0.2408 -0.4262
  133OSM    C6F14426   3.192   2.206   7.059  0.4902  0.1451  0.5876
  133OSM    H6F14427   3.084   2.232   7.058  0.1785 -0.6127 -3.5665
  133OSM    H6G14428   3.240   2.303   7.083 -1.6398  0.9798  1.7220
  133OSM    C7F14429   3.223   2.111   7.170  0.3881  0.2694 -0.6235
  133OSM    H7F14430   3.331   2.101   7.193  0.7335  3.0179 -0.6849
  133OSM    H7G14431   3.178   2.012   7.149 -0.5648 -0.3404  3.3634
  133OSM    C8F14432   3.155   2.140   7.308  0.0059  0.5450 -0.2099
  133OSM    H8F14433   3.180   2.059   7.379 -3.6394 -1.5299 -1.0179
  133OSM    H8G14434   3.044   2.138   7.297  0.1250  0.6713 -1.5805
  133OSM    C9F14435   3.190   2.279   7.361  0.5785 -0.0916 -0.1109
  133OSM    H9F14436   3.114   2.357   7.345  1.0584  0.3282 -0.3578
  133OSM   C10F14437   3.297   2.308   7.434  0.3541  0.1721 -0.0596
  133OSM   H10F14438   3.314   2.416   7.447 -1.0117 -0.0142  5.0562
  133OSM   C11F14439   3.402   2.226   7.488  0.5175  1.1226  0.5745
  133OSM   H11F14440   3.509   2.242   7.459  0.9461 -0.6863  1.0013
  133OSM   H11G14441   3.393   2.117   7.469  2.8370  0.7566  1.1958
  133OSM   C12F14442   3.399   2.253   7.637  0.0953 -0.5083  0.2553
  133OSM   H12F14443   3.376   2.360   7.654  2.8306  0.1627  0.2628
  133OSM   H12G14444   3.493   2.247   7.697 -0.1746 -1.4845  0.5991
  133OSM   C13F14445   3.294   2.170   7.714  0.0167 -0.1359  0.3654
  133OSM   H13F14446   3.317   2.064   7.689 -0.8490 -0.1123 -0.5951
  133OSM   H13G14447   3.197   2.201   7.669 -0.0005  0.8447  1.0515
  133OSM   C14F14448   3.305   2.192   7.870  0.0704 -0.1485  1.8018
  133OSM   H14F14449   3.310   2.301   7.888  1.9339  0.5313 -1.8501
  133OSM   H14G14450   3.400   2.148   7.907  1.8446  1.4706 -0.5310
  133OSM   C15F14451   3.190   2.132   7.956  0.0916  0.3276 -0.0868
  133OSM   H15F14452   3.094   2.168   7.914 -0.4955 -0.8327  0.2226
  133OSM   H15G14453   3.190   2.171   8.060 -0.5542 -0.1380  0.0889
  133OSM   C16F14454   3.184   1.976   7.956 -0.1572  0.0967  0.1955
  133OSM   H16F14455   3.279   1.947   8.005  0.4294  1.5410 -0.0540
  133OSM   H16G14456   3.180   1.927   7.856 -0.5031  0.3682  0.0737
  133OSM   C17F14457   3.074   1.918   8.049  0.4118  0.5398 -0.1599
  133OSM   H17F14458   3.073   1.807   8.039  0.9913  0.5928 -0.9001
  133OSM   H17G14459   2.978   1.953   8.006  1.6627  0.1337 -3.6089
  133OSM   C18F14460   3.080   1.951   8.192  0.2253  0.1788  0.1606
  133OSM   H18F14461   3.161   1.900   8.248 -1.0724 -2.8721 -0.5247
  133OSM   H18G14462   2.990   1.912   8.245 -0.9985 -0.6332 -2.3227
  133OSM   H18H14463   3.080   2.061   8.210  0.5281  0.3884 -1.0575
  134OSM      N14464   4.701   4.875   6.148 -0.7714 -0.4441  0.7128
  134OSM    C1514465   4.677   4.752   6.075  0.0108  0.5274 -0.0372
  134OSM   H15A14466   4.715   4.663   6.122 -1.7082  0.7782  1.9404
  134OSM   H15B14467   4.721   4.756   5.976  0.3110 -2.6567 -0.1341
  134OSM   H15C14468   4.573   4.729   6.057 -0.3046  0.1574  2.0370
  134OSM    C1414469   4.846   4.909   6.130  0.6950  0.4650 -0.4924
  134OSM   H14A14470   4.868   4.996   6.190  1.6707 -1.1770  1.6655
  134OSM   H14B14471   4.876   4.921   6.027 -0.0908 -0.4595 -0.8493
  134OSM   H14C14472   4.914   4.838   6.174 -0.9662 -0.6010  0.4468
  134OSM    C1314473   4.628   4.986   6.086 -0.3118 -0.1943 -0.2983
  134OSM   H13A14474   4.631   4.970   5.979  0.2909 -0.5397 -0.2307
  134OSM   H13B14475   4.658   5.088   6.108 -1.5253  0.3840 -1.1870
  134OSM   H13C14476   4.526   4.984   6.123 -1.1246  1.3620 -2.2727
  134OSM    C1214477   4.679   4.860   6.301  0.0133 -0.3551 -0.8837
  134OSM   H12A14478   4.673   4.955   6.351 -2.3739 -1.1186  0.4384
  134OSM   H12B14479   4.762   4.808   6.347 -1.1318 -0.3961  1.2682
  134OSM    C1114480   4.554   4.786   6.368 -0.5634  0.9229  0.5440
  134OSM   H11A14481   4.568   4.808   6.476 -0.8887  2.1798  0.3472
  134OSM   H11B14482   4.559   4.675   6.359  0.4688  0.8813  1.4213
  134OSM      P14483   4.341   4.941   6.371 -0.3366 -0.0822  0.0783
  134OSM    O1314484   4.393   5.071   6.317 -0.0388 -0.1749 -0.0579
  134OSM    O1414485   4.200   4.915   6.338  0.3302  0.2106  0.4311
  134OSM    O1114486   4.360   4.942   6.534  0.1418  0.2995  0.3289
  134OSM    O1214487   4.426   4.823   6.317 -0.1099 -0.7784  0.3141
  134OSM    C1S14488   4.321   5.050   6.615  0.0817 -0.9379 -0.0845
  134OSM    H1S14489   4.210   5.046   6.626 -0.2620  3.2873 -0.3427
  134OSM    H1T14490   4.325   5.151   6.568  2.8569 -0.9943 -0.1086
  134OSM     NF14491   4.337   5.168   6.834  0.3999 -0.1559 -0.0683
  134OSM    HNF14492   4.403   5.241   6.848  1.2290 -0.8978 -0.0269
  134OSM    C2S14493   4.388   5.058   6.755 -0.0415  0.0976 -1.1784
  134OSM    H2S14494   4.371   4.963   6.810 -3.5111  0.5118 -1.3427
  134OSM    C3S14495   4.545   5.054   6.730  0.1124  0.0385 -0.3330
  134OSM    H3S14496   4.573   5.126   6.650  3.2346 -1.4159 -0.6807
  134OSM     O314497   4.590   4.920   6.692 -0.2147  0.2807  0.0338
  134OSM    HO314498   4.510   4.890   6.649 -0.2400  3.4171 -2.5159
  134OSM    C4S14499   4.624   5.099   6.848 -0.2551 -0.3495 -0.4333
  134OSM    H4S14500   4.670   5.197   6.827 -2.3592  0.5097 -1.2727
  134OSM    C5S14501   4.638   5.048   6.973  0.2453  0.3096  0.0114
  134OSM    H5S14502   4.586   4.959   7.011 -0.6765  0.2593 -1.2810
  134OSM    C6S14503   4.709   5.118   7.085  0.4634 -0.5398  0.7633
  134OSM    H6S14504   4.694   5.228   7.079 -2.2784 -0.9065 -0.4881
  134OSM    H6T14505   4.817   5.112   7.061  0.3156  0.3632 -0.2053
  134OSM    C7S14506   4.666   5.068   7.225  0.1827  0.1819  0.4222
  134OSM    H7S14507   4.747   5.091   7.298  0.1188  0.5120  0.3897
  134OSM    H7T14508   4.655   4.960   7.204 -2.3399  0.9605 -3.0983
  134OSM    C8S14509   4.533   5.127   7.276  0.1635 -0.0853  0.1609
  134OSM    H8S14510   4.457   5.121   7.195 -1.4834 -0.4348  1.6737
  134OSM    H8T14511   4.563   5.233   7.290  2.6573 -0.5822 -0.8163
  134OSM    C9S14512   4.487   5.066   7.409  0.1025 -0.0785 -0.2958
  134OSM    H9S14513   4.572   5.076   7.480 -0.5927  0.9498  0.4076
  134OSM    H9T14514   4.474   4.960   7.378  0.0021  0.1469 -1.0411
  134OSM   C10S14515   4.357   5.125   7.461 -0.0270  0.7805 -0.0553
  134OSM   H10S14516   4.328   5.058   7.544  0.0534  0.3287 -0.3892
  134OSM   H10T14517   4.284   5.113   7.379 -0.5585 -1.3256  0.6790
  134OSM   C11S14518   4.365   5.264   7.517 -0.0558 -0.1319  0.4094
  134OSM   H11S14519   4.263   5.290   7.552  0.0276 -0.4048  0.8577
  134OSM   H11T14520   4.377   5.328   7.426  0.0806 -0.4042  0.2340
  134OSM   C12S14521   4.468   5.287   7.630  0.5449 -0.2419  0.0138
  134OSM   H12S14522   4.452   5.380   7.689  1.1905 -0.1211  0.0048
  134OSM   H12T14523   4.572   5.297   7.592  0.0105  3.4234 -0.8043
  134OSM   C13S14524   4.464   5.177   7.743 -0.6429 -0.1606 -0.4589
  134OSM   H13S14525   4.507   5.079   7.711  2.9514  0.4514  1.9046
  134OSM   H13T14526   4.356   5.170   7.768 -1.0101  0.4921 -1.7635
  134OSM   C14S14527   4.539   5.227   7.868 -0.2061 -0.4469 -0.1828
  134OSM   H14S14528   4.489   5.319   7.905  1.5204 -0.4282  2.3293
  134OSM   H14T14529   4.638   5.259   7.828 -0.7319  0.1679 -1.0287
  134OSM   C15S14530   4.558   5.127   7.983  1.0214  0.3352  0.8483
  134OSM   H15S14531   4.609   5.039   7.939 -0.9502 -0.6357  0.3902
  134OSM   H15T14532   4.459   5.087   8.016  0.9211 -1.0849 -1.0273
  134OSM   C16S14533   4.632   5.193   8.102  0.3705  0.1402 -0.1390
  134OSM   H16S14534   4.601   5.299   8.110 -1.0952 -0.2380 -0.5379
  134OSM   H16T14535   4.739   5.188   8.071 -0.1754 -2.0193 -1.9754
  134OSM   C17S14536   4.618   5.124   8.243  0.0321 -0.7898 -0.5309
  134OSM   H17S14537   4.689   5.171   8.314 -2.1259  2.5966 -0.3897
  134OSM   H17T14538   4.646   5.017   8.233 -0.3978 -1.1317  1.4846
  134OSM   C18S14539   4.484   5.149   8.304  0.1091  0.5063 -0.3001
  134OSM   H18S14540   4.475   5.086   8.395  1.6373  0.2831 -0.2738
  134OSM   H18T14541   4.401   5.121   8.235 -0.3406 -0.2638  0.5383
  134OSM   H18U14542   4.464   5.253   8.337 -1.3422  0.2970 -0.4448
  134OSM    C1F14543   4.215   5.175   6.879  0.7809 -0.2994 -0.6478
  134OSM     OF14544   4.129   5.090   6.861 -0.0066  0.4727  0.2181
  134OSM    C2F14545   4.194   5.303   6.964  0.8190 -0.8277 -0.0880
  134OSM    H2F14546   4.175   5.384   6.890  1.9648 -1.4605 -1.1248
  134OSM    H2G14547   4.287   5.322   7.023  2.2182  0.1356 -2.4395
  134OSM    C3F14548   4.071   5.283   7.051  0.5597  0.2599 -0.4516
  134OSM    H3F14549   3.985   5.255   6.988 -0.3053 -0.6842  1.0734
  134OSM    H3G14550   4.044   5.378   7.103 -0.3715 -0.7728  1.0485
  134OSM    C4F14551   4.090   5.180   7.165  0.5273 -0.2951  0.0997
  134OSM    H4F14552   4.188   5.186   7.218  1.4641  0.4707 -1.6442
  134OSM    H4G14553   4.085   5.083   7.112 -0.6890 -0.3020  0.1825
  134OSM    C5F14554   3.972   5.159   7.262  0.1124 -0.0374 -1.1798
  134OSM    H5F14555   3.990   5.067   7.320  1.0544 -0.4186 -2.0437
  134OSM    H5G14556   3.883   5.142   7.198  0.4757 -0.1720 -1.6552
  134OSM    C6F14557   3.937   5.273   7.359 -0.8986  0.1214 -0.0666
  134OSM    H6F14558   3.877   5.354   7.313 -0.2846 -0.7831 -2.6312
  134OSM    H6G14559   4.034   5.314   7.395 -1.4766  0.2813  1.3526
  134OSM    C7F14560   3.872   5.223   7.492 -0.1068 -0.0836 -0.7734
  134OSM    H7F14561   3.942   5.158   7.550 -0.5501  0.4124  0.3521
  134OSM    H7G14562   3.791   5.153   7.461 -0.6997 -0.4461  1.4330
  134OSM    C8F14563   3.835   5.346   7.572 -0.1216  0.4669  0.0646
  134OSM    H8F14564   3.774   5.413   7.508  0.7847  1.6505  0.4059
  134OSM    H8G14565   3.923   5.402   7.609  0.7703  0.4389 -1.8597
  134OSM    C9F14566   3.760   5.298   7.688 -0.2678  0.0361 -0.6038
  134OSM    H9F14567   3.661   5.260   7.659  0.3965 -1.3201 -1.2079
  134OSM   C10F14568   3.797   5.291   7.819  0.1412  0.5005  0.1042
  134OSM   H10F14569   3.724   5.248   7.889 -0.0144 -0.3496 -0.5565
  134OSM   C11F14570   3.929   5.323   7.878  0.1669  0.8766  0.4531
  134OSM   H11F14571   3.910   5.389   7.966 -3.1609  0.8298 -0.1022
  134OSM   H11G14572   3.988   5.378   7.801  0.9623 -1.8364 -1.0042
  134OSM   C12F14573   4.007   5.194   7.918 -0.0198 -0.2517  0.1061
  134OSM   H12F14574   4.036   5.139   7.826  1.1420 -1.0072  0.8942
  134OSM   H12G14575   3.953   5.114   7.972  1.7776 -2.5546 -1.3240
  134OSM   C13F14576   4.131   5.224   8.001 -0.0980  0.3296  0.3162
  134OSM   H13F14577   4.193   5.300   7.948 -1.1810  0.7922 -0.3309
  134OSM   H13G14578   4.196   5.134   7.994 -1.9018 -0.9768 -0.6568
  134OSM   C14F14579   4.115   5.246   8.149 -0.1981 -0.3020  0.2118
  134OSM   H14F14580   4.033   5.319   8.166 -2.4612 -2.6348  0.0356
  134OSM   H14G14581   4.208   5.276   8.202 -0.5045 -0.3352  0.7689
  134OSM   C15F14582   4.061   5.119   8.221 -0.2459  0.1826 -0.6813
  134OSM   H15F14583   4.135   5.036   8.214 -0.5209 -0.1936  0.5951
  134OSM   H15G14584   3.966   5.089   8.172 -0.3938  1.5017 -1.2499
  134OSM   C16F14585   4.033   5.140   8.372 -0.2283  0.2229 -0.9167
  134OSM   H16F14586   3.954   5.216   8.389 -0.2067  0.2921 -1.1217
  134OSM   H16G14587   4.115   5.189   8.430  1.5491 -1.6672 -1.7011
  134OSM   C17F14588   3.984   5.013   8.445 -0.3801 -0.1326 -0.3504
  134OSM   H17F14589   3.978   5.038   8.553 -1.7091 -0.8209 -0.2492
  134OSM   H17G14590   4.067   4.941   8.429 -0.9100 -0.6799 -0.6999
  134OSM   C18F14591   3.847   4.956   8.402  0.0933 -0.3769  0.0040
  134OSM   H18F14592   3.775   5.040   8.403  1.1691  0.5724  1.3324
  134OSM   H18G14593   3.821   4.874   8.474  2.3826  1.0774  2.7148
  134OSM   H18H14594   3.860   4.927   8.296  0.1923 -1.6009  0.3348
  135OSM      N14595   3.488   4.864   6.209  0.6007 -0.2453 -0.5503
  135OSM    C1514596   3.603   4.918   6.134 -0.0224  0.2150  0.3785
  135OSM   H15A14597   3.694   4.894   6.187  1.8644  2.4053 -1.6577
  135OSM   H15B14598   3.601   5.026   6.137 -1.8920  0.2054  0.8294
  135OSM   H15C14599   3.619   4.877   6.035 -3.8745  0.4545 -0.5161
  135OSM    C1414600   3.360   4.925   6.141 -0.1219 -0.0282 -0.7848
  135OSM   H14A14601   3.363   5.033   6.150 -1.7113 -0.0417  0.3211
  135OSM   H14B14602   3.279   4.910   6.211 -0.6535  0.2549 -1.3284
  135OSM   H14C14603   3.334   4.893   6.042  1.7605 -0.1557 -1.2772
  135OSM    C1314604   3.472   4.713   6.199 -0.2504 -0.2825 -0.4914
  135OSM   H13A14605   3.548   4.662   6.256 -0.6504 -1.7260 -1.1999
  135OSM   H13B14606   3.483   4.679   6.097 -1.6627  0.3764 -0.8856
  135OSM   H13C14607   3.374   4.682   6.232 -1.0970  1.6425 -1.0567
  135OSM    C1214608   3.492   4.895   6.362 -0.0499  0.2944 -0.9151
  135OSM   H12A14609   3.394   4.883   6.405  0.0979  4.0411  0.8360
  135OSM   H12B14610   3.518   4.998   6.381 -1.5805  0.6885 -0.8085
  135OSM    C1114611   3.584   4.792   6.432 -0.2130 -0.3122 -0.0453
  135OSM   H11A14612   3.530   4.695   6.437 -0.9043  0.0759  0.1256
  135OSM   H11B14613   3.602   4.827   6.536  0.6743 -0.4877 -0.1341
  135OSM      P14614   3.805   4.658   6.407 -0.4901 -0.5561 -0.0588
  135OSM    O1314615   3.719   4.546   6.446  0.1874  0.0308  0.4253
  135OSM    O1414616   3.897   4.631   6.291  0.6490  0.0069  0.0020
  135OSM    O1114617   3.900   4.710   6.519  0.0268 -0.3817  0.3521
  135OSM    O1214618   3.709   4.781   6.370 -0.5087 -0.5351  0.0309
  135OSM    C1S14619   3.943   4.845   6.540  0.2195 -0.2238  0.9680
  135OSM    H1S14620   3.913   4.920   6.464  3.3982  1.2560  1.0037
  135OSM    H1T14621   4.053   4.845   6.527  0.0040  3.0634 -2.4052
  135OSM     NF14622   3.939   5.045   6.684 -0.2785 -0.4681  0.0901
  135OSM    HNF14623   4.006   5.079   6.749 -1.4925 -0.0466  1.1702
  135OSM    C2S14624   3.904   4.905   6.680 -0.3022  0.9625  0.0792
  135OSM    H2S14625   3.793   4.895   6.678 -0.3221  1.1568  0.2549
  135OSM    C3S14626   3.967   4.807   6.792  0.8317 -0.7921  1.6038
  135OSM    H3S14627   4.077   4.816   6.788  0.6612  1.6836 -2.0833
  135OSM     O314628   3.949   4.667   6.770  0.2316 -0.8188  0.1926
  135OSM    HO314629   3.907   4.667   6.684 -0.5074 -4.0312  0.4234
  135OSM    C4S14630   3.908   4.845   6.926 -0.6112  0.0298  0.3342
  135OSM    H4S14631   3.953   4.939   6.959  0.0242 -0.4679  0.9071
  135OSM    C5S14632   3.811   4.789   6.997  0.0897  0.2150 -0.4098
  135OSM    H5S14633   3.767   4.695   6.961 -0.1730  1.3700 -3.3848
  135OSM    C6S14634   3.754   4.837   7.130 -0.4034  1.1626 -0.2862
  135OSM    H6S14635   3.645   4.823   7.114 -0.1395  0.1344 -1.2796
  135OSM    H6T14636   3.775   4.946   7.138  1.1379  0.9403 -0.9293
  135OSM    C7S14637   3.795   4.771   7.262 -0.3991  0.3173  0.4422
  135OSM    H7S14638   3.903   4.789   7.283 -0.0564 -1.3635  0.3125
  135OSM    H7T14639   3.785   4.660   7.264 -1.4102  0.3812 -0.4118
  135OSM    C8S14640   3.724   4.830   7.377  0.3324 -0.9044 -1.5872
  135OSM    H8S14641   3.709   4.938   7.354  1.2767 -1.0394 -2.9211
  135OSM    H8T14642   3.782   4.812   7.470 -0.9354  3.1455  0.2443
  135OSM    C9S14643   3.577   4.771   7.401 -0.4953  0.1261  1.0616
  135OSM    H9S14644   3.597   4.663   7.416  1.2339 -0.0289 -1.5484
  135OSM    H9T14645   3.532   4.780   7.300  2.6270  2.2889 -0.2954
  135OSM   C10S14646   3.502   4.830   7.516 -0.2503 -0.1058 -0.3396
  135OSM   H10S14647   3.499   4.941   7.508 -0.0282 -0.1176 -0.5900
  135OSM   H10T14648   3.550   4.793   7.610 -1.9732 -0.1204  0.5792
  135OSM   C11S14649   3.359   4.780   7.529  0.3394  0.1868 -0.2062
  135OSM   H11S14650   3.362   4.672   7.553  0.2593 -0.3387 -2.3478
  135OSM   H11T14651   3.314   4.787   7.427 -0.6022  1.1364  0.2585
  135OSM   C12S14652   3.268   4.860   7.617  0.1300  0.0129 -0.0865
  135OSM   H12S14653   3.168   4.815   7.631 -0.2013 -0.1983 -2.6901
  135OSM   H12T14654   3.250   4.964   7.583  2.6902  0.6349  0.2099
  135OSM   C13S14655   3.319   4.866   7.762  0.6981  0.4589  0.0880
  135OSM   H13S14656   3.423   4.904   7.755  0.4244  1.3628  0.7380
  135OSM   H13T14657   3.316   4.761   7.797  0.6501  0.5163  0.2562
  135OSM   C14S14658   3.233   4.945   7.858  0.1912  0.3287  0.2506
  135OSM   H14S14659   3.130   4.904   7.857  0.3624 -0.1734 -2.4400
  135OSM   H14T14660   3.211   5.052   7.837 -0.5251  0.3966  1.2714
  135OSM   C15S14661   3.274   4.949   8.002  0.4806  0.0133 -0.7752
  135OSM   H15S14662   3.183   4.980   8.057 -0.4396  2.0498 -3.2473
  135OSM   H15T14663   3.353   5.025   8.021  1.5710 -1.7179  2.3913
  135OSM   C16S14664   3.317   4.818   8.060 -0.1514  0.1037  0.4494
  135OSM   H16S14665   3.393   4.761   8.002 -2.1120 -1.5547 -0.6520
  135OSM   H16T14666   3.228   4.752   8.050 -0.6195  0.8873 -0.9241
  135OSM   C17S14667   3.361   4.826   8.203  0.5170  0.3573  0.8618
  135OSM   H17S14668   3.268   4.862   8.252 -0.5809 -1.7611  0.4676
  135OSM   H17T14669   3.438   4.904   8.223  0.3812  0.9330 -0.7090
  135OSM   C18S14670   3.395   4.688   8.257  0.7721  0.7002  0.0571
  135OSM   H18S14671   3.381   4.681   8.367  0.5676 -1.0184 -0.0517
  135OSM   H18T14672   3.500   4.659   8.235 -0.0062 -0.1408 -3.2212
  135OSM   H18U14673   3.337   4.609   8.203  1.2112  0.3832  0.0406
  135OSM    C1F14674   3.868   5.137   6.615 -0.7917 -0.1482 -0.0950
  135OSM     OF14675   3.779   5.114   6.535 -0.6127  0.5102 -0.9689
  135OSM    C2F14676   3.905   5.278   6.644 -0.0719  0.2576  0.6068
  135OSM    H2F14677   3.992   5.298   6.578 -0.6164 -0.7883 -0.4621
  135OSM    H2G14678   3.933   5.292   6.751  2.4142  4.8876 -0.3818
  135OSM    C3F14679   3.796   5.367   6.585 -0.1545 -0.2482 -0.4790
  135OSM    H3F14680   3.740   5.327   6.498  0.1607 -1.1152 -0.2925
  135OSM    H3G14681   3.852   5.459   6.559  2.8359 -1.3086  1.6519
  135OSM    C4F14682   3.685   5.405   6.695  0.3256  1.3408 -0.2120
  135OSM    H4F14683   3.628   5.312   6.715 -1.0988  2.3897  0.8605
  135OSM    H4G14684   3.611   5.474   6.649 -1.6148 -0.4626  0.0654
  135OSM    C5F14685   3.749   5.464   6.817 -0.1525  0.6384 -0.4073
  135OSM    H5F14686   3.853   5.483   6.783 -0.9230 -0.8824 -4.0550
  135OSM    H5G14687   3.743   5.377   6.886  1.4183 -0.2743 -1.3746
  135OSM    C6F14688   3.683   5.593   6.875  0.0163  0.5949 -0.1565
  135OSM    H6F14689   3.574   5.584   6.894  0.0026 -1.7397 -1.0165
  135OSM    H6G14690   3.689   5.674   6.800 -0.2467 -0.4162 -1.2875
  135OSM    C7F14691   3.761   5.647   6.997  0.6038 -0.1819  0.3794
  135OSM    H7F14692   3.712   5.743   7.025  0.4202 -0.2496  0.2916
  135OSM    H7G14693   3.865   5.671   6.966  0.9007  1.6530  2.5426
  135OSM    C8F14694   3.748   5.545   7.110  0.8693  0.0096  0.0110
  135OSM    H8F14695   3.797   5.451   7.078  2.0826  0.5276  0.2892
  135OSM    H8G14696   3.645   5.521   7.143  0.9349  0.3904  0.4959
  135OSM    C9F14697   3.819   5.609   7.225 -0.8509 -0.0150 -0.8430
  135OSM    H9F14698   3.927   5.622   7.208 -0.1771 -1.5396  1.7644
  135OSM   C10F14699   3.761   5.639   7.343  0.1459  0.5001  0.9018
  135OSM   H10F14700   3.813   5.694   7.423 -0.5975  3.0146 -0.2176
  135OSM   C11F14701   3.610   5.632   7.371  0.4470 -0.0314  0.4480
  135OSM   H11F14702   3.593   5.528   7.404 -1.0845  0.6578  1.9855
  135OSM   H11G14703   3.548   5.661   7.283 -0.9886  0.1143  1.4847
  135OSM   C12F14704   3.556   5.728   7.485  0.1283 -0.4407  0.9191
  135OSM   H12F14705   3.446   5.715   7.479  0.1870 -0.1532 -1.5888
  135OSM   H12G14706   3.565   5.837   7.464 -1.6649 -0.1286  1.5705
  135OSM   C13F14707   3.591   5.683   7.624  0.2526  0.1124 -0.2655
  135OSM   H13F14708   3.701   5.670   7.633  0.0057 -0.4098  3.5855
  135OSM   H13G14709   3.557   5.577   7.629  0.4819  0.0454 -0.1005
  135OSM   C14F14710   3.540   5.773   7.737  0.0201 -0.3625  0.3276
  135OSM   H14F14711   3.429   5.765   7.741 -0.4252  3.7717  1.9280
  135OSM   H14G14712   3.569   5.879   7.721  0.3989 -0.6170 -0.7488
  135OSM   C15F14713   3.597   5.734   7.871  0.2571 -0.4276  0.1537
  135OSM   H15F14714   3.707   5.728   7.878  0.5778  0.8971 -2.4542
  135OSM   H15G14715   3.563   5.632   7.899 -0.8890  0.2076  1.1713
  135OSM   C16F14716   3.568   5.838   7.982  0.1180  0.5102  0.6657
  135OSM   H16F14717   3.609   5.937   7.953  1.0106  0.1837  0.7939
  135OSM   H16G14718   3.608   5.805   8.081  1.1469  2.2933  0.9005
  135OSM   C17F14719   3.420   5.867   8.009  0.3149 -0.0166 -0.5340
  135OSM   H17F14720   3.375   5.915   7.920 -3.3365  3.3798  2.7073
  135OSM   H17G14721   3.416   5.940   8.093  0.2725 -0.0178 -0.5351
  135OSM   C18F14722   3.336   5.754   8.060 -0.5574 -0.5309 -0.3662
  135OSM   H18F14723   3.380   5.700   8.146  0.9035 -0.1529 -0.8367
  135OSM   H18G14724   3.327   5.668   7.990 -1.0943  0.7646 -1.9567
  135OSM   H18H14725   3.230   5.782   8.074 -0.1167  2.9522 -2.6043
  136OSM      N14726   0.296   6.071   5.823  0.0790  0.4918  0.1724
  136OSM    C1514727   0.249   5.934   5.814 -0.7082 -0.1098 -0.4663
  136OSM   H15A14728   0.142   5.927   5.811 -0.6950 -0.6265 -4.0526
  136OSM   H15B14729   0.293   5.886   5.900 -1.5223 -0.6540 -0.3414
  136OSM   H15C14730   0.281   5.882   5.724 -1.2838  0.4641 -1.0176
  136OSM    C1414731   0.443   6.080   5.783 -0.6005  0.7557 -0.1938
  136OSM   H14A14732   0.485   6.179   5.775  3.2615 -0.7490 -0.9003
  136OSM   H14B14733   0.457   6.045   5.682 -2.1367 -2.9634  0.7042
  136OSM   H14C14734   0.509   6.023   5.846  0.1882 -0.2776 -1.9013
  136OSM    C1314735   0.219   6.143   5.720 -0.6768 -0.2044  0.6600
  136OSM   H13A14736   0.111   6.142   5.730 -0.9296  0.3246 -1.4252
  136OSM   H13B14737   0.240   6.096   5.625  0.9862  0.4318  0.6864
  136OSM   H13C14738   0.252   6.245   5.715 -2.2946  0.2777 -1.2966
  136OSM    C1214739   0.269   6.129   5.965  0.5447 -0.4248  0.3691
  136OSM   H12A14740   0.162   6.129   5.982  0.7268 -0.1209  1.6053
  136OSM   H12B14741   0.306   6.231   5.955 -0.2680 -0.1515  0.0473
  136OSM    C1114742   0.340   6.054   6.080 -0.3506 -0.3055  0.5652
  136OSM   H11A14743   0.317   5.946   6.067  1.3296 -0.5477 -0.7657
  136OSM   H11B14744   0.311   6.091   6.180 -2.0450  3.7726 -1.1987
  136OSM      P14745   0.573   6.171   6.116  0.1344 -0.1916  0.2607
  136OSM    O1314746   0.708   6.159   6.055  0.2267  0.2028 -0.4660
  136OSM    O1414747   0.497   6.295   6.097 -0.0511  0.2159 -0.0557
  136OSM    O1114748   0.581   6.143   6.269  0.8312 -0.1555 -0.5765
  136OSM    O1214749   0.490   6.051   6.066  1.3287  0.1698  0.0801
  136OSM    C1S14750   0.624   6.015   6.321 -0.2004 -0.0718 -0.1231
  136OSM    H1S14751   0.734   6.008   6.305 -0.7272 -1.3332 -4.7932
  136OSM    H1T14752   0.593   5.930   6.257 -2.2220  2.6565 -3.0468
  136OSM     NF14753   0.660   5.893   6.521  0.3193 -0.0392 -0.5677
  136OSM    HNF14754   0.604   5.810   6.519 -0.1869  0.3006 -1.9906
  136OSM    C2S14755   0.592   6.005   6.471 -0.3150 -0.3487 -0.9302
  136OSM    H2S14756   0.632   6.095   6.523  2.0028 -0.6886 -1.9980
  136OSM    C3S14757   0.437   5.992   6.495 -0.1867  0.0535 -0.1575
  136OSM    H3S14758   0.391   5.901   6.450 -1.6759 -1.2157  3.5626
  136OSM     O314759   0.362   6.094   6.430  0.1280  0.0771 -0.8632
  136OSM    HO314760   0.419   6.143   6.370 -1.4322  1.7122 -1.1100
  136OSM    C4S14761   0.399   5.997   6.642  1.2381 -0.2401 -0.1174
  136OSM    H4S14762   0.382   6.102   6.669  0.9287  0.0884 -1.4799
  136OSM    C5S14763   0.358   5.898   6.730 -1.5817  0.1242  0.1291
  136OSM    H5S14764   0.338   5.797   6.692 -1.9962  0.7041 -1.2480
  136OSM    C6S14765   0.311   5.914   6.870  0.2460 -0.2625 -0.2867
  136OSM    H6S14766   0.388   5.896   6.948  0.4258  1.6673  0.0342
  136OSM    H6T14767   0.223   5.849   6.888  0.7909 -0.8812  0.1817
  136OSM    C7S14768   0.263   6.054   6.902  0.2407 -0.0869 -0.5518
  136OSM    H7S14769   0.216   6.100   6.813  2.0940  0.4102 -1.3367
  136OSM    H7T14770   0.348   6.117   6.935  0.1715 -0.5755  0.6147
  136OSM    C8S14771   0.167   6.065   7.028 -0.2373 -0.7911 -1.4012
  136OSM    H8S14772   0.084   5.992   7.016  0.0854 -0.9639 -2.7840
  136OSM    H8T14773   0.120   6.166   7.022  0.4841 -0.4196 -0.8662
  136OSM    C9S14774   0.241   6.028   7.160 -0.3498 -0.6489  0.0439
  136OSM    H9S14775   0.305   6.111   7.198 -0.5032 -0.7559  0.5432
  136OSM    H9T14776   0.315   5.946   7.145  0.7783  0.6806 -2.3978
  136OSM   C10S14777   0.146   6.004   7.285 -0.4039 -0.0257 -0.5667
  136OSM   H10S14778   0.074   5.919   7.278  1.0492 -1.5501  1.5406
  136OSM   H10T14779   0.087   6.094   7.312  1.3904  0.7838  0.8822
  136OSM   C11S14780   0.223   5.955   7.409 -0.4828 -0.3264  0.0404
  136OSM   H11S14781   0.298   6.031   7.439  0.7414 -1.4044 -0.2132
  136OSM   H11T14782   0.280   5.862   7.389 -0.9540 -0.4647 -0.6908
  136OSM   C12S14783   0.137   5.925   7.528  0.5569 -0.1808 -0.2079
  136OSM   H12S14784   0.055   5.850   7.519 -1.7377  2.2747 -0.9533
  136OSM   H12T14785   0.080   6.019   7.543 -1.4090 -1.0785 -1.6193
  136OSM   C13S14786   0.227   5.894   7.651  0.1641  0.1454  0.2865
  136OSM   H13S14787   0.315   5.962   7.658 -1.9977  3.3764 -1.5744
  136OSM   H13T14788   0.268   5.792   7.638  0.2666 -0.0272  1.7451
  136OSM   C14S14789   0.154   5.904   7.787  0.4669 -1.0045  0.6155
  136OSM   H14S14790   0.060   5.845   7.790 -0.8141  0.8368 -1.1143
  136OSM   H14T14791   0.115   6.008   7.794  0.1423 -1.0416 -0.4964
  136OSM   C15S14792   0.243   5.873   7.905 -0.3347 -0.2906 -0.1322
  136OSM   H15S14793   0.320   5.953   7.917  1.5775 -2.1997  1.0896
  136OSM   H15T14794   0.307   5.784   7.887 -0.0140 -0.6400  2.3718
  136OSM   C16S14795   0.167   5.854   8.036  0.1856  0.6908  0.2800
  136OSM   H16S14796   0.119   5.755   8.027  1.3822  0.3042 -5.0468
  136OSM   H16T14797   0.081   5.922   8.051 -0.1558 -0.0512  2.0093
  136OSM   C17S14798   0.263   5.851   8.162  0.4487  1.0588 -0.1505
  136OSM   H17S14799   0.312   5.950   8.167  2.6725 -0.0039  0.7821
  136OSM   H17T14800   0.349   5.784   8.138  1.0325  1.7242  0.0470
  136OSM   C18S14801   0.202   5.815   8.295 -0.0437 -0.7677 -0.5583
  136OSM   H18S14802   0.120   5.883   8.326 -0.0989 -1.9651  2.1876
  136OSM   H18T14803   0.279   5.815   8.375  0.1893 -2.3982 -0.7482
  136OSM   H18U14804   0.157   5.714   8.298  0.9117 -1.1929  1.2962
  136OSM    C1F14805   0.792   5.894   6.555 -0.3057  0.0195 -0.1739
  136OSM     OF14806   0.851   6.000   6.565  0.2319  0.2875 -1.1654
  136OSM    C2F14807   0.856   5.766   6.592 -0.2847  0.3621  0.4877
  136OSM    H2F14808   0.939   5.746   6.521 -0.7238  0.0610  0.0453
  136OSM    H2G14809   0.778   5.688   6.579  0.4878 -0.0513 -2.5588
  136OSM    C3F14810   0.915   5.765   6.734 -1.1300 -0.6604  0.6761
  136OSM    H3F14811   0.986   5.849   6.749 -0.9769 -0.0393 -2.7553
  136OSM    H3G14812   0.978   5.674   6.746  2.6227  1.6320  0.1844
  136OSM    C4F14813   0.812   5.779   6.849  0.0154 -0.1277  0.3566
  136OSM    H4F14814   0.740   5.695   6.848 -0.6715  0.4440  0.6236
  136OSM    H4G14815   0.751   5.870   6.834 -0.7870 -0.3578  1.9972
  136OSM    C5F14816   0.890   5.790   6.985 -0.2739  0.1387 -0.1340
  136OSM    H5F14817   0.932   5.892   6.972 -2.5880  0.8827 -3.0607
  136OSM    H5G14818   0.972   5.716   6.985 -0.1343  0.2936  0.1351
  136OSM    C6F14819   0.788   5.783   7.106 -0.1528  0.6716 -0.0150
  136OSM    H6F14820   0.774   5.673   7.112 -0.4515  0.7021 -0.1293
  136OSM    H6G14821   0.690   5.832   7.087 -0.2488 -0.2714 -2.1817
  136OSM    C7F14822   0.839   5.824   7.249 -0.1114  0.2311 -0.2280
  136OSM    H7F14823   0.860   5.933   7.253  0.1737  0.1594  0.3702
  136OSM    H7G14824   0.944   5.790   7.264 -0.0676  0.8976  1.1457
  136OSM    C8F14825   0.745   5.779   7.362  0.3947  0.0898  0.3603
  136OSM    H8F14826   0.802   5.751   7.453  0.1585 -1.0742  0.1616
  136OSM    H8G14827   0.689   5.686   7.337 -2.4170  1.1968  1.9954
  136OSM    C9F14828   0.641   5.878   7.395  0.5814  0.7238 -0.9471
  136OSM    H9F14829   0.590   5.918   7.306  0.8705  1.2135 -0.8948
  136OSM   C10F14830   0.587   5.903   7.514 -0.3127 -0.2891  0.2215
  136OSM   H10F14831   0.503   5.973   7.507 -1.0518 -1.1746  0.0842
  136OSM   C11F14832   0.622   5.848   7.645  0.1742  0.0175 -0.4132
  136OSM   H11F14833   0.681   5.756   7.630  1.5174  0.8413 -0.3707
  136OSM   H11G14834   0.525   5.822   7.693  0.4159 -1.2979 -0.6179
  136OSM   C12F14835   0.706   5.941   7.735 -0.0565  0.4281  0.4133
  136OSM   H12F14836   0.669   6.043   7.711 -0.0627  0.2626 -0.2980
  136OSM   H12G14837   0.813   5.948   7.708 -0.0179 -0.3089  0.3737
  136OSM   C13F14838   0.682   5.925   7.888  0.4836 -0.2722  0.1512
  136OSM   H13F14839   0.725   5.835   7.936 -1.2664 -0.7872  0.8423
  136OSM   H13G14840   0.571   5.923   7.901  0.3409 -1.6176 -1.0154
  136OSM   C14F14841   0.746   6.049   7.956  0.6427  0.2999 -0.3198
  136OSM   H14F14842   0.672   6.126   7.922 -0.7473 -0.5969  0.5888
  136OSM   H14G14843   0.838   6.077   7.900  0.5734 -1.2298 -1.2564
  136OSM   C15F14844   0.756   6.046   8.108 -0.6648 -0.3059  0.3684
  136OSM   H15F14845   0.813   6.135   8.142 -0.5364 -0.2748  0.0819
  136OSM   H15G14846   0.816   5.956   8.135 -1.9360 -0.7484  1.8891
  136OSM   C16F14847   0.623   6.041   8.175 -0.3602 -0.0149 -0.4990
  136OSM   H16F14848   0.579   5.940   8.158  0.4607 -0.6951  1.1671
  136OSM   H16G14849   0.567   6.129   8.138 -0.6761  0.5442  1.2114
  136OSM   C17F14850   0.633   6.049   8.330  1.0384 -0.0037  0.6551
  136OSM   H17F14851   0.650   6.156   8.356  0.1979  0.4496 -0.5891
  136OSM   H17G14852   0.716   5.988   8.371  0.1807 -1.0329  0.8967
  136OSM   C18F14853   0.502   6.008   8.400  0.0906 -0.5670 -0.0193
  136OSM   H18F14854   0.424   6.084   8.377  1.3541  1.3458  1.6147
  136OSM   H18G14855   0.516   6.001   8.510 -2.2261 -0.5958  0.3080
  136OSM   H18H14856   0.476   5.905   8.370 -1.5412  0.2690 -1.7180
  137OSM      N14857   3.541   3.951   6.205 -0.5716  0.3041  0.0883
  137OSM    C1514858   3.558   3.979   6.351 -0.0549 -0.1913 -0.0971
  137OSM   H15A14859   3.575   4.082   6.377  1.6417 -0.6608  0.8098
  137OSM   H15B14860   3.642   3.925   6.393  0.3520  0.1156 -0.5102
  137OSM   H15C14861   3.474   3.941   6.408  0.7376 -3.1754 -0.7483
  137OSM    C1414862   3.531   3.803   6.180  0.5963 -0.3771  0.2531
  137OSM   H14A14863   3.495   3.782   6.080  4.7302  1.1400 -1.7877
  137OSM   H14B14864   3.463   3.759   6.250 -1.1451  0.5588 -0.7742
  137OSM   H14C14865   3.630   3.760   6.180  1.7294  1.8451  3.5315
  137OSM    C1314866   3.413   4.020   6.161  0.0973 -0.2312 -0.2393
  137OSM   H13A14867   3.436   4.124   6.147  0.4878 -0.0190  1.7395
  137OSM   H13B14868   3.337   4.016   6.237  0.0909 -1.6271 -0.2845
  137OSM   H13C14869   3.378   3.990   6.063 -2.6969  0.0812  0.5781
  137OSM    C1214870   3.649   4.003   6.105  0.5826  0.1540 -0.0260
  137OSM   H12A14871   3.626   3.962   6.008 -1.4542 -0.1808  0.5504
  137OSM   H12B14872   3.741   3.951   6.124  0.4745 -0.6426 -1.5480
  137OSM    C1114873   3.686   4.148   6.095  0.6688  0.4926  0.0934
  137OSM   H11A14874   3.599   4.218   6.097  1.6435  1.8542 -1.7798
  137OSM   H11B14875   3.738   4.150   5.998  0.9824  0.5899  0.2637
  137OSM      P14876   3.915   4.144   6.208 -0.2883  0.3725  0.0923
  137OSM    O1314877   3.936   4.003   6.172  0.0173 -0.7569  0.3201
  137OSM    O1414878   3.984   4.245   6.128  0.4097  0.0488 -0.2897
  137OSM    O1114879   3.949   4.161   6.361  0.5998 -0.6399  0.1429
  137OSM    O1214880   3.762   4.180   6.209  0.0120 -0.7101 -0.0058
  137OSM    C1S14881   3.897   4.268   6.433 -0.3714  0.3639 -0.1763
  137OSM    H1S14882   3.799   4.247   6.482 -0.4822 -0.7455 -0.8445
  137OSM    H1T14883   3.891   4.363   6.375  0.6551  0.9512  0.6433
  137OSM     NF14884   3.939   4.381   6.665 -0.0223  0.0039 -0.2744
  137OSM    HNF14885   3.973   4.472   6.687  0.9612 -0.0744 -1.3271
  137OSM    C2S14886   4.003   4.309   6.554 -0.5493 -0.5772  0.4311
  137OSM    H2S14887   4.049   4.216   6.593  1.3960 -0.7005 -1.9378
  137OSM    C3S14888   4.116   4.382   6.475  0.5816 -0.7680  0.1456
  137OSM    H3S14889   4.074   4.476   6.433 -0.2476 -1.5123 -0.7549
  137OSM     O314890   4.173   4.312   6.367 -0.2988 -0.4011  0.1299
  137OSM    HO314891   4.099   4.294   6.310  0.0980  1.6347 -1.1280
  137OSM    C4S14892   4.226   4.421   6.569  0.2478  0.4353  1.0395
  137OSM    H4S14893   4.279   4.336   6.616  0.4803 -0.0902 -0.1501
  137OSM    C5S14894   4.282   4.543   6.596  0.3597 -0.7897  0.2726
  137OSM    H5S14895   4.242   4.629   6.540  0.4420  0.0157  1.4147
  137OSM    C6S14896   4.384   4.563   6.701  0.0272  0.4643 -0.4291
  137OSM    H6S14897   4.465   4.632   6.669 -1.0452  1.2458 -1.5729
  137OSM    H6T14898   4.444   4.473   6.724  2.0337  1.2048 -2.4807
  137OSM    C7S14899   4.310   4.595   6.831  0.1621 -0.0274  0.3066
  137OSM    H7S14900   4.236   4.514   6.844  1.7820 -1.5857  0.2249
  137OSM    H7T14901   4.255   4.692   6.823  0.3412 -0.0270 -1.0118
  137OSM    C8S14902   4.413   4.596   6.948  0.0076  0.7808  0.4709
  137OSM    H8S14903   4.510   4.625   6.902  1.0210 -5.0143 -1.8993
  137OSM    H8T14904   4.425   4.490   6.978  1.1302  0.9782  0.7552
  137OSM    C9S14905   4.402   4.689   7.071 -0.1611 -0.2827 -0.4713
  137OSM    H9S14906   4.386   4.794   7.040  3.1280  0.6540  0.5353
  137OSM    H9T14907   4.490   4.686   7.140 -1.0679 -0.6443  0.6993
  137OSM   C10S14908   4.281   4.653   7.156  0.1932 -0.3395 -0.0916
  137OSM   H10S14909   4.307   4.557   7.205  2.5601  0.0115 -0.5779
  137OSM   H10T14910   4.190   4.637   7.094  1.5552 -1.7147 -1.8061
  137OSM   C11S14911   4.237   4.750   7.262  0.0011 -0.0782  0.0340
  137OSM   H11S14912   4.183   4.839   7.224 -1.0803 -1.1170 -0.9261
  137OSM   H11T14913   4.332   4.774   7.315  1.6705 -1.3809 -2.2047
  137OSM   C12S14914   4.150   4.673   7.362  0.5690  0.5517  0.5495
  137OSM   H12S14915   4.214   4.588   7.395  0.3903 -0.6456 -1.9062
  137OSM   H12T14916   4.051   4.640   7.323  0.8298  0.7114 -0.2747
  137OSM   C13S14917   4.107   4.768   7.479 -0.4025 -0.2167 -0.2352
  137OSM   H13S14918   4.067   4.862   7.437 -0.3920  0.6648  1.6387
  137OSM   H13T14919   4.187   4.819   7.538 -0.1490 -1.1419  0.2458
  137OSM   C14S14920   4.012   4.711   7.590 -1.1245 -0.9258 -0.4466
  137OSM   H14S14921   4.067   4.626   7.636 -0.5066 -0.5393 -0.4483
  137OSM   H14T14922   3.930   4.670   7.528 -1.1951  0.1275 -1.0800
  137OSM   C15S14923   3.981   4.818   7.693  0.8222  0.3387 -0.1547
  137OSM   H15S14924   3.951   4.907   7.633 -3.4593 -1.3971 -0.9359
  137OSM   H15T14925   4.061   4.833   7.769  0.4510  0.2749  0.2554
  137OSM   C16S14926   3.855   4.763   7.766 -1.0332 -0.3748 -0.1552
  137OSM   H16S14927   3.856   4.667   7.822  0.0918 -1.0580 -1.2909
  137OSM   H16T14928   3.779   4.741   7.688  0.4230 -2.0226 -1.2040
  137OSM   C17S14929   3.803   4.871   7.865 -0.2224 -0.1817  0.0018
  137OSM   H17S14930   3.764   4.962   7.816  3.2462  1.2409 -0.3782
  137OSM   H17T14931   3.881   4.900   7.939  0.8506  0.1151 -1.2242
  137OSM   C18S14932   3.689   4.806   7.944 -0.3913 -0.4824 -0.0625
  137OSM   H18S14933   3.634   4.884   8.002  1.5348  2.1869 -1.5758
  137OSM   H18T14934   3.725   4.733   8.020 -0.2221  1.0081  1.3702
  137OSM   H18U14935   3.611   4.773   7.873  1.5248 -1.0797 -1.9846
  137OSM    C1F14936   3.851   4.317   6.739  0.3895  0.0348 -0.8509
  137OSM     OF14937   3.826   4.199   6.725  0.3951 -0.1300  0.9528
  137OSM    C2F14938   3.796   4.394   6.859 -0.3693  0.5278  0.3802
  137OSM    H2F14939   3.704   4.447   6.828 -0.2502  0.6783  0.2833
  137OSM    H2G14940   3.879   4.465   6.879  0.7247  0.2324 -2.6547
  137OSM    C3F14941   3.782   4.296   6.979 -0.5494 -0.1865  0.2438
  137OSM    H3F14942   3.870   4.228   6.981 -1.5071 -1.6484 -2.6559
  137OSM    H3G14943   3.700   4.228   6.949  0.2431 -0.1200 -2.3693
  137OSM    C4F14944   3.761   4.370   7.110  0.5031  0.1431 -0.0972
  137OSM    H4F14945   3.677   4.437   7.081  1.1918  1.5476  1.0302
  137OSM    H4G14946   3.845   4.436   7.138 -1.1387  2.0708  0.5432
  137OSM    C5F14947   3.736   4.272   7.224  0.4435 -0.5785  0.8243
  137OSM    H5F14948   3.825   4.207   7.227  1.6804  0.8543 -1.6711
  137OSM    H5G14949   3.647   4.207   7.210  0.2030 -0.5563  2.1078
  137OSM    C6F14950   3.726   4.350   7.352 -0.7108  0.6085  0.3274
  137OSM    H6F14951   3.653   4.433   7.338  0.6958  1.6550 -1.1042
  137OSM    H6G14952   3.826   4.396   7.360 -0.3515 -0.0849 -0.1021
  137OSM    C7F14953   3.704   4.268   7.481 -0.9059  0.5124 -0.4277
  137OSM    H7F14954   3.787   4.194   7.468 -0.6862  1.1093 -2.8479
  137OSM    H7G14955   3.604   4.219   7.476 -0.5290 -0.3546  0.1397
  137OSM    C8F14956   3.729   4.344   7.611  0.4713 -0.1191 -0.4535
  137OSM    H8F14957   3.821   4.403   7.590  0.4573 -0.2163 -0.8079
  137OSM    H8G14958   3.750   4.268   7.689 -0.3785  0.4502  0.3435
  137OSM    C9F14959   3.608   4.424   7.640  0.4258 -0.2238  0.1980
  137OSM    H9F14960   3.583   4.501   7.565 -2.2399  0.5277  1.7476
  137OSM   C10F14961   3.535   4.420   7.755 -0.1405  0.4057 -1.1095
  137OSM   H10F14962   3.445   4.482   7.769 -0.5797 -0.2004 -1.2160
  137OSM   C11F14963   3.562   4.333   7.874  0.4601 -0.5763 -0.9217
  137OSM   H11F14964   3.607   4.236   7.845 -0.3551 -0.4555 -2.7299
  137OSM   H11G14965   3.461   4.310   7.915  0.9341 -0.2439  0.4611
  137OSM   C12F14966   3.626   4.419   7.980 -0.0835 -0.1752  0.6512
  137OSM   H12F14967   3.558   4.499   8.019  0.6562 -0.6306  3.0854
  137OSM   H12G14968   3.715   4.481   7.954 -0.6925  0.4511  0.0234
  137OSM   C13F14969   3.669   4.323   8.097  0.0616 -0.0160 -0.7125
  137OSM   H13F14970   3.748   4.255   8.059  0.6884  1.0221 -1.2979
  137OSM   H13G14971   3.580   4.266   8.130 -1.5078  2.4430 -0.4180
  137OSM   C14F14972   3.725   4.396   8.219 -0.3182  0.1822 -1.0051
  137OSM   H14F14973   3.658   4.484   8.229  0.6381  0.9058 -0.7823
  137OSM   H14G14974   3.827   4.441   8.220 -0.7833  1.2689  0.5320
  137OSM   C15F14975   3.710   4.309   8.348 -0.2028  0.0847 -0.6034
  137OSM   H15F14976   3.602   4.294   8.368  0.1309  0.8161  2.2188
  137OSM   H15G14977   3.736   4.381   8.429  3.3890  0.9411 -2.3153
  137OSM   C16F14978   3.791   4.179   8.348  0.8701 -0.5229 -0.1830
  137OSM   H16F14979   3.899   4.199   8.331  1.0177 -1.7324 -0.7614
  137OSM   H16G14980   3.782   4.106   8.265  1.0203 -1.0068  0.2223
  137OSM   C17F14981   3.779   4.106   8.482 -0.5185  0.0463  0.5778
  137OSM   H17F14982   3.677   4.062   8.491  0.5683 -2.7139  0.3575
  137OSM   H17G14983   3.790   4.187   8.557 -0.2424  0.2798  0.2887
  137OSM   C18F14984   3.881   3.989   8.515  0.2732  0.0813  0.2861
  137OSM   H18F14985   3.854   3.905   8.447 -1.6869  2.3183 -1.8490
  137OSM   H18G14986   3.884   3.945   8.617  1.4371  0.0276  0.2428
  137OSM   H18H14987   3.979   4.033   8.486 -0.8252  2.5901  0.1483
  138OSM      N14988   5.687   6.364   5.772  0.0117 -0.4531 -0.0181
  138OSM    C1514989   5.640   6.479   5.696  0.2967  0.0351  0.4654
  138OSM   H15A14990   5.642   6.564   5.763 -0.7997  0.3429  0.1242
  138OSM   H15B14991   5.537   6.468   5.666  0.3029  2.6034 -0.8442
  138OSM   H15C14992   5.713   6.510   5.623  0.6867  0.9267  1.2074
  138OSM    C1414993   5.612   6.356   5.896  0.5399  0.0378  0.8381
  138OSM   H14A14994   5.637   6.267   5.953 -1.0578  0.0834  1.6798
  138OSM   H14B14995   5.505   6.364   5.882  0.8290 -0.7450 -2.7345
  138OSM   H14C14996   5.624   6.441   5.962 -2.7237  0.6503  0.8567
  138OSM    C1314997   5.665   6.236   5.687  0.0614  0.0547  0.2816
  138OSM   H13A14998   5.560   6.216   5.670  0.0522 -0.0383  0.4457
  138OSM   H13B14999   5.700   6.153   5.747 -0.1458 -0.6420 -0.5479
  138OSM   H13C15000   5.722   6.233   5.595  1.3527  2.2075  0.9308
  138OSM    C1215001   5.836   6.376   5.802  0.4291 -0.0301 -0.2853
  138OSM   H12A15002   5.854   6.470   5.853  3.1440 -0.8102  0.3423
  138OSM   H12B15003   5.886   6.394   5.708 -0.5716  1.6938 -0.5271
  138OSM    C1115004   5.907   6.266   5.888  0.3414 -0.4536  0.0605
  138OSM   H11A15005   6.018   6.276   5.879  0.2194  2.1804  0.7467
  138OSM   H11B15006   5.880   6.173   5.834  0.8201 -2.2924  2.7717
  138OSM      P15007   5.828   6.137   6.099 -0.2412 -0.2547  0.7471
  138OSM    O1315008   5.699   6.081   6.052 -0.8652  0.2084  0.0634
  138OSM    O1415009   5.952   6.055   6.087 -0.6105 -0.1539  0.5441
  138OSM    O1115010   5.805   6.183   6.250 -0.4294 -0.3996  1.2394
  138OSM    O1215011   5.858   6.265   6.020 -0.3193 -0.5115  0.0901
  138OSM    C1S15012   5.895   6.116   6.346  0.2596 -0.7613 -0.2797
  138OSM    H1S15013   6.001   6.147   6.338  0.2385 -0.0724  1.6964
  138OSM    H1T15014   5.900   6.005   6.348  3.1664 -0.7419  2.9253
  138OSM     NF15015   5.975   6.129   6.584 -0.2873 -0.0112 -0.5195
  138OSM    HNF15016   5.987   6.046   6.637  0.7737  1.0089  0.9310
  138OSM    C2S15017   5.856   6.152   6.495 -0.4972 -0.5339 -0.7828
  138OSM    H2S15018   5.831   6.259   6.511 -0.4075 -0.6005 -0.1729
  138OSM    C3S15019   5.737   6.058   6.535  0.0093 -0.0688 -0.2192
  138OSM    H3S15020   5.767   5.952   6.520  1.1783  0.1369  0.5122
  138OSM     O315021   5.630   6.075   6.445 -0.4265  0.5620 -0.0167
  138OSM    HO315022   5.666   6.128   6.373  0.7301 -0.1322  0.0347
  138OSM    C4S15023   5.684   6.085   6.675 -0.2909 -0.0511 -0.4625
  138OSM    H4S15024   5.625   6.174   6.698  1.9239  1.1178  0.9785
  138OSM    C5S15025   5.711   6.000   6.774 -0.0447 -0.5564  0.2020
  138OSM    H5S15026   5.762   5.904   6.756  0.4597 -0.6471  1.9490
  138OSM    C6S15027   5.655   6.018   6.914 -0.3060  0.4401 -0.6201
  138OSM    H6S15028   5.621   5.916   6.945 -1.3975  1.1590  0.6948
  138OSM    H6T15029   5.567   6.085   6.920 -0.9098 -0.3895  0.3129
  138OSM    C7S15030   5.752   6.076   7.019  0.0569 -0.1934  0.2951
  138OSM    H7S15031   5.800   6.170   6.983 -0.4719 -0.1500 -0.3042
  138OSM    H7T15032   5.834   6.001   7.019  0.7008  0.4224 -1.7871
  138OSM    C8S15033   5.685   6.098   7.162 -0.5047 -0.4142  0.8685
  138OSM    H8S15034   5.599   6.167   7.154  1.2193  2.0681  2.6102
  138OSM    H8T15035   5.752   6.153   7.231 -0.0419 -2.5188  2.1944
  138OSM    C9S15036   5.658   5.959   7.233  0.3311 -0.5075 -0.1902
  138OSM    H9S15037   5.744   5.891   7.216  2.4825  2.5289 -2.6882
  138OSM    H9T15038   5.566   5.920   7.186 -0.4897 -1.3431  1.9752
  138OSM   C10S15039   5.645   5.984   7.381 -0.1640 -0.3300  0.3311
  138OSM   H10S15040   5.574   6.065   7.408 -1.5170 -0.4893 -2.3733
  138OSM   H10T15041   5.747   6.009   7.416  0.8106 -1.6323 -1.3776
  138OSM   C11S15042   5.607   5.857   7.456  0.0762 -0.3136  0.4935
  138OSM   H11S15043   5.691   5.786   7.442 -2.4077 -3.0817 -1.7049
  138OSM   H11T15044   5.514   5.805   7.423  0.8212  0.2376 -2.8972
  138OSM   C12S15045   5.580   5.883   7.602 -0.9247  0.8075  0.3571
  138OSM   H12S15046   5.481   5.932   7.614 -0.8365  0.4996  2.9978
  138OSM   H12T15047   5.656   5.954   7.642  0.1448  0.6438 -1.3129
  138OSM   C13S15048   5.575   5.756   7.688 -0.0005 -0.5331  0.2242
  138OSM   H13S15049   5.666   5.695   7.669  0.6441 -0.2307  2.0459
  138OSM   H13T15050   5.485   5.694   7.675  0.9074 -2.4926  2.4534
  138OSM   C14S15051   5.609   5.788   7.836  0.4200 -0.3634 -0.0233
  138OSM   H14S15052   5.511   5.822   7.876  0.0222 -0.0672 -1.2043
  138OSM   H14T15053   5.668   5.881   7.844  0.2364 -0.1568 -0.8757
  138OSM   C15S15054   5.667   5.672   7.927  0.2029 -0.1500  0.9355
  138OSM   H15S15055   5.767   5.648   7.885  0.1753 -0.6044  1.1322
  138OSM   H15T15056   5.607   5.581   7.907 -1.6163  1.1869  0.0531
  138OSM   C16S15057   5.685   5.708   8.066  0.0892 -0.4793  0.1045
  138OSM   H16S15058   5.589   5.705   8.123  0.9729 -1.3374  1.6186
  138OSM   H16T15059   5.718   5.813   8.068  0.6979 -0.6271  2.8668
  138OSM   C17S15060   5.774   5.626   8.152 -0.1306  0.5930 -0.2863
  138OSM   H17S15061   5.873   5.630   8.101 -1.0461  1.4083 -2.1269
  138OSM   H17T15062   5.741   5.520   8.158  4.3825 -0.9183  1.7396
  138OSM   C18S15063   5.788   5.690   8.293  0.1318 -0.4866 -0.7398
  138OSM   H18S15064   5.873   5.639   8.344  1.7373 -0.1694 -2.9694
  138OSM   H18T15065   5.696   5.678   8.354  0.7086  0.0469  0.2657
  138OSM   H18U15066   5.815   5.798   8.282  1.3478 -0.3752  2.2559
  138OSM    C1F15067   6.079   6.221   6.587  0.1690  0.1316  0.0129
  138OSM     OF15068   6.076   6.335   6.539 -0.9955 -0.3881  0.6790
  138OSM    C2F15069   6.199   6.175   6.653 -0.3857 -0.5458 -0.3287
  138OSM    H2F15070   6.270   6.258   6.673 -1.1656 -0.3466  1.8904
  138OSM    H2G15071   6.245   6.093   6.594  0.2564 -0.0157 -0.5765
  138OSM    C3F15072   6.169   6.106   6.787  0.3304  0.4906  0.2180
  138OSM    H3F15073   6.269   6.076   6.827  1.4869  2.3088 -1.1308
  138OSM    H3G15074   6.097   6.023   6.774 -0.4647  1.3311 -0.9422
  138OSM    C4F15075   6.111   6.207   6.890 -0.0452 -0.2370 -0.3399
  138OSM    H4F15076   6.011   6.238   6.853  0.1293 -0.3992 -0.9672
  138OSM    H4G15077   6.171   6.301   6.885 -2.3229  1.3297  0.3123
  138OSM    C5F15078   6.102   6.164   7.033  0.2545 -0.2319 -1.0539
  138OSM    H5F15079   6.202   6.121   7.056  0.5460  0.9538 -0.0273
  138OSM    H5G15080   6.033   6.079   7.053  3.4110 -2.5449  0.9723
  138OSM    C6F15081   6.067   6.281   7.135  0.3051  0.0414 -0.4997
  138OSM    H6F15082   5.968   6.327   7.115 -1.5800 -2.8601  1.3362
  138OSM    H6G15083   6.151   6.354   7.129  0.5551  0.1731  2.6494
  138OSM    C7F15084   6.064   6.219   7.285 -0.2467 -0.1572 -0.5093
  138OSM    H7F15085   6.147   6.145   7.289 -1.1109 -1.1412  0.0636
  138OSM    H7G15086   5.971   6.160   7.303  1.0846 -1.6798  1.9735
  138OSM    C8F15087   6.076   6.329   7.386 -0.4050  0.6766  1.1446
  138OSM    H8F15088   5.979   6.382   7.379 -0.4369  0.4503 -1.0959
  138OSM    H8G15089   6.162   6.391   7.352  1.2909 -1.5324  1.1629
  138OSM    C9F15090   6.114   6.272   7.517 -0.2912  0.3912  0.1008
  138OSM    H9F15091   6.158   6.171   7.520 -1.1246  0.0528  1.5514
  138OSM   C10F15092   6.094   6.325   7.641  0.7631 -0.3934  0.1216
  138OSM   H10F15093   6.119   6.288   7.741  1.6584  4.5214  1.9982
  138OSM   C11F15094   6.027   6.458   7.647 -0.1841 -0.0953 -0.0963
  138OSM   H11F15095   6.036   6.525   7.558 -0.9369 -0.6967 -0.6326
  138OSM   H11G15096   6.062   6.521   7.732 -1.5315  0.9108 -0.2654
  138OSM   C12F15097   5.869   6.443   7.657 -0.5009 -0.5400 -0.5966
  138OSM   H12F15098   5.838   6.382   7.569  0.5231 -2.4185  0.2803
  138OSM   H12G15099   5.822   6.544   7.657  0.9672  0.1750 -0.2693
  138OSM   C13F15100   5.808   6.371   7.778 -0.3528  0.0500 -0.2038
  138OSM   H13F15101   5.858   6.272   7.785  2.6413  1.4279 -0.5170
  138OSM   H13G15102   5.697   6.363   7.773 -0.3303  0.3162 -1.3573
  138OSM   C14F15103   5.823   6.462   7.902 -0.1407 -1.0672  0.2873
  138OSM   H14F15104   5.730   6.523   7.906 -1.4797 -2.9023 -1.0513
  138OSM   H14G15105   5.902   6.540   7.896  0.2762 -1.3611  1.6612
  138OSM   C15F15106   5.831   6.378   8.032 -0.1915 -0.7954  0.6369
  138OSM   H15F15107   5.924   6.317   8.035 -0.5246 -1.4799 -1.3702
  138OSM   H15G15108   5.752   6.301   8.024  0.8574 -1.7461 -1.6541
  138OSM   C16F15109   5.828   6.466   8.159  0.7488 -0.0068 -0.2629
  138OSM   H16F15110   5.733   6.523   8.146 -1.7256 -3.5869  0.4177
  138OSM   H16G15111   5.912   6.537   8.174 -1.0089  2.0633  0.3764
  138OSM   C17F15112   5.813   6.382   8.284 -0.1154 -0.1029 -0.3497
  138OSM   H17F15113   5.832   6.440   8.377 -1.3032 -1.8520  1.0772
  138OSM   H17G15114   5.892   6.304   8.280  0.7830  0.8106 -0.9408
  138OSM   C18F15115   5.681   6.307   8.306  0.1956 -0.2031 -0.6412
  138OSM   H18F15116   5.701   6.243   8.394 -0.0339  0.5518 -0.0284
  138OSM   H18G15117   5.658   6.229   8.230  2.1207 -1.7251  0.2391
  138OSM   H18H15118   5.594   6.372   8.329  0.7037  0.9878 -1.9318
  139OSM      N15119   2.665   5.626   5.767 -0.3817 -0.1225  0.0809
  139OSM    C1515120   2.576   5.737   5.717  0.4191 -0.2154  0.2738
  139OSM   H15A15121   2.478   5.693   5.703  0.5354 -0.9720  1.6891
  139OSM   H15B15122   2.615   5.778   5.625  1.9005 -0.7558  0.6273
  139OSM   H15C15123   2.571   5.821   5.784  1.3402 -2.1381  2.9303
  139OSM    C1415124   2.611   5.568   5.903 -0.0673 -0.6429  0.0412
  139OSM   H14A15125   2.503   5.574   5.908  0.0227  0.3630  1.3736
  139OSM   H14B15126   2.667   5.623   5.977 -0.6250  1.8477 -1.2776
  139OSM   H14C15127   2.637   5.464   5.904 -0.6571 -0.8070 -0.5968
  139OSM    C1315128   2.669   5.515   5.675  0.0935 -0.2745 -0.2680
  139OSM   H13A15129   2.710   5.555   5.583 -2.2050  1.2527 -0.7073
  139OSM   H13B15130   2.571   5.475   5.653 -0.9923  0.7611  2.3273
  139OSM   H13C15131   2.730   5.435   5.715 -2.3023 -0.7068  2.8532
  139OSM    C1215132   2.803   5.682   5.784  0.3910 -0.2693 -0.9385
  139OSM   H12A15133   2.829   5.729   5.691  1.0868 -2.0171 -1.6678
  139OSM   H12B15134   2.872   5.599   5.798 -0.2101 -0.4866  1.2235
  139OSM    C1115135   2.833   5.795   5.891 -0.6977  0.5116 -0.5189
  139OSM   H11A15136   2.772   5.888   5.883  0.7281  1.6592  1.0596
  139OSM   H11B15137   2.937   5.834   5.889  0.3452 -2.0925 -0.2123
  139OSM      P15138   2.913   5.676   6.107 -0.0166  0.1349  0.5204
  139OSM    O1315139   2.849   5.563   6.179 -0.1581 -0.5870 -0.0394
  139OSM    O1415140   3.035   5.639   6.021  0.4624 -0.5904 -0.0283
  139OSM    O1115141   2.951   5.787   6.214 -0.7732  0.5127  0.4204
  139OSM    O1215142   2.802   5.743   6.028  0.2335 -0.1124  0.3202
  139OSM    C1S15143   2.849   5.843   6.299 -0.3143  0.3685  0.2646
  139OSM    H1S15144   2.769   5.767   6.311  0.0529 -0.0399  0.1855
  139OSM    H1T15145   2.810   5.943   6.272 -1.4207  0.9215  3.4781
  139OSM     NF15146   2.780   5.928   6.533  0.0807 -0.0349 -0.2616
  139OSM    HNF15147   2.790   6.027   6.533 -2.7791  0.3805  1.7072
  139OSM    C2S15148   2.890   5.863   6.452 -0.0371 -0.0750 -0.5549
  139OSM    H2S15149   2.903   5.764   6.501 -1.8006  0.7542  1.7692
  139OSM    C3S15150   3.026   5.935   6.465 -0.0449 -0.5772 -0.2249
  139OSM    H3S15151   3.023   6.035   6.417 -0.1778 -0.9569 -1.0137
  139OSM     O315152   3.140   5.858   6.411  0.4154  0.1708 -0.6666
  139OSM    HO315153   3.093   5.782   6.376  0.2095 -0.2523  0.4915
  139OSM    C4S15154   3.054   5.948   6.615  0.0738  0.1783  0.6728
  139OSM    H4S15155   3.081   5.856   6.670  0.8265  0.1103  0.2110
  139OSM    C5S15156   3.057   6.071   6.680  0.1388 -0.2100 -0.0800
  139OSM    H5S15157   3.064   6.161   6.617  2.5398  0.1588  0.6031
  139OSM    C6S15158   3.086   6.087   6.826  0.2482  0.1461  0.7401
  139OSM    H6S15159   3.155   6.174   6.830 -2.6643  2.6380  0.7679
  139OSM    H6T15160   3.135   5.997   6.868 -0.1536 -0.7255 -0.6041
  139OSM    C7S15161   2.954   6.119   6.893  0.7031 -0.3238 -0.3637
  139OSM    H7S15162   2.890   6.028   6.900  1.6023 -0.8797  0.8806
  139OSM    H7T15163   2.897   6.196   6.836 -0.0110  1.1137  2.1610
  139OSM    C8S15164   2.962   6.161   7.039  0.2754 -0.3686 -0.1657
  139OSM    H8S15165   3.001   6.078   7.102  0.5314  0.7278  1.1520
  139OSM    H8T15166   2.865   6.184   7.086  1.9744  1.8608  2.5626
  139OSM    C9S15167   3.037   6.288   7.053 -0.0395 -0.2844  0.9916
  139OSM    H9S15168   2.979   6.377   7.019  1.8620  1.4301  2.0317
  139OSM    H9T15169   3.123   6.294   6.983 -1.4436  0.2076 -0.7690
  139OSM   C10S15170   3.087   6.321   7.197  0.1233 -0.2820  0.2768
  139OSM   H10S15171   3.174   6.390   7.197  1.9560 -2.4967  0.1341
  139OSM   H10T15172   3.125   6.220   7.226 -1.4999 -1.2415 -0.7822
  139OSM   C11S15173   2.982   6.368   7.298 -0.8085  0.0202 -0.1899
  139OSM   H11S15174   2.908   6.290   7.325  0.3656 -0.1030  3.2004
  139OSM   H11T15175   2.917   6.446   7.252  0.3748  0.5711 -0.9665
  139OSM   C12S15176   3.046   6.407   7.432  0.3883 -0.2015  0.2243
  139OSM   H12S15177   3.100   6.504   7.423  0.0295 -0.0515 -0.3357
  139OSM   H12T15178   3.126   6.335   7.458  0.5006  0.5011  1.9201
  139OSM   C13S15179   2.941   6.417   7.548 -1.0751  0.0999  0.4041
  139OSM   H13S15180   2.867   6.336   7.526 -1.7567  1.3040 -2.2200
  139OSM   H13T15181   2.889   6.515   7.545 -0.9334  0.1727  0.3339
  139OSM   C14S15182   3.004   6.416   7.686 -0.4189  0.3876 -0.1525
  139OSM   H14S15183   2.925   6.456   7.753 -2.4402  0.4951 -2.4931
  139OSM   H14T15184   3.091   6.485   7.688  0.7204 -0.9922 -0.5987
  139OSM   C15S15185   3.039   6.279   7.727  0.1148 -0.9047 -0.0583
  139OSM   H15S15186   3.108   6.224   7.660 -0.0492 -1.2209  0.0306
  139OSM   H15T15187   2.959   6.203   7.737  0.5330 -1.1956  1.2118
  139OSM   C16S15188   3.097   6.280   7.869 -0.1400 -0.0461 -0.6314
  139OSM   H16S15189   3.186   6.347   7.872 -0.4037  0.2764  0.3160
  139OSM   H16T15190   3.116   6.172   7.887  0.1300  0.1986  0.6447
  139OSM   C17S15191   3.002   6.313   7.985 -0.3938 -0.8462  0.4834
  139OSM   H17S15192   2.900   6.278   7.960 -1.2100  0.5678  1.6262
  139OSM   H17T15193   2.995   6.424   7.998  0.6645 -0.5052 -1.5766
  139OSM   C18S15194   3.062   6.255   8.114 -0.0925 -0.7060 -0.2195
  139OSM   H18S15195   2.991   6.296   8.190 -1.3536 -0.4732 -1.4778
  139OSM   H18T15196   3.166   6.294   8.116  0.1808 -0.8102 -4.0644
  139OSM   H18U15197   3.057   6.144   8.112  1.7155 -0.8090 -0.2922
  139OSM    C1F15198   2.665   5.859   6.568 -0.4006  0.4452  0.4357
  139OSM     OF15199   2.665   5.738   6.560  0.0871  0.1055  0.0293
  139OSM    C2F15200   2.541   5.938   6.591 -0.1557  0.1435  0.7153
  139OSM    H2F15201   2.465   5.856   6.590 -0.5883  0.5357 -0.9035
  139OSM    H2G15202   2.536   6.001   6.501  2.8005 -1.4086 -0.6850
  139OSM    C3F15203   2.522   6.015   6.724  0.1108  0.3687 -0.7339
  139OSM    H3F15204   2.417   6.050   6.726  0.3466  1.0691 -0.6108
  139OSM    H3G15205   2.596   6.097   6.729 -1.8867  2.2299  0.5568
  139OSM    C4F15206   2.548   5.938   6.854  0.3630 -0.2489  0.1950
  139OSM    H4F15207   2.650   5.894   6.855  0.8667  0.8493  1.3289
  139OSM    H4G15208   2.475   5.856   6.869  0.3115 -0.3011 -0.3300
  139OSM    C5F15209   2.548   6.034   6.974  0.0526 -0.2392  0.1286
  139OSM    H5F15210   2.451   6.087   6.986  1.5908  2.5471  1.1204
  139OSM    H5G15211   2.629   6.110   6.975 -0.2313  0.1319 -1.6973
  139OSM    C6F15212   2.584   5.960   7.103  0.2736 -0.0775 -0.5786
  139OSM    H6F15213   2.686   5.916   7.092 -0.1767 -1.7217  1.2115
  139OSM    H6G15214   2.506   5.884   7.126 -1.7171  1.5964 -1.5813
  139OSM    C7F15215   2.606   6.057   7.221  0.0298  0.2636  0.1444
  139OSM    H7F15216   2.512   6.108   7.249  0.2367 -0.5671  2.5419
  139OSM    H7G15217   2.675   6.138   7.189 -0.8746  0.7867 -0.5272
  139OSM    C8F15218   2.667   5.974   7.339  0.9064  0.8654 -0.6155
  139OSM    H8F15219   2.758   5.924   7.301 -0.4992 -0.5583 -2.3090
  139OSM    H8G15220   2.602   5.884   7.352  0.0548  1.6902  1.2703
  139OSM    C9F15221   2.702   6.035   7.472  0.3179 -0.1671  0.6186
  139OSM    H9F15222   2.797   6.089   7.485 -0.6112  1.5104  0.7139
  139OSM   C10F15223   2.609   6.042   7.564 -0.5771 -0.2430  0.6815
  139OSM   H10F15224   2.638   6.083   7.662 -0.6771 -0.4650  0.8038
  139OSM   C11F15225   2.469   6.003   7.560  0.7580  0.5000 -0.0804
  139OSM   H11F15226   2.455   5.919   7.631  0.3465  0.5662 -0.0816
  139OSM   H11G15227   2.435   5.977   7.458  0.6679 -0.6631  0.2342
  139OSM   C12F15228   2.396   6.129   7.605  0.0938 -0.3680 -0.6285
  139OSM   H12F15229   2.291   6.116   7.571 -0.4712  2.1315 -0.0966
  139OSM   H12G15230   2.428   6.223   7.555 -0.6266  1.0308  1.4123
  139OSM   C13F15231   2.397   6.162   7.754  0.1885  0.1803 -0.4164
  139OSM   H13F15232   2.352   6.264   7.756 -2.6104 -0.9455 -1.0941
  139OSM   H13G15233   2.499   6.156   7.797  0.0562 -3.6373 -0.3099
  139OSM   C14F15234   2.302   6.076   7.839  0.7414 -0.3776  0.0444
  139OSM   H14F15235   2.328   5.971   7.812  0.3770 -0.3050 -0.6304
  139OSM   H14G15236   2.198   6.099   7.806  1.1371  0.7461 -0.4730
  139OSM   C15F15237   2.318   6.092   7.990  0.6490 -0.1934  0.3078
  139OSM   H15F15238   2.295   6.200   8.007  1.8759  0.4447 -1.6946
  139OSM   H15G15239   2.428   6.096   8.004  0.6879 -0.3157  0.0494
  139OSM   C16F15240   2.225   6.003   8.078 -0.5973  0.4590 -0.1362
  139OSM   H16F15241   2.271   5.998   8.178  0.4785 -1.2552 -0.6729
  139OSM   H16G15242   2.222   5.899   8.040 -1.1394  0.2887  0.3549
  139OSM   C17F15243   2.087   6.058   8.087 -0.2128  0.0525 -0.1428
  139OSM   H17F15244   2.029   5.996   8.158 -1.7162  0.8559 -0.6426
  139OSM   H17G15245   2.038   6.037   7.990  0.8918  2.7837 -1.4062
  139OSM   C18F15246   2.067   6.205   8.133  0.2714 -0.1322  0.2811
  139OSM   H18F15247   2.158   6.246   8.182  1.3437  1.7969 -3.0202
  139OSM   H18G15248   1.972   6.221   8.188 -0.5536 -1.5263 -0.6768
  139OSM   H18H15249   2.063   6.259   8.036 -2.5142  0.3476  0.5754
  140OSM      N15250   4.531   1.886   6.162 -0.3777  0.2256  0.3581
  140OSM    C1515251   4.489   1.967   6.042  0.2657 -0.2617 -0.3661
  140OSM   H15A15252   4.383   1.980   6.031  0.1648  0.4358  1.1734
  140OSM   H15B15253   4.528   1.915   5.956 -1.4882  0.6683 -1.7580
  140OSM   H15C15254   4.539   2.063   6.043  1.1147 -0.6152 -2.8774
  140OSM    C1415255   4.463   1.752   6.140  0.3916  0.2604  0.5027
  140OSM   H14A15256   4.488   1.709   6.044 -1.2702  0.6266 -0.1340
  140OSM   H14B15257   4.355   1.761   6.137  0.2123 -1.6745 -2.3308
  140OSM   H14C15258   4.472   1.676   6.216 -0.3029 -1.6538 -1.2251
  140OSM    C1315259   4.674   1.862   6.152  0.0718 -0.6317 -0.2451
  140OSM   H13A15260   4.730   1.953   6.169 -0.8183 -0.2814  0.9278
  140OSM   H13B15261   4.706   1.814   6.061  0.6351 -0.4305 -0.1597
  140OSM   H13C15262   4.717   1.798   6.228  2.0956  1.8985  0.9376
  140OSM    C1215263   4.490   1.955   6.288 -0.6598  0.3704  0.0975
  140OSM   H12A15264   4.522   1.896   6.373 -0.8277 -0.1452 -0.1883
  140OSM   H12B15265   4.383   1.962   6.297 -0.8080 -0.5839 -0.6823
  140OSM    C1115266   4.562   2.084   6.312  0.4792 -0.7450 -0.1460
  140OSM   H11A15267   4.672   2.073   6.314  0.7089  0.2603 -2.7597
  140OSM   H11B15268   4.523   2.108   6.413 -2.3571 -0.7511 -1.1446
  140OSM      P15269   4.610   2.305   6.179  0.1382 -0.1741  0.1173
  140OSM    O1315270   4.716   2.240   6.107  0.3630 -0.2002  0.6782
  140OSM    O1415271   4.535   2.411   6.110  0.1132  0.6360  0.1451
  140OSM    O1115272   4.662   2.355   6.322 -0.3849 -0.3662 -0.0158
  140OSM    O1215273   4.516   2.191   6.229 -0.2444 -0.1808  0.2895
  140OSM    C1S15274   4.602   2.458   6.402  0.1592 -0.9306  0.6787
  140OSM    H1S15275   4.492   2.446   6.399  0.2495 -2.0846  1.3804
  140OSM    H1T15276   4.623   2.562   6.370  0.1273 -0.8347  0.9697
  140OSM     NF15277   4.558   2.532   6.633 -0.3655  0.4710  0.2286
  140OSM    HNF15278   4.589   2.618   6.673  0.2508 -0.5789  2.1214
  140OSM    C2S15279   4.635   2.447   6.552 -0.1705  0.3246 -0.7568
  140OSM    H2S15280   4.626   2.339   6.579 -0.1351  0.5351  0.1075
  140OSM    C3S15281   4.785   2.459   6.586  0.3909 -0.0799  0.5810
  140OSM    H3S15282   4.824   2.563   6.579 -0.6284  0.2039 -2.5118
  140OSM     O315283   4.869   2.402   6.491 -0.2605  0.6300  0.1489
  140OSM    HO315284   4.811   2.406   6.414  0.5678 -0.0993 -0.5365
  140OSM    C4S15285   4.825   2.410   6.724  0.0625 -0.1037  0.4614
  140OSM    H4S15286   4.836   2.496   6.793  0.9261 -0.3147  0.6002
  140OSM    C5S15287   4.858   2.282   6.774  0.0823 -0.1799  0.4649
  140OSM    H5S15288   4.862   2.197   6.704  0.6707 -0.3257  0.6771
  140OSM    C6S15289   4.900   2.247   6.915  0.8981 -0.1751  0.5199
  140OSM    H6S15290   4.978   2.315   6.953  0.2709 -0.1639  1.8410
  140OSM    H6T15291   4.929   2.140   6.924  1.3914 -0.2249 -1.2540
  140OSM    C7S15292   4.766   2.253   6.997  0.8562 -0.1374 -0.4555
  140OSM    H7S15293   4.688   2.192   6.947 -1.7335  1.5008  1.3704
  140OSM    H7T15294   4.725   2.355   7.009  4.2406  1.4926 -1.2808
  140OSM    C8S15295   4.767   2.223   7.146  0.3858  0.0049  0.0038
  140OSM    H8S15296   4.800   2.118   7.163  0.5752  0.0671  0.0223
  140OSM    H8T15297   4.670   2.238   7.198  0.0094  1.2525 -1.0088
  140OSM    C9S15298   4.866   2.310   7.228 -0.0693  0.2656 -0.2297
  140OSM    H9S15299   4.840   2.412   7.191 -0.1535  0.2771 -0.1369
  140OSM    H9T15300   4.966   2.287   7.184  0.1949 -0.8387  0.9123
  140OSM   C10S15301   4.851   2.311   7.385 -0.4090  0.7697  0.4143
  140OSM   H10S15302   4.747   2.344   7.406 -0.4358  1.8755 -1.2496
  140OSM   H10T15303   4.921   2.389   7.422  0.9671 -1.0283  1.8191
  140OSM   C11S15304   4.904   2.180   7.443 -0.1516  0.5146  0.4608
  140OSM   H11S15305   5.007   2.166   7.405 -0.1790  0.6307  0.3412
  140OSM   H11T15306   4.846   2.100   7.394  0.9400 -1.4551  2.2264
  140OSM   C12S15307   4.904   2.165   7.598  0.5932 -0.0495  0.0493
  140OSM   H12S15308   4.801   2.161   7.639 -0.3384 -0.8282 -2.2093
  140OSM   H12T15309   4.944   2.258   7.643  1.5728 -0.6943  0.5502
  140OSM   C13S15310   4.976   2.043   7.654  0.6509 -0.5132 -0.9679
  140OSM   H13S15311   5.072   2.022   7.603  2.6374 -1.9000  2.9045
  140OSM   H13T15312   4.919   1.949   7.639  0.6895 -0.2654 -2.8234
  140OSM   C14S15313   5.002   2.062   7.807  0.2947 -0.0480  0.4153
  140OSM   H14S15314   4.905   2.075   7.861  0.0722  1.0410 -0.2125
  140OSM   H14T15315   5.061   2.155   7.819  0.6332 -0.4550  2.1921
  140OSM   C15S15316   5.092   1.951   7.877 -0.3536  0.3240  0.5875
  140OSM   H15S15317   5.173   1.919   7.808  0.6127  1.9576  0.9126
  140OSM   H15T15318   5.023   1.865   7.889  1.1484 -0.7028  2.2152
  140OSM   C16S15319   5.147   1.992   8.013  0.8926  0.3241 -0.4480
  140OSM   H16S15320   5.216   2.079   8.005  2.0959 -0.4694  0.7354
  140OSM   H16T15321   5.208   1.905   8.046 -0.9780 -0.7822  0.2723
  140OSM   C17S15322   5.035   2.035   8.115 -0.1261  0.2642  0.5490
  140OSM   H17S15323   4.965   1.949   8.114  0.5751 -0.3722 -2.3411
  140OSM   H17T15324   4.979   2.126   8.085  0.5631  0.7605  0.7444
  140OSM   C18S15325   5.081   2.051   8.260 -0.1547 -0.4789 -0.3757
  140OSM   H18S15326   4.994   2.059   8.328 -1.0694  2.5563 -1.7727
  140OSM   H18T15327   5.154   2.134   8.267  1.4070 -1.8820  1.1595
  140OSM   H18U15328   5.131   1.955   8.287 -2.5050 -1.7450 -0.1935
  140OSM    C1F15329   4.430   2.506   6.652  0.0488 -0.1645 -0.0011
  140OSM     OF15330   4.380   2.394   6.620 -0.1603  0.2683  0.1180
  140OSM    C2F15331   4.348   2.614   6.720  0.1603  0.1807 -0.7041
  140OSM    H2F15332   4.271   2.645   6.646 -0.8861  1.8449  0.9978
  140OSM    H2G15333   4.411   2.702   6.746  2.2031 -0.3827 -3.2484
  140OSM    C3F15334   4.276   2.559   6.839  0.2794  0.0366  0.1769
  140OSM    H3F15335   4.198   2.484   6.815 -2.4242  1.6948  3.0704
  140OSM    H3G15336   4.219   2.646   6.880  0.2791  0.9412 -1.6363
  140OSM    C4F15337   4.374   2.498   6.945  1.4710  0.1832 -0.6467
  140OSM    H4F15338   4.455   2.575   6.951 -1.8846  3.9912  0.8790
  140OSM    H4G15339   4.413   2.402   6.907 -1.3290 -1.3967  0.2153
  140OSM    C5F15340   4.313   2.498   7.083  0.7829  0.0007 -0.8539
  140OSM    H5F15341   4.227   2.432   7.107  0.0938  1.8276  2.3477
  140OSM    H5G15342   4.288   2.604   7.104 -0.0752 -0.3224 -0.2018
  140OSM    C6F15343   4.424   2.471   7.193 -0.0047 -0.0967  0.1911
  140OSM    H6F15344   4.513   2.530   7.162  0.2124 -0.1198  0.7624
  140OSM    H6G15345   4.433   2.360   7.188 -1.1246 -0.1783 -0.3654
  140OSM    C7F15346   4.377   2.514   7.327  0.6210  0.2985 -0.5832
  140OSM    H7F15347   4.274   2.477   7.345  0.1057  2.2304  0.6389
  140OSM    H7G15348   4.368   2.624   7.335 -1.6575  0.1592 -0.6673
  140OSM    C8F15349   4.484   2.457   7.419  1.2768  0.5619  0.2260
  140OSM    H8F15350   4.578   2.485   7.367  0.3058  2.0121 -0.8206
  140OSM    H8G15351   4.470   2.348   7.432  2.1348  0.5525  1.1809
  140OSM    C9F15352   4.466   2.513   7.559  0.3024  0.3492  0.0450
  140OSM    H9F15353   4.364   2.503   7.600  0.6912 -1.6018  0.6462
  140OSM   C10F15354   4.559   2.584   7.628 -0.2986  0.0944 -0.7325
  140OSM   H10F15355   4.526   2.634   7.720  0.4609  2.0793 -1.4859
  140OSM   C11F15356   4.700   2.624   7.585  0.2156 -0.7205 -0.7856
  140OSM   H11F15357   4.697   2.641   7.475 -0.3647  1.1669 -0.5070
  140OSM   H11G15358   4.775   2.545   7.606 -0.0322 -0.9699 -0.8411
  140OSM   C12F15359   4.747   2.752   7.663  0.0323  0.3299 -0.3775
  140OSM   H12F15360   4.666   2.829   7.660  0.8690  1.2073 -0.9625
  140OSM   H12G15361   4.841   2.792   7.619  1.6785 -2.2407  0.6174
  140OSM   C13F15362   4.792   2.719   7.808  0.5541  1.0184  0.0664
  140OSM   H13F15363   4.901   2.698   7.811  0.6093  0.5655 -2.4407
  140OSM   H13G15364   4.741   2.625   7.837 -0.2475  1.1753 -0.7746
  140OSM   C14F15365   4.743   2.823   7.913  0.3481 -0.4169  0.3229
  140OSM   H14F15366   4.648   2.873   7.886  1.7714  3.0856  1.1815
  140OSM   H14G15367   4.810   2.911   7.894  0.6377 -0.6182  0.3979
  140OSM   C15F15368   4.749   2.782   8.061 -0.6081  0.6623 -0.9171
  140OSM   H15F15369   4.817   2.694   8.065 -1.5547 -0.1161  3.3333
  140OSM   H15G15370   4.658   2.739   8.107  0.4821  2.4161  3.3327
  140OSM   C16F15371   4.805   2.891   8.147  0.1760  0.2386 -0.1065
  140OSM   H16F15372   4.737   2.978   8.144 -0.7147 -0.4102  0.6410
  140OSM   H16G15373   4.895   2.942   8.105 -1.0789  3.3503  0.7021
  140OSM   C17F15374   4.866   2.845   8.289 -0.1228  0.1666  0.2880
  140OSM   H17F15375   4.921   2.924   8.343 -1.3588 -0.0324  1.9212
  140OSM   H17G15376   4.940   2.763   8.273 -0.2755  0.2928 -1.2650
  140OSM   C18F15377   4.758   2.797   8.384  0.2001 -0.6620  0.2660
  140OSM   H18F15378   4.787   2.701   8.433 -1.0682 -1.4141 -0.3928
  140OSM   H18G15379   4.655   2.788   8.343 -0.3910  0.5858  1.4082
  140OSM   H18H15380   4.744   2.873   8.464  2.4986  0.0004  0.0814
  141OSM      N15381   4.258   3.429   6.001  0.4810 -0.1234 -1.1942
  141OSM    C1515382   4.130   3.454   5.916 -0.2750 -0.0550 -0.0321
  141OSM   H15A15383   4.140   3.400   5.823  0.4651 -1.3236  0.7519
  141OSM   H15B15384   4.134   3.561   5.901  1.4287  0.3069  2.2802
  141OSM   H15C15385   4.043   3.432   5.976 -0.6276 -2.4339 -1.3019
  141OSM    C1415386   4.374   3.463   5.910 -0.1584  0.9660 -0.2083
  141OSM   H14A15387   4.468   3.461   5.964 -0.4344  0.4604  0.2688
  141OSM   H14B15388   4.365   3.560   5.864  0.1268  0.1024 -2.1633
  141OSM   H14C15389   4.385   3.389   5.833  1.5152  1.2219 -0.2530
  141OSM    C1315390   4.258   3.527   6.105 -0.3954  0.2991 -0.1894
  141OSM   H13A15391   4.167   3.524   6.163  0.0365 -2.4826  0.4567
  141OSM   H13B15392   4.268   3.624   6.057 -1.6411 -0.0455 -1.2016
  141OSM   H13C15393   4.342   3.517   6.171 -0.6602  2.3237  0.5447
  141OSM    C1215394   4.254   3.284   6.046 -0.0989 -0.6211  0.0288
  141OSM   H12A15395   4.229   3.227   5.958  0.3417  1.8793 -1.8182
  141OSM   H12B15396   4.179   3.258   6.119 -0.9275 -0.3390 -0.7199
  141OSM    C1115397   4.381   3.225   6.111  0.3233  0.0465  0.5693
  141OSM   H11A15398   4.460   3.244   6.036 -0.8713 -0.6368 -0.9209
  141OSM   H11B15399   4.367   3.115   6.109  1.2056 -0.0586 -0.5128
  141OSM      P15400   4.540   3.368   6.261  0.3348 -0.1966  0.2561
  141OSM    O1315401   4.640   3.291   6.331 -0.1551  0.0630 -0.0327
  141OSM    O1415402   4.589   3.436   6.133  0.0913  0.0003  0.6864
  141OSM    O1115403   4.478   3.477   6.357  0.2243  0.0895 -0.0708
  141OSM    O1215404   4.415   3.269   6.239 -0.0419  0.2526 -0.3532
  141OSM    C1S15405   4.395   3.440   6.473 -0.0332 -0.2486  0.2819
  141OSM    H1S15406   4.441   3.357   6.531 -2.8816 -1.9014  0.3570
  141OSM    H1T15407   4.300   3.402   6.431 -1.1362  1.1246  1.4552
  141OSM     NF15408   4.293   3.499   6.696  0.0258  0.8340  0.5250
  141OSM    HNF15409   4.195   3.516   6.702 -0.8081 -2.6892 -0.6545
  141OSM    C2S15410   4.363   3.554   6.580  0.1922 -0.1268  0.3781
  141OSM    H2S15411   4.452   3.610   6.617 -0.5441  0.9561  0.5518
  141OSM    C3S15412   4.280   3.671   6.507 -0.4788 -0.3392 -0.2941
  141OSM    H3S15413   4.173   3.641   6.501 -0.4268 -0.2748 -1.6865
  141OSM     O315414   4.316   3.689   6.368 -0.7297  0.3031  0.8106
  141OSM    HO315415   4.383   3.622   6.349  0.4214  2.2080 -2.7326
  141OSM    C4S15416   4.273   3.805   6.578 -0.1351 -0.0004 -0.3196
  141OSM    H4S15417   4.178   3.810   6.634  0.2779  0.2728  0.3676
  141OSM    C5S15418   4.344   3.915   6.563 -0.0762  0.2941 -0.0706
  141OSM    H5S15419   4.424   3.911   6.487  0.4628 -3.1264  0.5390
  141OSM    C6S15420   4.338   4.049   6.623 -0.5777  0.2514  0.1724
  141OSM    H6S15421   4.269   4.109   6.560  0.0216 -0.7627 -1.5079
  141OSM    H6T15422   4.437   4.098   6.636 -0.7700  1.4487 -2.2643
  141OSM    C7S15423   4.279   4.039   6.767  0.2885 -1.0185 -0.0408
  141OSM    H7S15424   4.363   3.982   6.812  0.3159 -2.2127 -1.5278
  141OSM    H7T15425   4.194   3.969   6.772  0.9334 -1.8545 -0.4813
  141OSM    C8S15426   4.267   4.174   6.839 -0.4967 -0.0688  0.2259
  141OSM    H8S15427   4.180   4.233   6.802  0.1630  2.7142  2.7384
  141OSM    H8T15428   4.355   4.240   6.823 -0.2517 -0.9659 -2.6721
  141OSM    C9S15429   4.243   4.128   6.990  0.0934 -0.2034 -0.3695
  141OSM    H9S15430   4.317   4.058   7.034  1.3469  2.9746  3.1694
  141OSM    H9T15431   4.154   4.062   6.976  1.4307 -2.2672  0.4953
  141OSM   C10S15432   4.209   4.228   7.101 -0.5201 -0.1466  0.0088
  141OSM   H10S15433   4.125   4.293   7.068  1.3143  1.7527 -1.1973
  141OSM   H10T15434   4.299   4.292   7.118 -0.0282 -0.6930 -0.4849
  141OSM   C11S15435   4.160   4.170   7.233 -0.1432  0.0282 -0.0152
  141OSM   H11S15436   4.236   4.101   7.275 -0.2196  0.1361  0.3047
  141OSM   H11T15437   4.061   4.121   7.217 -0.0212 -0.3779  0.4569
  141OSM   C12S15438   4.134   4.272   7.339 -0.4436  0.3425  0.0572
  141OSM   H12S15439   4.043   4.332   7.319  0.3917  1.8139  0.5028
  141OSM   H12T15440   4.220   4.342   7.336 -0.1541 -0.0506 -2.2387
  141OSM   C13S15441   4.134   4.218   7.479  0.6518  0.3231  0.3455
  141OSM   H13S15442   4.230   4.167   7.503  0.5418  0.9447  2.3246
  141OSM   H13T15443   4.046   4.150   7.482 -0.5254  1.8320  0.8837
  141OSM   C14S15444   4.117   4.332   7.584  0.4918  0.5699 -0.5231
  141OSM   H14S15445   4.031   4.401   7.568 -2.5678 -2.5907  0.6903
  141OSM   H14T15446   4.216   4.380   7.587  0.4476  0.7530 -1.6733
  141OSM   C15S15447   4.104   4.278   7.726  0.1617 -0.0746 -0.0726
  141OSM   H15S15448   4.184   4.206   7.751 -1.1319 -2.1247 -1.5142
  141OSM   H15T15449   4.020   4.205   7.728 -0.1600  0.2921 -0.1134
  141OSM   C16S15450   4.087   4.382   7.839  0.7716  0.1630 -0.7776
  141OSM   H16S15451   4.020   4.466   7.810 -0.3278  0.3698  2.0670
  141OSM   H16T15452   4.192   4.412   7.861  1.9694 -4.0581  0.2280
  141OSM   C17S15453   4.032   4.309   7.965  0.4020 -0.1235 -0.3840
  141OSM   H17S15454   3.924   4.285   7.949  0.2223  1.0535 -1.0260
  141OSM   H17T15455   4.047   4.374   8.053  0.9865 -1.6999  0.7227
  141OSM   C18S15456   4.101   4.186   8.003 -0.6382  0.0203  0.5371
  141OSM   H18S15457   4.070   4.145   8.102 -0.1569 -1.0465  0.2637
  141OSM   H18T15458   4.211   4.195   8.006 -0.6490  0.0614  0.8641
  141OSM   H18U15459   4.078   4.106   7.929  0.3238  0.2270 -0.0009
  141OSM    C1F15460   4.353   3.425   6.780 -0.2094 -0.1293 -0.1612
  141OSM     OF15461   4.477   3.416   6.770 -0.2696  0.5928 -0.3588
  141OSM    C2F15462   4.272   3.345   6.882  0.2123  0.3352 -0.2989
  141OSM    H2F15463   4.322   3.246   6.873 -1.0973 -0.2615 -1.3264
  141OSM    H2G15464   4.170   3.329   6.840  0.4620  0.6658 -1.0596
  141OSM    C3F15465   4.273   3.396   7.024  0.4617 -0.6277 -0.1232
  141OSM    H3F15466   4.237   3.501   7.029  0.2325 -0.7649  2.3386
  141OSM    H3G15467   4.372   3.389   7.075  0.6620 -2.8405 -0.7253
  141OSM    C4F15468   4.192   3.304   7.113  0.5723 -0.5888 -0.0002
  141OSM    H4F15469   4.248   3.212   7.139 -0.2732 -1.2202 -0.3522
  141OSM    H4G15470   4.096   3.275   7.066 -0.1675 -0.8332  1.5910
  141OSM    C5F15471   4.151   3.378   7.240 -0.1393  0.2372  0.2553
  141OSM    H5F15472   4.070   3.449   7.213  0.0137 -0.0944 -1.1330
  141OSM    H5G15473   4.236   3.437   7.280  0.9702 -2.0969  1.5689
  141OSM    C6F15474   4.098   3.287   7.341  0.2194  0.4076  0.1526
  141OSM    H6F15475   4.181   3.224   7.380 -0.3195  0.0591  0.7617
  141OSM    H6G15476   4.037   3.221   7.276 -0.1386  2.9761 -2.2710
  141OSM    C7F15477   4.027   3.355   7.454  0.1388 -0.2764 -0.4695
  141OSM    H7F15478   3.954   3.295   7.513  1.1187  0.5723  1.7372
  141OSM    H7G15479   3.971   3.439   7.408  1.4050  0.7964 -0.1190
  141OSM    C8F15480   4.133   3.436   7.544  0.0510  0.4998  0.6189
  141OSM    H8F15481   4.185   3.514   7.486  1.0541 -0.1826  0.5673
  141OSM    H8G15482   4.204   3.352   7.557  1.0985  1.1562 -0.7503
  141OSM    C9F15483   4.081   3.488   7.678 -0.4343 -0.4408  0.4838
  141OSM    H9F15484   4.046   3.592   7.667  0.5153 -0.2011 -0.4636
  141OSM   C10F15485   4.065   3.419   7.790 -0.2321  0.0507 -0.0906
  141OSM   H10F15486   4.035   3.486   7.872  0.2147  0.5271 -0.3079
  141OSM   C11F15487   4.088   3.280   7.825 -0.0079  0.9505 -0.5614
  141OSM   H11F15488   4.151   3.260   7.914  0.8848 -0.6876 -1.5031
  141OSM   H11G15489   4.156   3.234   7.750  1.8997 -0.6207  1.9761
  141OSM   C12F15490   3.950   3.214   7.862 -0.3707  0.8501  0.4297
  141OSM   H12F15491   3.974   3.106   7.862  0.0606  0.9397  0.9811
  141OSM   H12G15492   3.884   3.250   7.780  0.2780 -1.5078 -1.2189
  141OSM   C13F15493   3.878   3.245   7.993 -0.3288 -0.2181 -0.1616
  141OSM   H13F15494   3.889   3.355   8.002  0.3139 -0.2787 -0.1568
  141OSM   H13G15495   3.940   3.195   8.071  2.4785 -1.7410 -3.1118
  141OSM   C14F15496   3.739   3.194   7.987  0.1597  0.6379 -0.3231
  141OSM   H14F15497   3.751   3.085   7.969 -0.8710  0.5376 -0.4749
  141OSM   H14G15498   3.677   3.240   7.907  0.8572 -2.0161 -2.5124
  141OSM   C15F15499   3.672   3.210   8.126  0.3849 -0.2002  0.0429
  141OSM   H15F15500   3.749   3.205   8.205 -0.8135 -0.1548  1.2613
  141OSM   H15G15501   3.604   3.123   8.137 -0.9086  0.5538 -1.4384
  141OSM   C16F15502   3.594   3.339   8.149 -0.2097 -0.6584  0.4629
  141OSM   H16F15503   3.501   3.338   8.087 -0.0347 -2.7640  0.1700
  141OSM   H16G15504   3.662   3.416   8.106 -0.9649 -1.4980 -2.5018
  141OSM   C17F15505   3.555   3.373   8.293  0.4739  0.8126 -0.7491
  141OSM   H17F15506   3.528   3.480   8.305 -1.0190  0.1753  3.1356
  141OSM   H17G15507   3.642   3.368   8.362 -1.2920  2.7794  1.8214
  141OSM   C18F15508   3.439   3.288   8.338 -0.1370 -0.4988 -0.0531
  141OSM   H18F15509   3.455   3.179   8.345 -3.4252 -1.0337  1.1261
  141OSM   H18G15510   3.352   3.309   8.273 -0.5026  1.2073  0.9089
  141OSM   H18H15511   3.420   3.337   8.437 -0.4901  1.1674 -0.9106
  142OSM      N15512   4.989   5.926   6.162 -0.0800  0.4118  0.1568
  142OSM    C1515513   5.045   6.032   6.069 -0.7264 -0.0529 -0.0566
  142OSM   H15A15514   5.006   6.025   5.968  1.0113 -0.3538 -0.7425
  142OSM   H15B15515   5.152   6.028   6.054 -0.7956 -0.7476 -0.4047
  142OSM   H15C15516   5.002   6.120   6.115 -0.9705  1.2778 -2.6669
  142OSM    C1415517   5.026   5.789   6.107  0.0428 -0.0917 -0.2790
  142OSM   H14A15518   5.007   5.716   6.184 -0.8209  0.6284  0.2077
  142OSM   H14B15519   5.129   5.771   6.079  0.2194  0.0652  0.2546
  142OSM   H14C15520   4.952   5.769   6.031 -1.4996  0.0697  1.1450
  142OSM    C1315521   5.041   5.940   6.301  0.0179 -0.0516  0.4787
  142OSM   H13A15522   5.134   5.885   6.306  0.7083  1.1060  0.7368
  142OSM   H13B15523   4.959   5.914   6.366 -1.5950 -1.5999 -2.0290
  142OSM   H13C15524   5.069   6.043   6.317  0.6031 -0.1507  0.1400
  142OSM    C1215525   4.842   5.942   6.160  0.1184 -0.2673  0.1015
  142OSM   H12A15526   4.788   5.877   6.227 -2.0825 -0.2093 -1.5003
  142OSM   H12B15527   4.811   5.932   6.057 -2.4041  2.9771  0.3640
  142OSM    C1115528   4.786   6.082   6.197  0.5205  0.6710 -0.1891
  142OSM   H11A15529   4.678   6.080   6.172  0.2725 -0.9371  0.8314
  142OSM   H11B15530   4.825   6.154   6.122  0.4303 -1.5656 -2.5264
  142OSM      P15531   4.856   6.262   6.378 -0.1149 -0.4629 -0.0032
  142OSM    O1315532   4.993   6.278   6.314  0.4521 -0.1670  0.1764
  142OSM    O1415533   4.755   6.369   6.341 -0.2211 -0.1533  0.5462
  142OSM    O1115534   4.872   6.256   6.532  0.0666  0.2745 -0.0225
  142OSM    O1215535   4.805   6.111   6.337  0.6141  0.5378 -0.1382
  142OSM    C1S15536   4.934   6.138   6.581 -0.0505  0.6504 -0.5704
  142OSM    H1S15537   5.028   6.115   6.527  0.5747  0.4059  0.5824
  142OSM    H1T15538   4.877   6.045   6.566 -1.7847  1.4823  0.5450
  142OSM     NF15539   5.021   6.035   6.789  0.9659 -0.5493 -0.5235
  142OSM    HNF15540   4.954   5.966   6.816  1.5244 -0.1295  2.2570
  142OSM    C2S15541   4.956   6.151   6.740  0.6395 -0.3290 -0.9341
  142OSM    H2S15542   5.025   6.236   6.759  0.6538 -0.2862 -1.1728
  142OSM    C3S15543   4.828   6.195   6.816  0.0437 -0.1027 -0.5728
  142OSM    H3S15544   4.756   6.114   6.790 -1.4815  0.8252  0.5990
  142OSM     O315545   4.762   6.319   6.780  0.0156  0.0263  0.2078
  142OSM    HO315546   4.780   6.317   6.685  3.3191  2.7607  0.5695
  142OSM    C4S15547   4.850   6.205   6.965 -0.3742  0.2284 -0.0076
  142OSM    H4S15548   4.907   6.292   7.002  1.9517 -0.4372 -1.7250
  142OSM    C5S15549   4.805   6.113   7.052 -0.3099  0.1358  0.3484
  142OSM    H5S15550   4.750   6.021   7.027 -0.9990 -0.3224  3.2250
  142OSM    C6S15551   4.826   6.127   7.202 -0.2738 -0.4351  0.2015
  142OSM    H6S15552   4.852   6.227   7.244 -0.8749 -0.1885 -0.0068
  142OSM    H6T15553   4.920   6.073   7.227  0.6439  0.0383 -1.9783
  142OSM    C7S15554   4.704   6.073   7.285  0.2340 -0.7308  0.1526
  142OSM    H7S15555   4.701   5.963   7.270  1.2882 -0.5978 -1.1558
  142OSM    H7T15556   4.604   6.115   7.259 -0.3580 -1.4106  1.2479
  142OSM    C8S15557   4.735   6.100   7.431  0.8146 -0.3296 -0.4085
  142OSM    H8S15558   4.739   6.206   7.462  0.3894 -0.6943  0.9888
  142OSM    H8T15559   4.829   6.043   7.445  0.9263 -0.2231 -0.7425
  142OSM    C9S15560   4.623   6.049   7.538 -0.3293 -0.1248  0.3176
  142OSM    H9S15561   4.620   5.940   7.518 -0.2902 -0.0931  0.1354
  142OSM    H9T15562   4.535   6.116   7.525 -0.9000 -0.9591 -0.2383
  142OSM   C10S15563   4.688   6.087   7.673 -0.2439  0.7098 -0.1038
  142OSM   H10S15564   4.713   6.195   7.678  0.9177  0.4449  0.1269
  142OSM   H10T15565   4.783   6.029   7.677  0.7479  2.3216  0.8118
  142OSM   C11S15566   4.607   6.051   7.799 -0.3803  0.8122  0.3865
  142OSM   H11S15567   4.587   5.943   7.814 -1.2836  1.0318  0.8238
  142OSM   H11T15568   4.513   6.109   7.786  0.3615  1.4534 -2.9866
  142OSM   C12S15569   4.666   6.090   7.930  0.4750 -0.3180  0.1556
  142OSM   H12S15570   4.693   6.197   7.917 -0.2192 -0.3436 -1.8457
  142OSM   H12T15571   4.758   6.034   7.960 -0.0374 -1.9589 -1.1774
  142OSM   C13S15572   4.567   6.085   8.043  1.0086 -0.3119 -0.0796
  142OSM   H13S15573   4.471   6.133   8.014  1.3750 -0.5009 -1.6975
  142OSM   H13T15574   4.610   6.125   8.137  2.0716  1.1260 -1.1352
  142OSM   C14S15575   4.527   5.937   8.066 -0.0921  0.3411  0.2480
  142OSM   H14S15576   4.613   5.868   8.048 -2.4425 -3.5847  2.7871
  142OSM   H14T15577   4.448   5.917   7.990 -1.6522  1.7105  1.4484
  142OSM   C15S15578   4.467   5.901   8.212 -0.3503  0.5150  0.3047
  142OSM   H15S15579   4.367   5.950   8.214 -0.7710  0.0364 -2.9857
  142OSM   H15T15580   4.540   5.935   8.288  0.8135 -0.4721 -0.3468
  142OSM   C16S15581   4.452   5.747   8.235 -0.1811 -0.3771 -0.1105
  142OSM   H16S15582   4.464   5.700   8.135 -1.6836  0.4861 -0.7313
  142OSM   H16T15583   4.347   5.718   8.260 -0.1640  1.1628  2.0194
  142OSM   C17S15584   4.559   5.695   8.323 -0.3250  0.3052  0.9337
  142OSM   H17S15585   4.550   5.742   8.423  0.6178 -2.5667  2.4691
  142OSM   H17T15586   4.659   5.714   8.278 -0.5106 -0.8728 -0.0325
  142OSM   C18S15587   4.547   5.544   8.333 -0.5680 -0.4601 -0.3335
  142OSM   H18S15588   4.579   5.494   8.239 -0.2745 -0.6137 -0.1489
  142OSM   H18T15589   4.449   5.510   8.373  0.2641 -2.5297  0.0403
  142OSM   H18U15590   4.611   5.496   8.410 -2.0895 -1.7680  0.1861
  142OSM    C1F15591   5.143   6.003   6.756 -0.0605  0.3894 -0.3166
  142OSM     OF15592   5.217   6.082   6.706  0.2520 -0.3713 -0.0608
  142OSM    C2F15593   5.189   5.860   6.771 -0.5573 -0.4596  0.2245
  142OSM    H2F15594   5.225   5.828   6.671  2.0753 -0.7879  1.2003
  142OSM    H2G15595   5.106   5.788   6.788  1.4673 -3.0238 -0.2459
  142OSM    C3F15596   5.307   5.833   6.867 -0.4593 -0.0823  0.0794
  142OSM    H3F15597   5.396   5.877   6.817 -2.3485 -0.3857 -3.9331
  142OSM    H3G15598   5.335   5.726   6.869  3.1244  0.6281 -2.0130
  142OSM    C4F15599   5.296   5.887   7.008  0.1629  0.5631  0.1870
  142OSM    H4F15600   5.247   5.985   7.028  1.0480  0.9788  0.3894
  142OSM    H4G15601   5.399   5.908   7.046  1.4264 -0.1270 -2.6246
  142OSM    C5F15602   5.222   5.785   7.098  0.4865  0.0605  1.2690
  142OSM    H5F15603   5.277   5.689   7.090 -0.8796 -0.6647  0.0851
  142OSM    H5G15604   5.121   5.768   7.055  0.6575  0.7020  0.5814
  142OSM    C6F15605   5.195   5.820   7.234  0.3722 -0.2169 -0.0600
  142OSM    H6F15606   5.124   5.905   7.239 -2.6454 -2.6248  1.7539
  142OSM    H6G15607   5.291   5.853   7.280  0.6300 -1.1842  0.1171
  142OSM    C7F15608   5.149   5.703   7.328  0.6020 -0.6415  0.2521
  142OSM    H7F15609   5.199   5.610   7.294 -0.8263 -1.7798  1.1839
  142OSM    H7G15610   5.043   5.682   7.302  0.1870  1.5804 -0.0510
  142OSM    C8F15611   5.187   5.731   7.474  0.3303  0.5285  0.2122
  142OSM    H8F15612   5.297   5.746   7.471  0.2286  1.2160 -0.4262
  142OSM    H8G15613   5.169   5.633   7.523 -1.9961  2.1116  2.8240
  142OSM    C9F15614   5.117   5.839   7.555  0.5238 -0.1467  0.3813
  142OSM    H9F15615   5.172   5.933   7.573 -0.3153  0.1959  1.3052
  142OSM   C10F15616   4.985   5.833   7.595 -0.0898  0.0489  0.3160
  142OSM   H10F15617   4.949   5.912   7.662 -0.5897 -0.5162  0.7221
  142OSM   C11F15618   4.885   5.720   7.582  0.6874  0.6517 -0.0244
  142OSM   H11F15619   4.918   5.645   7.506 -0.3664  0.5120 -0.3630
  142OSM   H11G15620   4.793   5.755   7.532  2.2460  2.5682 -1.7307
  142OSM   C12F15621   4.864   5.642   7.710 -0.5624  0.8212 -0.3250
  142OSM   H12F15622   4.966   5.631   7.753 -0.9430  1.1445  0.6751
  142OSM   H12G15623   4.825   5.542   7.682  0.7776 -0.2158  1.3258
  142OSM   C13F15624   4.762   5.696   7.810 -0.1171 -0.0182 -0.3966
  142OSM   H13F15625   4.663   5.718   7.766  0.1310  1.0065 -0.4713
  142OSM   H13G15626   4.801   5.792   7.851 -1.3294  1.1580 -1.8753
  142OSM   C14F15627   4.738   5.594   7.923  0.0353 -0.7570 -0.0096
  142OSM   H14F15628   4.701   5.494   7.892 -1.9404 -0.5114  1.4082
  142OSM   H14G15629   4.677   5.645   8.000  0.1051 -2.9570  1.6160
  142OSM   C15F15630   4.872   5.565   8.004  0.0685 -0.0678 -0.1114
  142OSM   H15F15631   4.932   5.653   8.034 -1.0284  0.4360  0.6905
  142OSM   H15G15632   4.936   5.502   7.939 -1.8148 -1.1463 -0.9982
  142OSM   C16F15633   4.855   5.494   8.137  1.0522 -0.1076  0.3733
  142OSM   H16F15634   4.800   5.398   8.124 -0.3445  0.1404  3.6847
  142OSM   H16G15635   4.791   5.550   8.208 -0.2462 -0.0896 -0.7678
  142OSM   C17F15636   4.993   5.461   8.192 -0.7385  0.4695  0.1625
  142OSM   H17F15637   5.045   5.554   8.221 -0.0296  0.0622  0.2184
  142OSM   H17G15638   5.054   5.420   8.109 -1.0204  0.7106 -0.1635
  142OSM   C18F15639   4.973   5.374   8.321 -0.5306 -0.0370 -0.7746
  142OSM   H18F15640   4.923   5.279   8.291 -0.8069  0.4668 -1.9531
  142OSM   H18G15641   4.912   5.429   8.396  0.9665  1.2079 -0.4312
  142OSM   H18H15642   5.073   5.361   8.368  0.1746  1.2047 -1.8856
  143OSM      N15643   6.478   1.175   5.879 -0.6750 -0.4581 -0.3056
  143OSM    C1515644   6.333   1.198   5.890  0.4968  0.1369  0.0204
  143OSM   H15A15645   6.297   1.256   5.807 -0.2561  2.6839  1.9987
  143OSM   H15B15646   6.301   1.259   5.973 -0.8095  1.0000 -1.0709
  143OSM   H15C15647   6.282   1.102   5.891 -0.0371  0.4017 -0.8932
  143OSM    C1415648   6.501   1.117   5.740 -0.2698 -0.7140  0.1463
  143OSM   H14A15649   6.426   1.042   5.720 -0.6216 -0.3732  0.1905
  143OSM   H14B15650   6.596   1.066   5.724 -0.8641 -1.9834  0.5083
  143OSM   H14C15651   6.489   1.185   5.657 -0.3677 -0.6399  0.2216
  143OSM    C1315652   6.555   1.299   5.895 -0.0469  0.1660 -0.1917
  143OSM   H13A15653   6.662   1.284   5.883 -0.1145  0.5098 -1.3280
  143OSM   H13B15654   6.526   1.345   5.989  0.1777 -0.0323 -0.0210
  143OSM   H13C15655   6.536   1.366   5.813 -1.9785  1.2782  1.0726
  143OSM    C1215656   6.516   1.073   5.988  0.0157  0.2476 -0.3571
  143OSM   H12A15657   6.510   1.119   6.085 -0.8264 -1.0005  0.1959
  143OSM   H12B15658   6.620   1.044   5.981 -0.7455 -2.8879  0.1050
  143OSM    C1115659   6.451   0.931   5.983  0.7088 -0.1673 -0.2945
  143OSM   H11A15660   6.488   0.878   6.074 -3.3227 -2.6616  0.1341
  143OSM   H11B15661   6.478   0.866   5.897 -0.8201 -1.3220  0.0530
  143OSM      P15662   6.220   0.863   6.094 -0.1077  0.1257  0.4611
  143OSM    O1315663   6.082   0.907   6.053  0.3101  0.2928 -0.7142
  143OSM    O1415664   6.252   0.724   6.075  0.0810  0.1621 -0.1218
  143OSM    O1115665   6.258   0.920   6.239  0.3970  0.1098 -0.6063
  143OSM    O1215666   6.309   0.936   5.989 -0.3874  0.2870  0.4693
  143OSM    C1S15667   6.281   1.058   6.268 -0.0772  0.1212 -0.6213
  143OSM    H1S15668   6.188   1.112   6.241 -1.2171 -0.2322  2.2603
  143OSM    H1T15669   6.363   1.113   6.217  0.7500 -1.7179 -1.3736
  143OSM     NF15670   6.253   1.223   6.458  0.8854 -0.0187 -0.2882
  143OSM    HNF15671   6.330   1.278   6.488  0.9678 -0.8082  1.0423
  143OSM    C2S15672   6.279   1.084   6.428  0.1332  0.7546  0.3546
  143OSM    H2S15673   6.199   1.017   6.467 -0.3133  1.2384  0.2745
  143OSM    C3S15674   6.416   1.044   6.476  0.2677 -0.1593 -0.0055
  143OSM    H3S15675   6.483   1.130   6.454  0.3819 -0.4523 -0.8191
  143OSM     O315676   6.474   0.934   6.404 -0.0263 -0.4609 -0.6096
  143OSM    HO315677   6.417   0.929   6.327 -1.0057  3.2450 -0.3272
  143OSM    C4S15678   6.424   1.011   6.626 -0.3377 -0.7299 -0.5295
  143OSM    H4S15679   6.344   0.946   6.663 -1.4304 -0.6923 -2.7057
  143OSM    C5S15680   6.512   1.069   6.710  0.0693  0.6837  0.7192
  143OSM    H5S15681   6.589   1.132   6.664  3.1771 -1.7853  2.1301
  143OSM    C6S15682   6.523   1.037   6.860 -0.1828  1.0669  0.1627
  143OSM    H6S15683   6.493   1.127   6.918 -0.8827 -0.9631  3.2536
  143OSM    H6T15684   6.628   1.023   6.892 -0.7782  1.8633  2.7211
  143OSM    C7S15685   6.447   0.910   6.918  0.7953  0.2640  0.5094
  143OSM    H7S15686   6.489   0.821   6.865  0.3648  0.7258 -0.6468
  143OSM    H7T15687   6.339   0.929   6.896  0.5154  0.3418  1.8581
  143OSM    C8S15688   6.468   0.892   7.064  0.0635  0.0456  0.0270
  143OSM    H8S15689   6.447   0.989   7.115 -0.5965  0.2221 -0.5628
  143OSM    H8T15690   6.577   0.883   7.083  0.4090  0.3891 -1.6678
  143OSM    C9S15691   6.387   0.777   7.125  0.3589  0.2562  0.0393
  143OSM    H9S15692   6.415   0.674   7.093  2.9146 -0.5062  4.0385
  143OSM    H9T15693   6.279   0.785   7.099  0.0631 -1.1731  0.7054
  143OSM   C10S15694   6.402   0.779   7.275  0.2452 -0.0016 -0.6838
  143OSM   H10S15695   6.372   0.878   7.317  0.8871 -0.8541  2.0119
  143OSM   H10T15696   6.511   0.775   7.298  0.6580  2.2423 -1.8758
  143OSM   C11S15697   6.307   0.680   7.346 -0.0233  0.3751  0.1034
  143OSM   H11S15698   6.341   0.574   7.344 -2.7209 -0.6108  0.6524
  143OSM   H11T15699   6.213   0.660   7.289  0.6726 -2.1170 -0.2806
  143OSM   C12S15700   6.268   0.735   7.491  0.0963 -0.0546 -0.2186
  143OSM   H12S15701   6.179   0.678   7.527 -0.3629 -0.8294 -2.4358
  143OSM   H12T15702   6.226   0.837   7.481  1.0955  0.3087 -0.8505
  143OSM   C13S15703   6.373   0.730   7.599  0.4443 -0.6705 -0.2624
  143OSM   H13S15704   6.462   0.784   7.559  0.5977 -2.3244 -2.3833
  143OSM   H13T15705   6.412   0.627   7.613 -0.2518 -0.7803  0.9028
  143OSM   C14S15706   6.325   0.803   7.727  0.1985  0.4314  0.0384
  143OSM   H14S15707   6.236   0.750   7.767  1.0677 -0.1748  1.2123
  143OSM   H14T15708   6.280   0.898   7.691 -3.2567 -1.2587 -0.5357
  143OSM   C15S15709   6.436   0.809   7.828 -0.6837 -0.6536 -0.5853
  143OSM   H15S15710   6.523   0.871   7.795 -0.0615 -0.3102  1.5096
  143OSM   H15T15711   6.481   0.709   7.842 -1.1323 -0.6758  0.9388
  143OSM   C16S15712   6.398   0.867   7.964 -0.0880 -0.9925 -0.5908
  143OSM   H16S15713   6.305   0.813   7.993 -1.4958  0.6844 -1.7537
  143OSM   H16T15714   6.370   0.974   7.957 -2.4571 -1.6464 -2.7248
  143OSM   C17S15715   6.495   0.847   8.083 -0.1476  0.1064 -0.0001
  143OSM   H17S15716   6.596   0.876   8.046 -0.6710  0.5180 -1.1677
  143OSM   H17T15717   6.488   0.739   8.109 -0.9109  0.3517  0.8762
  143OSM   C18S15718   6.445   0.926   8.199 -0.3258  0.1925 -1.4376
  143OSM   H18S15719   6.436   1.032   8.167 -3.4402  0.3844 -0.3018
  143OSM   H18T15720   6.514   0.918   8.285 -4.0265 -0.9831  1.6717
  143OSM   H18U15721   6.346   0.886   8.230  0.4413 -1.0075 -0.4504
  143OSM    C1F15722   6.125   1.273   6.464 -0.3148  0.1086 -0.1637
  143OSM     OF15723   6.021   1.217   6.429  0.0740  0.3472  0.5825
  143OSM    C2F15724   6.115   1.412   6.520 -0.7996 -0.3970 -0.5151
  143OSM    H2F15725   6.011   1.450   6.526 -0.3996  0.6345  0.2699
  143OSM    H2G15726   6.196   1.478   6.481  0.1529 -1.3843 -0.2503
  143OSM    C3F15727   6.158   1.413   6.669  0.4655 -0.1146  0.0520
  143OSM    H3F15728   6.159   1.515   6.712 -1.2136 -0.3392  0.7067
  143OSM    H3G15729   6.265   1.386   6.675  1.5377  2.7244 -3.1429
  143OSM    C4F15730   6.082   1.313   6.757 -0.1759  1.0821  1.0904
  143OSM    H4F15731   6.106   1.208   6.732  3.8702  2.2232 -0.5953
  143OSM    H4G15732   5.974   1.321   6.730  0.3872  0.0096 -1.8179
  143OSM    C5F15733   6.100   1.329   6.906  0.3689 -0.5988 -0.1820
  143OSM    H5F15734   6.027   1.257   6.950  0.3505 -0.0518  0.7042
  143OSM    H5G15735   6.075   1.434   6.934 -0.3869 -1.2306  1.6812
  143OSM    C6F15736   6.244   1.293   6.937 -0.4481 -0.9078 -0.3238
  143OSM    H6F15737   6.313   1.370   6.896  0.8851 -2.0494 -0.3050
  143OSM    H6G15738   6.281   1.199   6.890 -0.2614 -0.4722 -1.0585
  143OSM    C7F15739   6.275   1.279   7.088  0.0410  0.1696  0.2505
  143OSM    H7F15740   6.259   1.178   7.132  0.7760  0.1162  0.4189
  143OSM    H7G15741   6.210   1.351   7.142  0.9815  0.9175  0.4099
  143OSM    C8F15742   6.424   1.299   7.120 -0.2521 -0.6057  0.1181
  143OSM    H8F15743   6.492   1.286   7.033  0.4269 -0.4265  0.6224
  143OSM    H8G15744   6.452   1.230   7.202 -1.2665 -0.5346  0.5434
  143OSM    C9F15745   6.446   1.441   7.169 -0.6035  0.9066  0.3237
  143OSM    H9F15746   6.407   1.518   7.102 -2.2807  0.1181  0.3338
  143OSM   C10F15747   6.492   1.478   7.288 -0.8924  0.2293 -0.0513
  143OSM   H10F15748   6.511   1.586   7.304  0.5502 -0.3904  3.2586
  143OSM   C11F15749   6.538   1.387   7.400  0.3510  0.2394 -0.3204
  143OSM   H11F15750   6.621   1.326   7.359  0.0764  0.7059 -1.6430
  143OSM   H11G15751   6.460   1.313   7.427  0.0770  0.3665 -0.7490
  143OSM   C12F15752   6.599   1.455   7.527 -0.4702 -0.3502  0.1474
  143OSM   H12F15753   6.517   1.496   7.590  0.2295 -0.3240  1.0646
  143OSM   H12G15754   6.676   1.534   7.517 -1.3605  0.7522  1.5202
  143OSM   C13F15755   6.674   1.347   7.612  0.4079 -0.9576 -0.3642
  143OSM   H13F15756   6.766   1.320   7.555  0.1311 -0.6386 -0.9758
  143OSM   H13G15757   6.597   1.267   7.610 -1.0235  0.3686 -2.0826
  143OSM   C14F15758   6.681   1.401   7.755 -0.3249  0.0270 -0.3244
  143OSM   H14F15759   6.587   1.448   7.790 -0.2567  0.4772 -0.7488
  143OSM   H14G15760   6.763   1.475   7.767  0.8403 -1.2782  0.0589
  143OSM   C15F15761   6.713   1.277   7.848 -0.7563  0.5931  0.1839
  143OSM   H15F15762   6.811   1.227   7.833 -2.2682 -2.0667 -1.7015
  143OSM   H15G15763   6.640   1.195   7.832 -0.6360  0.8594 -2.0960
  143OSM   C16F15764   6.694   1.301   7.993  0.5516 -0.2691  0.0575
  143OSM   H16F15765   6.586   1.314   8.018  1.1286  3.1466  1.3235
  143OSM   H16G15766   6.755   1.390   8.019  2.1037 -0.7115 -1.8280
  143OSM   C17F15767   6.738   1.186   8.080 -0.0254  0.5479 -0.0616
  143OSM   H17F15768   6.844   1.163   8.059 -0.8015 -1.6770 -1.8571
  143OSM   H17G15769   6.672   1.098   8.067  0.6949 -0.0594  0.3522
  143OSM   C18F15770   6.723   1.228   8.230 -0.2361  0.7448 -0.3321
  143OSM   H18F15771   6.622   1.217   8.274  0.0841  1.9150  0.7453
  143OSM   H18G15772   6.778   1.322   8.251  1.2359 -0.0021 -0.7458
  143OSM   H18H15773   6.768   1.146   8.290 -1.0995 -1.1193 -2.1202
  144OSM      N15774   4.207   1.304   6.233 -0.1296  0.4870  0.0996
  144OSM    C1515775   4.121   1.361   6.343 -0.0942  0.5328 -0.2432
  144OSM   H15A15776   4.097   1.281   6.411 -0.9795 -1.3411 -2.6172
  144OSM   H15B15777   4.029   1.408   6.311 -1.4109 -0.9665  1.1632
  144OSM   H15C15778   4.170   1.439   6.400  0.4641 -0.9563  1.4168
  144OSM    C1415779   4.132   1.184   6.182 -0.1956 -0.2566  0.3470
  144OSM   H14A15780   4.197   1.106   6.145  0.6669  0.4238  0.3975
  144OSM   H14B15781   4.053   1.213   6.114  1.0547 -0.0255 -1.0643
  144OSM   H14C15782   4.079   1.151   6.270  0.0560 -1.4115  0.0838
  144OSM    C1315783   4.244   1.399   6.123 -0.1335 -0.2368  0.3398
  144OSM   H13A15784   4.316   1.476   6.150 -0.7353 -0.5795  3.2524
  144OSM   H13B15785   4.159   1.452   6.083  0.0013 -1.1588 -1.2272
  144OSM   H13C15786   4.300   1.355   6.042  0.8478  3.2797 -1.0861
  144OSM    C1215787   4.340   1.253   6.289  0.1914 -0.6399 -0.1579
  144OSM   H12A15788   4.400   1.199   6.217  0.3045 -1.2685  0.3987
  144OSM   H12B15789   4.313   1.180   6.364 -0.1148  0.2587  0.6293
  144OSM    C1115790   4.447   1.341   6.359  0.1429  0.1455 -0.6882
  144OSM   H11A15791   4.513   1.269   6.414 -0.3754 -0.8073 -1.2861
  144OSM   H11B15792   4.400   1.400   6.441 -0.4140 -1.2373  0.0219
  144OSM      P15793   4.616   1.370   6.180  0.5466 -0.1009  0.0026
  144OSM    O1315794   4.582   1.234   6.140 -0.5379  0.3000 -0.3095
  144OSM    O1415795   4.658   1.465   6.077 -0.3531  0.4298  0.2942
  144OSM    O1115796   4.740   1.365   6.290 -0.4366 -0.1721 -0.0908
  144OSM    O1215797   4.503   1.429   6.267 -0.0351 -0.1610 -0.0081
  144OSM    C1S15798   4.773   1.481   6.372  0.5701 -0.1485 -0.2610
  144OSM    H1S15799   4.746   1.579   6.330  1.4359  0.7079  1.0982
  144OSM    H1T15800   4.881   1.508   6.376  0.5544  0.8068 -3.7237
  144OSM     NF15801   4.777   1.594   6.590 -0.0755 -0.1716 -0.1645
  144OSM    HNF15802   4.855   1.597   6.653  0.4503  1.6952 -0.8457
  144OSM    C2S15803   4.729   1.469   6.522  0.2808  0.3536  0.1651
  144OSM    H2S15804   4.618   1.465   6.530  0.4434 -1.0457  2.5906
  144OSM    C3S15805   4.795   1.339   6.581  0.4738 -0.2501 -0.2793
  144OSM    H3S15806   4.905   1.351   6.577  0.4324  0.5706  0.4967
  144OSM     O315807   4.769   1.222   6.502  0.4504 -0.7204  0.2695
  144OSM    HO315808   4.753   1.271   6.421 -0.5849 -0.7907  0.4197
  144OSM    C4S15809   4.759   1.314   6.730 -0.4414  0.1972  1.1074
  144OSM    H4S15810   4.833   1.349   6.804 -0.9684  3.6706  0.1664
  144OSM    C5S15811   4.653   1.245   6.779 -0.6477 -0.0324 -0.1661
  144OSM    H5S15812   4.591   1.187   6.708 -0.1851  1.2486 -1.6763
  144OSM    C6S15813   4.631   1.215   6.926 -0.2161  0.3521 -0.2703
  144OSM    H6S15814   4.611   1.106   6.937 -0.1670  0.0380 -2.7589
  144OSM    H6T15815   4.538   1.265   6.961 -0.8734 -0.3487 -0.9818
  144OSM    C7S15816   4.739   1.245   7.050  0.7615 -0.1333  0.1965
  144OSM    H7S15817   4.758   1.354   7.060  1.9076 -0.1875 -1.1187
  144OSM    H7T15818   4.835   1.196   7.025  0.5051 -0.2490 -0.5905
  144OSM    C8S15819   4.697   1.183   7.185  0.3189 -0.2920  0.3553
  144OSM    H8S15820   4.687   1.076   7.158 -1.7387  0.4632 -2.2477
  144OSM    H8T15821   4.600   1.226   7.218 -0.9460 -1.9277 -1.0194
  144OSM    C9S15822   4.800   1.196   7.289 -0.3942  0.2118 -0.1286
  144OSM    H9S15823   4.795   1.304   7.313 -0.1789  0.6754 -2.0485
  144OSM    H9T15824   4.902   1.175   7.249 -0.7052  0.3877 -1.0308
  144OSM   C10S15825   4.766   1.129   7.426 -0.7617 -0.0113  0.0948
  144OSM   H10S15826   4.776   1.018   7.422  0.1880 -0.0889  2.6790
  144OSM   H10T15827   4.660   1.153   7.445 -0.2671  2.4453 -0.0080
  144OSM   C11S15828   4.849   1.187   7.541  0.0805 -0.2315 -0.3909
  144OSM   H11S15829   4.840   1.298   7.545  3.1858  0.0840  0.4132
  144OSM   H11T15830   4.956   1.157   7.533 -0.1824 -1.6209  0.9181
  144OSM   C12S15831   4.810   1.120   7.666 -0.1248 -0.1835 -0.1919
  144OSM   H12S15832   4.819   1.012   7.644 -0.1375 -0.2149 -0.0438
  144OSM   H12T15833   4.707   1.142   7.702  0.2343 -0.3449  0.9582
  144OSM   C13S15834   4.901   1.161   7.789  0.2573  0.5697  0.4576
  144OSM   H13S15835   5.003   1.123   7.771 -0.1397 -1.3554  1.9953
  144OSM   H13T15836   4.861   1.102   7.874 -1.5106  3.1941  1.5748
  144OSM   C14S15837   4.886   1.302   7.837 -0.6657 -0.1706 -0.1796
  144OSM   H14S15838   4.779   1.328   7.857  0.2676  2.9423  1.5733
  144OSM   H14T15839   4.933   1.366   7.760 -0.1264 -0.3106  0.0296
  144OSM   C15S15840   4.969   1.341   7.964 -0.2407 -0.1253 -0.4583
  144OSM   H15S15841   4.939   1.282   8.053  1.2151 -1.3546 -0.7443
  144OSM   H15T15842   4.962   1.450   7.984  0.0360 -0.4109  1.3849
  144OSM   C16S15843   5.118   1.311   7.938 -0.0773  0.5026 -0.1369
  144OSM   H16S15844   5.143   1.336   7.833  0.3061  1.1252  0.0986
  144OSM   H16T15845   5.134   1.201   7.936 -1.3768  0.3066 -0.7257
  144OSM   C17S15846   5.209   1.381   8.045  0.0511 -0.2695  0.5400
  144OSM   H17S15847   5.309   1.333   8.036  0.1129 -0.1108  0.3605
  144OSM   H17T15848   5.175   1.347   8.145  0.1106  0.6256  0.8774
  144OSM   C18S15849   5.211   1.542   8.038  0.3645  0.1928  0.0897
  144OSM   H18S15850   5.279   1.571   7.954  2.0398 -1.0107  0.9704
  144OSM   H18T15851   5.259   1.576   8.132 -0.5397 -0.6623  0.8789
  144OSM   H18U15852   5.113   1.593   8.028  0.0457 -0.5628 -0.9056
  144OSM    C1F15853   4.716   1.713   6.566  0.6666 -0.0330  0.4148
  144OSM     OF15854   4.606   1.716   6.508 -0.2788 -0.1078  0.1048
  144OSM    C2F15855   4.775   1.837   6.628 -0.2612 -0.6467 -0.3228
  144OSM    H2F15856   4.734   1.921   6.568  0.1773 -0.5608 -0.5052
  144OSM    H2G15857   4.885   1.836   6.616 -0.1216  0.0015  0.8388
  144OSM    C3F15858   4.734   1.850   6.772  0.0429  0.2946 -0.6888
  144OSM    H3F15859   4.624   1.852   6.787 -0.0427  2.1011 -1.3237
  144OSM    H3G15860   4.764   1.954   6.797  1.4144 -0.2918  0.2626
  144OSM    C4F15861   4.805   1.753   6.862  0.9909  0.5057  0.3593
  144OSM    H4F15862   4.914   1.746   6.840  1.4232 -2.5255  2.8421
  144OSM    H4G15863   4.750   1.658   6.850 -0.7366  1.4852  0.1315
  144OSM    C5F15864   4.799   1.801   7.005 -0.0033  0.1830 -0.4019
  144OSM    H5F15865   4.699   1.805   7.053  0.8748 -0.7284  1.6080
  144OSM    H5G15866   4.836   1.905   7.008 -3.0699  1.3413  1.2551
  144OSM    C6F15867   4.894   1.721   7.096 -0.2797 -0.5942 -0.0096
  144OSM    H6F15868   4.998   1.719   7.056  1.5729 -1.3962  4.3070
  144OSM    H6G15869   4.865   1.623   7.140 -0.2433  0.5098  2.6507
  144OSM    C7F15870   4.906   1.802   7.226 -0.7150  0.3676  0.3178
  144OSM    H7F15871   4.811   1.810   7.283 -1.0840  2.7358 -0.5440
  144OSM    H7G15872   4.945   1.903   7.203  0.6756 -0.3622 -0.7200
  144OSM    C8F15873   5.013   1.740   7.319  0.3049  0.3716 -0.2420
  144OSM    H8F15874   5.039   1.817   7.395  1.2393 -0.7698  0.6305
  144OSM    H8G15875   5.106   1.708   7.268  1.8308 -0.4400  2.8470
  144OSM    C9F15876   4.943   1.625   7.393 -0.4509  0.0550 -0.0928
  144OSM    H9F15877   4.853   1.587   7.341 -1.2401  3.2719 -1.2916
  144OSM   C10F15878   4.978   1.578   7.513 -0.3671  0.3916  1.0897
  144OSM   H10F15879   4.927   1.488   7.550  0.1263 -0.4776 -0.3023
  144OSM   C11F15880   5.081   1.645   7.600 -0.2962  0.6497 -1.0113
  144OSM   H11F15881   5.041   1.664   7.702  1.0474  1.0243 -0.5392
  144OSM   H11G15882   5.125   1.737   7.556  1.5780  0.7090  0.8440
  144OSM   C12F15883   5.204   1.559   7.628  0.2436 -0.4358  0.0958
  144OSM   H12F15884   5.221   1.506   7.532 -0.0105  2.8850 -1.9886
  144OSM   H12G15885   5.171   1.484   7.702 -1.5761  0.6911  0.4899
  144OSM   C13F15886   5.334   1.634   7.665 -0.5313  0.3666  0.2403
  144OSM   H13F15887   5.325   1.693   7.759  0.1864  1.8832 -0.5972
  144OSM   H13G15888   5.345   1.708   7.583  0.0887 -1.3734 -1.3094
  144OSM   C14F15889   5.457   1.544   7.660 -0.4587 -0.3356  0.5217
  144OSM   H14F15890   5.485   1.528   7.554  3.1236  0.1575  1.2635
  144OSM   H14G15891   5.434   1.440   7.690  0.1669 -0.4114  0.7695
  144OSM   C15F15892   5.576   1.592   7.745  0.1065 -0.2759  0.2936
  144OSM   H15F15893   5.536   1.669   7.814 -1.2797 -0.8034  0.0974
  144OSM   H15G15894   5.645   1.636   7.669 -0.8541  1.0814  0.1650
  144OSM   C16F15895   5.642   1.470   7.808  1.4027  0.3308  0.8869
  144OSM   H16F15896   5.648   1.390   7.731 -0.1538 -1.0245  2.1060
  144OSM   H16G15897   5.571   1.423   7.879  0.4830 -0.6126 -0.6160
  144OSM   C17F15898   5.782   1.489   7.869  0.1821 -0.4418 -0.1330
  144OSM   H17F15899   5.768   1.548   7.963  0.9564  0.0546 -0.3215
  144OSM   H17G15900   5.848   1.543   7.798  0.1867  1.4443  1.2199
  144OSM   C18F15901   5.843   1.353   7.903 -0.4677  0.3135 -0.1031
  144OSM   H18F15902   5.861   1.279   7.822 -0.8302 -0.4501  0.4910
  144OSM   H18G15903   5.777   1.296   7.972 -0.4326 -0.6277 -0.8336
  144OSM   H18H15904   5.939   1.352   7.959  0.1276  2.3082 -1.0162
  145SAPE     N15905   5.019   2.652  10.871 -0.8063  0.6839 -0.4113
  145SAPE   HN115906   5.110   2.687  10.835 -1.3480  2.8796  0.2493
  145SAPE   HN215907   4.957   2.729  10.839 -0.5115  1.3779  0.6584
  145SAPE   HN315908   4.994   2.666  10.971 -3.2783  1.2678 -1.0359
  145SAPE   C1215909   4.977   2.509  10.825  0.5226 -0.0524 -0.9456
  145SAPE  H12A15910   4.876   2.500  10.870 -1.1829  2.1961 -3.9037
  145SAPE  H12B15911   5.049   2.435  10.865 -1.1798 -0.7919  0.8997
  145SAPE   C1115912   4.965   2.515  10.669 -0.1286  0.4333 -0.3387
  145SAPE  H11A15913   5.057   2.571  10.641  1.0498 -0.9615  0.6309
  145SAPE  H11B15914   4.870   2.572  10.660 -1.7323 -1.8183  1.2304
  145SAPE     P15915   5.079   2.281  10.611  0.2520  0.0356 -0.0660
  145SAPE   O1315916   5.208   2.345  10.593  0.5170 -0.4497  0.1241
  145SAPE   O1415917   5.060   2.203  10.734 -0.1287 -1.0895 -1.0243
  145SAPE   O1215918   4.967   2.382  10.610  0.0674  0.7802 -0.0616
  145SAPE   O1115919   5.041   2.184  10.495 -0.1277  0.1618 -0.1170
  145SAPE    C115920   5.039   2.240  10.361 -0.4727  0.1106 -0.3465
  145SAPE    HA15921   4.933   2.252  10.330 -0.8322 -1.1580  0.3112
  145SAPE    HB15922   5.099   2.332  10.346 -0.4042  0.2458  0.6807
  145SAPE    C215923   5.107   2.144  10.256  0.0418  0.4949 -0.0060
  145SAPE    HS15924   5.208   2.117  10.294  0.2952  2.6937  1.0173
  145SAPE   O2115925   5.132   2.219  10.131  0.0203  1.0368 -0.0835
  145SAPE   C2115926   5.262   2.226  10.096  0.2836  0.0332  0.3973
  145SAPE   O2215927   5.355   2.159  10.129 -0.1387 -0.7333  0.1524
  145SAPE   C2215928   5.264   2.336   9.986 -0.3538  0.5068  0.0081
  145SAPE   H2R15929   5.372   2.351   9.966 -0.4523  1.0556 -0.1213
  145SAPE   H2S15930   5.205   2.287   9.905 -2.2663 -0.1100  1.6880
  145SAPE    C315931   5.025   2.018  10.220  0.0059  0.4364 -0.1486
  145SAPE    HX15932   4.933   2.055  10.169  0.2644 -0.0471 -0.9868
  145SAPE    HY15933   4.994   1.961  10.310  0.7683  1.1460  0.5836
  145SAPE   O3115934   5.101   1.935  10.128 -0.6216  0.3947 -0.1600
  145SAPE   C3115935   5.194   1.865  10.186  0.2944 -0.5243  0.1162
  145SAPE   O3215936   5.209   1.847  10.307  0.3351 -0.7113  0.7125
  145SAPE   C3215937   5.290   1.817  10.073  0.1171  0.0041  0.3644
  145SAPE   H2X15938   5.395   1.808  10.109  1.1624  0.9445 -2.1892
  145SAPE   H2Y15939   5.294   1.891   9.990  1.0989 -0.0223  0.3784
  145SAPE   C2315940   5.201   2.468  10.020 -0.1803 -0.4515 -0.2885
  145SAPE   H3R15941   5.259   2.518  10.100  1.2414 -0.1218 -1.4904
  145SAPE   H3S15942   5.097   2.449  10.054 -0.4870  0.2245 -0.8173
  145SAPE   C2415943   5.193   2.572   9.905  0.3051 -0.0471 -0.0060
  145SAPE   H4R15944   5.297   2.607   9.887  0.1102  0.6639  0.2180
  145SAPE   H4S15945   5.136   2.665   9.927  0.3793 -0.5468  2.5973
  145SAPE   C2515946   5.126   2.494   9.793 -0.1310 -0.0472  0.0955
  145SAPE   H5R15947   5.021   2.475   9.818  0.3936 -0.3885  2.2313
  145SAPE   C2615948   5.175   2.442   9.679 -0.0763  0.6454  0.2998
  145SAPE   H6R15949   5.105   2.407   9.601  1.2597 -0.6854 -0.3645
  145SAPE   C2715950   5.318   2.454   9.633  0.3289  0.2590  0.0453
  145SAPE   H7R15951   5.384   2.482   9.717 -2.8984 -0.2098  2.9358
  145SAPE   H7S15952   5.310   2.545   9.569  1.9576  2.0537  2.2171
  145SAPE   C2815953   5.371   2.337   9.543 -0.2303  0.2785 -0.6014
  145SAPE   H8R15954   5.429   2.380   9.460  0.7957  0.6643  0.2922
  145SAPE   C2915955   5.349   2.200   9.554  0.5216 -1.3057  0.4297
  145SAPE   H9R15956   5.403   2.134   9.484  2.4360 -0.8962  1.4473
  145SAPE  C21015957   5.275   2.125   9.660  0.8176  0.2148 -1.0903
  145SAPE  H10R15958   5.234   2.192   9.739  1.0429 -0.6936 -0.1817
  145SAPE  H10S15959   5.348   2.070   9.723 -0.7129  0.2528  0.8371
  145SAPE  C21115960   5.176   2.040   9.589  0.4885  0.4247  0.0311
  145SAPE  H11R15961   5.090   2.094   9.547  0.9730  1.9810  0.9576
  145SAPE  C21215962   5.189   1.910   9.551  0.2412 -0.1069 -0.4678
  145SAPE  H12R15963   5.114   1.859   9.489  0.5981 -0.6401 -0.4695
  145SAPE  C21315964   5.312   1.820   9.580  0.4747 -0.1745 -1.0948
  145SAPE  H13R15965   5.288   1.757   9.669 -1.4938 -3.0850 -3.4556
  145SAPE  H13S15966   5.403   1.879   9.599 -0.1699  0.5274 -0.0948
  145SAPE  C21415967   5.346   1.717   9.476 -0.5796  0.1438 -0.5316
  145SAPE  H14R15968   5.324   1.616   9.512 -0.1129 -0.7062 -2.4865
  145SAPE  C21515969   5.388   1.734   9.352  0.0729 -0.4778 -0.0549
  145SAPE  H15R15970   5.418   1.645   9.295 -0.0332 -0.9938  0.6866
  145SAPE  C21615971   5.421   1.866   9.287  0.5057 -0.0244  0.2464
  145SAPE  H16R15972   5.530   1.870   9.266  0.1813 -0.4984 -1.7691
  145SAPE  H16S15973   5.402   1.949   9.359  2.1026 -1.5020  2.5004
  145SAPE  C21715974   5.339   1.887   9.160 -0.2174 -0.2163  0.1996
  145SAPE  H17R15975   5.358   1.988   9.118  0.3218 -0.1750  0.5331
  145SAPE  H17S15976   5.231   1.863   9.173 -0.1337 -0.1489  1.0763
  145SAPE  C21815977   5.373   1.792   9.044  0.5031 -0.6168  0.1506
  145SAPE  H18R15978   5.333   1.689   9.054 -0.0858 -0.8794 -3.4516
  145SAPE  H18S15979   5.482   1.803   9.022 -0.2237  0.1145 -3.9819
  145SAPE  C21915980   5.326   1.847   8.909 -0.6618 -0.0159 -0.5147
  145SAPE  H19R15981   5.344   1.957   8.904  2.8203 -0.2945  1.8644
  145SAPE  H19S15982   5.218   1.824   8.913 -0.8056  0.6376 -0.5124
  145SAPE  C22015983   5.373   1.771   8.782  0.2377 -0.1749 -0.0163
  145SAPE  H20R15984   5.319   1.673   8.777  1.4022 -0.8385  0.1569
  145SAPE  H20S15985   5.481   1.748   8.783  0.5462  1.2044  1.5177
  145SAPE  H20T15986   5.350   1.824   8.687  0.2064 -1.9220 -1.0279
  145SAPE   C3315987   5.258   1.666  10.013 -0.6063 -0.1987 -0.1638
  145SAPE   H3X15988   5.257   1.588  10.092 -1.6486 -0.7836 -0.7346
  145SAPE   H3Y15989   5.342   1.645   9.943 -0.7109 -1.0921 -0.0383
  145SAPE   C3415990   5.123   1.660   9.951  0.2507 -0.3410  0.5062
  145SAPE   H4X15991   5.115   1.749   9.885  1.9464  0.1379  0.9110
  145SAPE   H4Y15992   5.051   1.667  10.036 -0.9439 -1.4535 -0.3592
  145SAPE   C3515993   5.105   1.532   9.868 -0.1613 -0.0603  0.1425
  145SAPE   H5X15994   5.136   1.442   9.924 -2.1903 -1.2565 -0.5626
  145SAPE   H5Y15995   5.155   1.528   9.769 -1.2198 -1.3680 -0.3656
  145SAPE   C3615996   4.957   1.509   9.836 -0.3433 -0.6631 -0.1435
  145SAPE   H6X15997   4.900   1.521   9.930  2.4878  0.1363  1.5972
  145SAPE   H6Y15998   4.948   1.405   9.796 -4.1650 -0.4374 -0.1995
  145SAPE   C3715999   4.900   1.600   9.724 -0.0058  0.0300 -0.2065
  145SAPE   H7X16000   4.935   1.705   9.727 -2.5810  0.9324  1.1083
  145SAPE   H7Y16001   4.790   1.608   9.738 -0.3609 -2.1103 -1.2674
  145SAPE   C3816002   4.929   1.537   9.584 -0.4363  0.9113 -0.4664
  145SAPE   H8X16003   4.878   1.439   9.575  0.4868  0.3475  0.2074
  145SAPE   H8Y16004   5.038   1.512   9.582 -1.0022 -2.8178  2.8075
  145SAPE   C3916005   4.887   1.630   9.469  0.5124 -0.0618  0.0929
  145SAPE   H9X16006   4.928   1.730   9.495 -3.5524  1.3444  1.7774
  145SAPE   H9Y16007   4.777   1.639   9.473  0.5679  0.3903  0.8589
  145SAPE  C31016008   4.920   1.582   9.323  0.5089  0.7051 -0.5434
  145SAPE  H10X16009   4.868   1.485   9.313  1.1893  0.2783 -0.0756
  145SAPE  H10Y16010   5.031   1.581   9.310  0.5740  3.3853 -0.8935
  145SAPE  C31116011   4.856   1.677   9.224  0.3441 -0.3583  1.2283
  145SAPE  H11X16012   4.867   1.780   9.263 -1.5552 -0.6217  2.6035
  145SAPE  H11Y16013   4.746   1.660   9.228  0.1334  0.5350 -0.2022
  145SAPE  C31216014   4.896   1.655   9.080 -0.1131  0.2638 -0.9543
  145SAPE  H12X16015   4.859   1.557   9.043  1.3170 -1.2461  1.3816
  145SAPE  H12Y16016   5.006   1.650   9.068 -0.1400  0.7560 -1.4545
  145SAPE  C31316017   4.851   1.764   8.980 -0.7269 -0.3183  0.1511
  145SAPE  H13X16018   4.883   1.860   9.026  0.8787 -0.4777 -0.5493
  145SAPE  H13Y16019   4.741   1.767   8.970 -0.8269  0.3804  1.2808
  145SAPE  C31416020   4.932   1.749   8.851  0.5141 -0.0142  0.5425
  145SAPE  H14X16021   5.039   1.733   8.874  0.3278 -0.4611  1.1081
  145SAPE  H14Y16022   4.919   1.847   8.799  1.9641 -0.8026 -1.4181
  145SAPE  C31516023   4.881   1.626   8.774 -0.6146  0.3171  0.2420
  145SAPE  H15X16024   4.775   1.635   8.742  0.0303  0.5402 -2.0127
  145SAPE  H15Y16025   4.897   1.536   8.838  3.0441  2.7318  3.2169
  145SAPE  C31616026   4.977   1.602   8.650  0.9613  0.4416 -0.4937
  145SAPE  H16X16027   4.948   1.504   8.606  1.5628  0.0484 -0.0288
  145SAPE  H16Y16028   5.081   1.581   8.682  0.5467 -1.8556 -0.4837
  145SAPE  C31716029   4.975   1.715   8.550 -0.2669 -0.1916  0.5565
  145SAPE  H17X16030   5.047   1.686   8.471  0.4972 -0.3856  1.3027
  145SAPE  H17Y16031   5.016   1.808   8.597  0.3644  0.2830 -0.8687
  145SAPE  C31816032   4.844   1.752   8.489 -0.2746  0.1757  0.5651
  145SAPE  H18X16033   4.785   1.666   8.451  1.4515 -0.7009 -0.2743
  145SAPE  H18Y16034   4.861   1.820   8.402 -0.2512 -2.3307 -1.5033
  145SAPE  H18Z16035   4.776   1.803   8.560 -2.2451  1.1612 -1.8736
  146SAPE     N16036   3.483   4.996  10.324 -0.5548 -0.0861 -0.1564
  146SAPE   HN116037   3.431   4.912  10.356  0.4340 -0.8284 -0.4499
  146SAPE   HN216038   3.435   5.055  10.254 -2.8308 -1.2004  0.3709
  146SAPE   HN316039   3.574   4.967  10.284 -1.5822  1.1544 -3.7302
  146SAPE   C1216040   3.507   5.088  10.437  0.3890  0.6580  0.2737
  146SAPE  H12A16041   3.549   5.175  10.384  0.3303 -0.4789 -1.7108
  146SAPE  H12B16042   3.583   5.041  10.503  0.6172  0.2666 -0.2717
  146SAPE   C1116043   3.379   5.124  10.517 -0.6067  0.0566  0.4170
  146SAPE  H11A16044   3.291   5.163  10.461 -1.1651 -0.1832  1.1006
  146SAPE  H11B16045   3.405   5.210  10.582  1.0219  0.9089 -1.2827
  146SAPE     P16046   3.209   4.937  10.565  0.2931  0.0469 -0.1290
  146SAPE   O1316047   3.200   4.804  10.633  0.0151 -0.1332 -0.3493
  146SAPE   O1416048   3.112   5.045  10.589  0.1233 -0.0135  0.6966
  146SAPE   O1216049   3.336   5.011  10.601  0.1530 -0.0497  0.4092
  146SAPE   O1116050   3.230   4.905  10.413 -0.0638  0.0466 -0.1654
  146SAPE    C116051   3.126   4.893  10.321  0.1067 -0.4744 -0.3764
  146SAPE    HA16052   3.096   4.786  10.317 -0.1564 -0.4098 -0.1574
  146SAPE    HB16053   3.038   4.956  10.347  0.2483 -0.7758  0.8921
  146SAPE    C216054   3.164   4.946  10.180 -0.1779 -0.6867  0.3998
  146SAPE    HS16055   3.086   4.910  10.110 -1.9398  1.7504  0.9641
  146SAPE   O2116056   3.295   4.898  10.147 -0.5417  0.0850  1.1365
  146SAPE   C2116057   3.296   4.775  10.098  0.1610  0.3567 -1.7523
  146SAPE   O2216058   3.204   4.694  10.107 -0.0564  0.5365  0.3126
  146SAPE   C2216059   3.420   4.770  10.007  0.1039  0.5359 -0.1788
  146SAPE   H2R16060   3.398   4.805   9.904 -1.6626  1.8319  0.5894
  146SAPE   H2S16061   3.498   4.835  10.052  1.3218  0.6794 -2.3475
  146SAPE    C316062   3.151   5.103  10.158 -0.2973  0.1707 -0.2232
  146SAPE    HX16063   3.219   5.155  10.229 -0.4121  0.1641 -0.1091
  146SAPE    HY16064   3.049   5.142  10.180  0.0376  1.0196 -0.1414
  146SAPE   O3116065   3.194   5.150  10.023  0.3027 -0.0952  0.4805
  146SAPE   C3116066   3.320   5.162   9.999 -0.2041  0.0119  0.0429
  146SAPE   O3216067   3.414   5.152  10.080 -0.2658 -0.1242 -0.1397
  146SAPE   C3216068   3.334   5.175   9.842 -0.0414 -0.1598  0.2271
  146SAPE   H2X16069   3.271   5.090   9.805 -0.9529  1.1491 -1.3658
  146SAPE   H2Y16070   3.440   5.145   9.829 -0.7431 -2.6037 -0.4881
  146SAPE   C2316071   3.478   4.623   9.998  1.0972  0.1978  0.1255
  146SAPE   H3R16072   3.409   4.556   9.943  0.8933  0.8619 -0.4414
  146SAPE   H3S16073   3.486   4.575  10.098 -0.8657  0.1230  0.2813
  146SAPE   C2416074   3.614   4.620   9.926 -0.8603 -0.9631  0.4993
  146SAPE   H4R16075   3.618   4.675   9.830 -0.6710 -0.7521  0.6264
  146SAPE   H4S16076   3.642   4.514   9.907  0.4227  0.0279 -4.3550
  146SAPE   C2516077   3.717   4.691  10.010 -0.1163 -0.3122 -0.2241
  146SAPE   H5R16078   3.714   4.667  10.117 -0.4917 -0.6096 -0.2986
  146SAPE   C2616079   3.791   4.795   9.976  0.5070  0.9852 -0.5534
  146SAPE   H6R16080   3.860   4.826  10.056 -0.2550 -1.4475  1.1581
  146SAPE   C2716081   3.808   4.864   9.845  0.0449  0.4557 -0.0917
  146SAPE   H7R16082   3.782   4.805   9.755  0.2415  1.4814 -0.8395
  146SAPE   H7S16083   3.918   4.878   9.848  0.5463 -2.6858  1.6005
  146SAPE   C2816084   3.739   4.996   9.840  0.9993  0.1816 -0.7158
  146SAPE   H8R16085   3.684   5.030   9.928  1.3446  0.5229 -0.6300
  146SAPE   C2916086   3.740   5.079   9.732  0.1142 -0.1197 -0.6426
  146SAPE   H9R16087   3.697   5.180   9.744  0.1469  0.0921 -2.1142
  146SAPE  C21016088   3.812   5.047   9.600 -0.1073 -0.3344 -1.0166
  146SAPE  H10R16089   3.863   4.948   9.601 -1.3761 -1.0004  0.0128
  146SAPE  H10S16090   3.891   5.121   9.576 -1.0808  0.8983 -0.5053
  146SAPE  C21116091   3.720   5.042   9.481  0.2889  0.1484  0.0280
  146SAPE  H11R16092   3.612   5.052   9.503  0.4632  1.2783  0.4068
  146SAPE  C21216093   3.758   5.028   9.354 -0.3084 -0.3326  0.4381
  146SAPE  H12R16094   3.680   5.022   9.277 -3.2614  0.2694  3.1694
  146SAPE  C21316095   3.901   5.008   9.311  0.4903  0.0367 -0.3230
  146SAPE  H13R16096   3.956   4.961   9.396 -0.6791 -1.6022 -0.4147
  146SAPE  H13S16097   3.940   5.109   9.285 -2.7719  1.0666 -1.7680
  146SAPE  C21416098   3.919   4.920   9.187 -0.5110  0.2526  0.6289
  146SAPE  H14R16099   3.976   4.829   9.210  0.7935  0.6809 -0.7839
  146SAPE  C21516100   3.885   4.948   9.062 -0.9919  0.4929 -0.2688
  146SAPE  H15R16101   3.911   4.866   8.993 -0.3970 -1.9692  2.6561
  146SAPE  C21616102   3.828   5.073   8.999 -0.4927  0.2551 -0.5108
  146SAPE  H16R16103   3.913   5.130   8.953 -0.8375  0.0061 -1.4753
  146SAPE  H16S16104   3.780   5.141   9.073  0.4176  1.6203 -1.1141
  146SAPE  C21716105   3.739   5.036   8.883 -0.5080  0.2483  0.2040
  146SAPE  H17R16106   3.646   4.990   8.924  0.5248 -1.4345  0.7726
  146SAPE  H17S16107   3.790   4.950   8.834 -0.8444  0.2733 -0.1982
  146SAPE  C21816108   3.703   5.153   8.786  0.2837  0.2814 -0.6171
  146SAPE  H18R16109   3.655   5.220   8.861  2.9329 -0.0945  1.5663
  146SAPE  H18S16110   3.642   5.100   8.710  1.1432 -0.7211 -0.6266
  146SAPE  C21916111   3.822   5.231   8.727  0.9861 -0.3614  0.2365
  146SAPE  H19R16112   3.882   5.155   8.672 -0.1954 -0.5661 -0.7947
  146SAPE  H19S16113   3.879   5.280   8.809  0.4099 -0.6467  0.8136
  146SAPE  C22016114   3.781   5.331   8.620  0.2653  0.1344  0.0891
  146SAPE  H20R16115   3.875   5.374   8.581 -0.5597 -0.6465 -3.0365
  146SAPE  H20S16116   3.701   5.395   8.663  0.5770 -0.3418  1.4245
  146SAPE  H20T16117   3.731   5.275   8.538 -0.9222  0.2169  0.7212
  146SAPE   C3316118   3.291   5.311   9.780  0.2428  1.0868  0.4377
  146SAPE   H3X16119   3.374   5.383   9.793  2.9227 -0.8869 -3.7888
  146SAPE   H3Y16120   3.190   5.333   9.821 -1.1760 -0.4341 -1.9687
  146SAPE   C3416121   3.263   5.298   9.624 -0.4693  0.2418 -0.1011
  146SAPE   H4X16122   3.181   5.230   9.592 -0.1271  0.2047 -0.9210
  146SAPE   H4Y16123   3.360   5.256   9.589  0.6847  1.6804  1.2430
  146SAPE   C3516124   3.232   5.438   9.557 -0.4134  0.8587  0.4755
  146SAPE   H5X16125   3.315   5.501   9.596 -0.5701  0.1767  2.0246
  146SAPE   H5Y16126   3.140   5.487   9.595 -1.0924  0.2766 -0.3878
  146SAPE   C3616127   3.222   5.430   9.402 -0.5775  0.0692 -0.1701
  146SAPE   H6X16128   3.209   5.534   9.365  1.6287  2.2997  4.4022
  146SAPE   H6Y16129   3.143   5.357   9.375  0.0565 -0.5551 -0.3682
  146SAPE   C3716130   3.348   5.364   9.333  0.2334  0.0637  1.1493
  146SAPE   H7X16131   3.340   5.253   9.337 -2.4328  0.2062  1.5987
  146SAPE   H7Y16132   3.438   5.385   9.394  0.4924 -0.4151  0.9369
  146SAPE   C3816133   3.367   5.393   9.181 -0.0930  0.1406 -0.4171
  146SAPE   H8X16134   3.471   5.360   9.158  0.4359  1.6852 -0.3959
  146SAPE   H8Y16135   3.376   5.504   9.172 -0.5375  0.1059 -1.3179
  146SAPE   C3916136   3.275   5.328   9.075  0.3736 -0.5062  0.0253
  146SAPE   H9X16137   3.175   5.376   9.082 -0.1123 -1.4594 -0.1655
  146SAPE   H9Y16138   3.250   5.226   9.111  0.1345  0.3643  2.5070
  146SAPE  C31016139   3.330   5.339   8.925 -0.0278 -0.4494  0.6242
  146SAPE  H10X16140   3.427   5.285   8.931  1.2959  1.7685  0.3253
  146SAPE  H10Y16141   3.364   5.437   8.886  1.4655 -1.8074 -1.7163
  146SAPE  C31116142   3.245   5.264   8.818  0.2742  0.6395  0.4033
  146SAPE  H11X16143   3.145   5.310   8.806  1.1902  2.4945 -0.6064
  146SAPE  H11Y16144   3.242   5.168   8.873  1.7085  2.0313  3.1334
  146SAPE  C31216145   3.309   5.246   8.681 -0.3980  0.7724 -0.2488
  146SAPE  H12X16146   3.246   5.180   8.618  1.9200 -0.0238 -1.8787
  146SAPE  H12Y16147   3.405   5.193   8.699 -0.8918  0.2484  0.9499
  146SAPE  C31316148   3.344   5.379   8.619 -0.5561 -0.0813  0.0460
  146SAPE  H13X16149   3.416   5.424   8.691 -1.4521 -1.0636  1.6147
  146SAPE  H13Y16150   3.253   5.443   8.622 -2.0615 -1.9832 -2.1386
  146SAPE  C31416151   3.392   5.371   8.478 -0.1931  0.6221  0.0055
  146SAPE  H14X16152   3.311   5.331   8.412 -1.6630  1.8429  1.0074
  146SAPE  H14Y16153   3.474   5.297   8.468 -1.7615 -1.1279 -0.6664
  146SAPE  C31516154   3.442   5.507   8.420  0.0120 -0.8050 -0.5265
  146SAPE  H15X16155   3.510   5.557   8.492  3.5973 -0.4953 -3.8097
  146SAPE  H15Y16156   3.349   5.566   8.402  0.2388 -0.4008 -0.3792
  146SAPE  C31616157   3.516   5.492   8.288 -0.5927  0.4469  0.6461
  146SAPE  H16X16158   3.551   5.590   8.247  0.1672  0.0622  0.3597
  146SAPE  H16Y16159   3.444   5.455   8.212  0.2129 -0.9537  0.5410
  146SAPE  C31716160   3.634   5.390   8.279 -0.3136 -0.6892 -0.4490
  146SAPE  H17X16161   3.582   5.294   8.301 -0.9369 -0.2782 -0.0793
  146SAPE  H17Y16162   3.710   5.413   8.356 -1.9583  1.7047  0.5844
  146SAPE  C31816163   3.707   5.402   8.143 -0.1388  0.0282 -0.8829
  146SAPE  H18X16164   3.748   5.504   8.130 -0.0207  0.2855  1.1100
  146SAPE  H18Y16165   3.640   5.368   8.062 -0.7563  1.4198 -0.9830
  146SAPE  H18Z16166   3.801   5.344   8.152  1.5235  2.7570  0.7772
  147SAPE     N16167   5.812   0.870  10.975 -0.5982  0.0404 -0.3329
  147SAPE   HN116168   5.887   0.877  11.047 -1.0320  0.7001  0.0800
  147SAPE   HN216169   5.840   0.789  10.918  1.7988  1.1905 -0.9154
  147SAPE   HN316170   5.807   0.945  10.904 -0.0618 -1.5049 -2.0651
  147SAPE   C1216171   5.678   0.860  11.039  0.0386 -0.0339 -0.5637
  147SAPE  H12A16172   5.652   0.960  11.080  2.0613  0.1608  0.3579
  147SAPE  H12B16173   5.675   0.797  11.130 -1.1449  0.3689 -0.3011
  147SAPE   C1116174   5.563   0.816  10.948 -0.0512  0.1417 -0.1607
  147SAPE  H11A16175   5.557   0.886  10.862  0.8340  1.4983  0.8338
  147SAPE  H11B16176   5.465   0.824  11.000 -1.3977 -3.6277 -1.7319
  147SAPE     P16177   5.549   0.622  10.773  0.1621  0.0462 -0.5745
  147SAPE   O1316178   5.648   0.670  10.679 -0.5568 -1.0379 -0.3405
  147SAPE   O1416179   5.535   0.476  10.782  0.2934 -0.3641 -0.5464
  147SAPE   O1216180   5.587   0.678  10.920  0.4038 -0.5435  0.4391
  147SAPE   O1116181   5.410   0.690  10.735  0.3925  0.3966 -0.6183
  147SAPE    C116182   5.289   0.613  10.715 -0.0981 -0.0224  0.0330
  147SAPE    HA16183   5.290   0.506  10.745  0.4856 -0.3352 -1.0739
  147SAPE    HB16184   5.212   0.653  10.785  0.7091  0.8285  0.4575
  147SAPE    C216185   5.237   0.636  10.573  0.0226  0.4210  0.4782
  147SAPE    HS16186   5.153   0.567  10.549  1.2934 -1.2400  0.6534
  147SAPE   O2116187   5.354   0.612  10.494 -0.6138  0.1147  0.1879
  147SAPE   C2116188   5.375   0.482  10.455  0.0651  0.4915  0.6326
  147SAPE   O2216189   5.301   0.387  10.480 -0.1379 -0.0661  0.1145
  147SAPE   C2216190   5.496   0.474  10.366  0.0936  0.1114  0.1822
  147SAPE   H2R16191   5.569   0.557  10.383 -0.2106  0.8985 -2.0090
  147SAPE   H2S16192   5.559   0.384  10.385  3.8553  2.4816  0.1066
  147SAPE    C316193   5.181   0.777  10.534 -0.4246 -0.5902 -0.0069
  147SAPE    HX16194   5.266   0.849  10.525  1.3514 -2.5777 -0.1435
  147SAPE    HY16195   5.114   0.825  10.608  0.3787  1.2490 -0.4132
  147SAPE   O3116196   5.103   0.765  10.417 -0.6966 -0.0180 -0.2764
  147SAPE   C3116197   5.130   0.847  10.319 -0.4390  0.2509  0.2190
  147SAPE   O3216198   5.196   0.948  10.334  0.8155  0.4525  0.1482
  147SAPE   C3216199   5.043   0.810  10.197  0.0077  0.1610 -0.6682
  147SAPE   H2X16200   4.935   0.812  10.222  0.2675  1.3032  0.4854
  147SAPE   H2Y16201   5.065   0.707  10.164 -0.2955 -0.7056  1.6777
  147SAPE   C2316202   5.451   0.483  10.214 -0.5666 -0.0662  0.3261
  147SAPE   H3R16203   5.383   0.396  10.205  1.8604 -1.8233 -3.3937
  147SAPE   H3S16204   5.537   0.463  10.146 -0.5087  1.3741 -0.0714
  147SAPE   C2416205   5.380   0.614  10.160  0.5363  0.0356  0.2428
  147SAPE   H4R16206   5.293   0.634  10.227  1.6145  3.7418  0.7661
  147SAPE   H4S16207   5.335   0.603  10.059  0.0041 -1.8757  0.6442
  147SAPE   C2516208   5.460   0.738  10.181  0.5185 -0.3528 -0.2970
  147SAPE   H5R16209   5.439   0.783  10.279  2.0817 -0.9675  0.3543
  147SAPE   C2616210   5.526   0.802  10.087  0.0068  0.3599  0.2008
  147SAPE   H6R16211   5.583   0.893  10.112  0.7892  0.2517 -1.1137
  147SAPE   C2716212   5.553   0.737   9.952  0.2152 -0.1338  0.4612
  147SAPE   H7R16213   5.566   0.803   9.863 -1.8925 -2.3438 -1.6364
  147SAPE   H7S16214   5.466   0.675   9.921  1.3794 -0.1467 -3.3532
  147SAPE   C2816215   5.672   0.644   9.957 -0.5210 -0.3539 -0.4785
  147SAPE   H8R16216   5.683   0.602  10.058 -0.5763  2.4548  0.7856
  147SAPE   C2916217   5.762   0.615   9.863 -0.2614  0.5097 -0.0136
  147SAPE   H9R16218   5.843   0.547   9.897 -0.4657  0.2867  0.0293
  147SAPE  C21016219   5.771   0.672   9.726  0.0969  0.2663 -0.0393
  147SAPE  H10R16220   5.869   0.651   9.676 -0.8268 -0.3742 -1.6634
  147SAPE  H10S16221   5.767   0.782   9.740 -0.1008  0.2270  0.2156
  147SAPE  C21116222   5.654   0.633   9.640  1.1017  0.4193  0.4656
  147SAPE  H11R16223   5.571   0.577   9.684  1.6294 -0.7858 -0.0186
  147SAPE  C21216224   5.645   0.669   9.510 -0.3292 -0.0555 -0.0383
  147SAPE  H12R16225   5.554   0.628   9.465 -1.0891 -0.8096  2.0651
  147SAPE  C21316226   5.733   0.744   9.423  0.4916 -0.5818 -0.6623
  147SAPE  H13R16227   5.769   0.673   9.345  0.2666 -2.4783  0.9121
  147SAPE  H13S16228   5.816   0.786   9.483  0.9767 -0.2372 -1.5457
  147SAPE  C21416229   5.667   0.865   9.357 -0.9279  0.2396 -0.0768
  147SAPE  H14R16230   5.672   0.959   9.414 -2.9846  1.1877 -1.3229
  147SAPE  C21516231   5.607   0.862   9.237  0.1281  0.3457 -0.0016
  147SAPE  H15R16232   5.565   0.948   9.184  0.3694 -1.0647 -2.6663
  147SAPE  C21616233   5.589   0.734   9.158  0.2674  0.1337 -0.0057
  147SAPE  H16R16234   5.496   0.732   9.096 -0.6606 -0.9864  1.3415
  147SAPE  H16S16235   5.569   0.648   9.226  0.5771 -0.2557 -0.3973
  147SAPE  C21716236   5.708   0.687   9.067 -0.1185  0.5228 -0.5278
  147SAPE  H17R16237   5.802   0.716   9.119 -0.7898 -1.8649  2.2739
  147SAPE  H17S16238   5.707   0.741   8.970 -1.1257  2.0411  0.2787
  147SAPE  C21816239   5.711   0.535   9.038 -0.2394 -0.7331  0.2435
  147SAPE  H18R16240   5.704   0.475   9.131 -0.4983 -2.6846 -0.9666
  147SAPE  H18S16241   5.804   0.504   8.985 -0.1306  1.2037 -0.8007
  147SAPE  C21916242   5.592   0.485   8.958  0.8420 -0.3163  0.3024
  147SAPE  H19R16243   5.582   0.541   8.862  2.0582 -0.7353 -0.0875
  147SAPE  H19S16244   5.496   0.503   9.011  0.7398 -0.6863  0.2487
  147SAPE  C22016245   5.599   0.339   8.920 -0.0616  0.3355 -0.7961
  147SAPE  H20R16246   5.653   0.302   8.830  2.9089 -0.4385  1.1625
  147SAPE  H20S16247   5.493   0.310   8.905 -0.4551  0.4892  1.3932
  147SAPE  H20T16248   5.638   0.277   9.003  0.7450 -0.9874 -2.0970
  147SAPE   C3316249   5.059   0.916  10.087  0.2304 -0.3637  0.2011
  147SAPE   H3X16250   5.161   0.924  10.043 -0.5148 -0.6783 -1.6341
  147SAPE   H3Y16251   5.021   1.014  10.124 -0.9944 -1.0131  0.6922
  147SAPE   C3416252   4.975   0.884   9.962 -0.6792 -0.9734 -0.6774
  147SAPE   H4X16253   4.870   0.885   9.998 -0.2244 -1.7168  0.7429
  147SAPE   H4Y16254   5.009   0.786   9.923  0.5979  0.1242 -2.5216
  147SAPE   C3516255   4.991   0.992   9.848  0.2159 -0.1764 -0.1488
  147SAPE   H5X16256   5.093   0.992   9.803  0.0576  1.9745 -0.6159
  147SAPE   H5Y16257   4.976   1.085   9.906 -1.9380 -1.6235  1.8023
  147SAPE   C3616258   4.885   0.975   9.731 -0.0856  0.1130 -0.4964
  147SAPE   H6X16259   4.782   1.000   9.764  0.7149  0.7345  1.6462
  147SAPE   H6Y16260   4.863   0.868   9.708 -0.3773  0.4600 -1.9833
  147SAPE   C3716261   4.902   1.058   9.606 -0.4803  0.8092 -0.1009
  147SAPE   H7X16262   5.002   1.056   9.558 -0.4356  1.2375 -0.0270
  147SAPE   H7Y16263   4.870   1.163   9.621  0.2612  0.9648  0.3914
  147SAPE   C3816264   4.809   1.007   9.489 -0.2191  0.0798 -0.7657
  147SAPE   H8X16265   4.699   1.010   9.504 -0.5643 -2.7807 -2.0936
  147SAPE   H8Y16266   4.827   0.898   9.476  0.7397  0.3077 -1.4574
  147SAPE   C3916267   4.843   1.073   9.357  0.5583  0.3357  0.8281
  147SAPE   H9X16268   4.953   1.085   9.350  0.4265  2.6192  1.9001
  147SAPE   H9Y16269   4.819   1.181   9.354 -0.6955  0.0675  0.2097
  147SAPE  C31016270   4.775   1.009   9.236 -0.1513 -0.7253 -0.4855
  147SAPE  H10X16271   4.668   1.038   9.238 -0.5525 -2.1058  1.6411
  147SAPE  H10Y16272   4.780   0.898   9.239  1.6712 -0.6931 -1.2699
  147SAPE  C31116273   4.837   1.074   9.103 -0.2716 -0.3858 -1.2233
  147SAPE  H11X16274   4.946   1.055   9.097  0.1669  1.3801  0.2845
  147SAPE  H11Y16275   4.827   1.183   9.123  0.0103 -0.6543  0.5675
  147SAPE  C31216276   4.766   1.019   8.979  0.0711 -0.2718  0.4998
  147SAPE  H12X16277   4.656   1.028   8.986  0.2726  2.3576  1.3982
  147SAPE  H12Y16278   4.798   0.913   8.967 -0.6458 -0.3487 -0.9538
  147SAPE  C31316279   4.799   1.089   8.846 -0.3815  0.6854 -0.1836
  147SAPE  H13X16280   4.900   1.134   8.843 -0.4171  0.7886  0.1366
  147SAPE  H13Y16281   4.730   1.176   8.845 -0.3750  0.7781  2.0246
  147SAPE  C31416282   4.770   1.000   8.724  0.6970  0.3909  0.3243
  147SAPE  H14X16283   4.668   0.961   8.742  0.5094  0.9746  0.5514
  147SAPE  H14Y16284   4.828   0.905   8.716 -1.4587 -0.9722  0.1492
  147SAPE  C31516285   4.767   1.078   8.588 -0.6256 -0.0736 -0.7896
  147SAPE  H15X16286   4.705   1.169   8.598 -1.2529 -0.6510  1.0000
  147SAPE  H15Y16287   4.736   1.013   8.504 -0.9987 -0.6604 -0.2147
  147SAPE  C31616288   4.899   1.136   8.564  0.0177  0.3095 -0.1938
  147SAPE  H16X16289   4.932   1.210   8.640 -2.6445  0.0768  1.3463
  147SAPE  H16Y16290   4.890   1.211   8.483 -0.6866 -0.1263 -0.5297
  147SAPE  C31716291   5.016   1.049   8.538 -0.8006  0.3939  0.5815
  147SAPE  H17X16292   4.994   0.970   8.462  3.3213  1.5791 -2.1738
  147SAPE  H17Y16293   5.043   0.991   8.629  2.1727 -0.3967 -0.6959
  147SAPE  C31816294   5.140   1.133   8.482  0.2994 -0.1420  0.3803
  147SAPE  H18X16295   5.114   1.198   8.395  5.3405  3.8075  1.3276
  147SAPE  H18Y16296   5.220   1.060   8.460  0.7648  0.6214 -0.5841
  147SAPE  H18Z16297   5.185   1.202   8.557  3.6729  0.4939 -1.9883
  148SAPE     N16298   1.510   1.660  10.718 -0.5122  0.0400 -0.4502
  148SAPE   HN116299   1.522   1.625  10.621 -1.2279  0.0827 -0.5559
  148SAPE   HN216300   1.610   1.677  10.743 -0.1198 -1.1431 -1.0808
  148SAPE   HN316301   1.472   1.586  10.780  0.6390 -0.4678 -0.3111
  148SAPE   C1216302   1.433   1.791  10.711 -0.4910  0.0439  0.2803
  148SAPE  H12A16303   1.490   1.862  10.647 -0.1237 -1.3612 -1.0307
  148SAPE  H12B16304   1.416   1.829  10.814 -1.7640 -0.8085  0.4093
  148SAPE   C1116305   1.286   1.760  10.664  0.0657  0.0722  0.7723
  148SAPE  H11A16306   1.305   1.709  10.568  0.6297  2.8251 -0.6906
  148SAPE  H11B16307   1.226   1.849  10.634 -1.0874 -1.0265 -0.2556
  148SAPE     P16308   1.148   1.542  10.721 -0.3821  0.6528  0.7058
  148SAPE   O1316309   1.253   1.442  10.707 -0.2706  0.1549 -0.3349
  148SAPE   O1416310   1.039   1.509  10.816  0.0899  0.4448 -0.3224
  148SAPE   O1216311   1.212   1.685  10.758 -0.6637  0.8821 -0.1687
  148SAPE   O1116312   1.089   1.565  10.576  0.2567 -0.0606 -0.0749
  148SAPE    C116313   0.975   1.646  10.572 -0.1251 -0.1256 -0.5396
  148SAPE    HA16314   0.898   1.581  10.618  0.2053 -0.6076 -0.6491
  148SAPE    HB16315   0.976   1.735  10.638  0.9945 -0.2995 -0.3030
  148SAPE    C216316   0.942   1.672  10.420 -0.0713 -0.3189 -0.8799
  148SAPE    HS16317   0.846   1.728  10.426 -0.1707 -0.6458  3.3501
  148SAPE   O2116318   0.934   1.557  10.335  0.2118  0.3786 -0.0153
  148SAPE   C2116319   0.833   1.488  10.365 -0.0794 -0.5335  0.0747
  148SAPE   O2216320   0.740   1.514  10.441 -0.2045 -0.4275  0.2321
  148SAPE   C2216321   0.833   1.361  10.281 -0.6392 -0.1569 -0.9107
  148SAPE   H2R16322   0.881   1.285  10.347 -0.6253  1.0080  0.4755
  148SAPE   H2S16323   0.725   1.340  10.261 -1.2179 -0.8647  2.3935
  148SAPE    C316324   1.033   1.777  10.355  0.2987 -0.2406  0.1070
  148SAPE    HX16325   1.136   1.746  10.384  0.7270  2.8700  2.4368
  148SAPE    HY16326   1.006   1.875  10.399 -1.8705 -0.1021 -1.3601
  148SAPE   O3116327   1.012   1.789  10.213 -0.0269  0.3715  0.1341
  148SAPE   C3116328   1.092   1.724  10.131 -0.2341  0.1090 -0.2203
  148SAPE   O3216329   1.175   1.646  10.174  0.8791  0.4197  0.5738
  148SAPE   C3216330   1.046   1.747   9.985 -0.0501  0.1068  0.3440
  148SAPE   H2X16331   0.993   1.843   9.973  0.0966  0.0524 -0.8409
  148SAPE   H2Y16332   0.971   1.670   9.957  0.4563 -0.3555  0.2284
  148SAPE   C2316333   0.924   1.371  10.150  0.5217  0.3383  0.1580
  148SAPE   H3R16334   1.032   1.374  10.175  0.9465  1.3545 -1.5629
  148SAPE   H3S16335   0.900   1.467  10.099 -0.7183 -0.6895 -1.2646
  148SAPE   C2416336   0.890   1.260  10.052  0.2708 -0.5206 -0.2750
  148SAPE   H4R16337   0.780   1.274  10.041  0.6351  1.5587 -1.8290
  148SAPE   H4S16338   0.917   1.163  10.098  0.9577  0.2865  1.0838
  148SAPE   C2516339   0.970   1.276   9.926 -0.0956 -0.3354  0.2540
  148SAPE   H5R16340   1.079   1.261   9.935 -0.2164 -1.3216  0.2456
  148SAPE   C2616341   0.914   1.299   9.805 -0.1296  0.1022  0.2287
  148SAPE   H6R16342   0.988   1.320   9.727 -0.3663  0.1083  0.0031
  148SAPE   C2716343   0.773   1.314   9.764 -0.0476  0.4663 -0.2970
  148SAPE   H7R16344   0.753   1.411   9.714  0.2647  0.2194 -0.9043
  148SAPE   H7S16345   0.702   1.311   9.850 -0.6126 -0.4696 -0.7753
  148SAPE   C2816346   0.731   1.201   9.673  1.1564  0.5144  0.3770
  148SAPE   H8R16347   0.693   1.121   9.737 -0.2110  0.5940 -0.2767
  148SAPE   C2916348   0.733   1.200   9.537 -0.1466  1.1187  0.0451
  148SAPE   H9R16349   0.691   1.106   9.498 -1.8730 -0.8184  5.5419
  148SAPE  C21016350   0.786   1.308   9.442 -0.0463  0.3964  0.0089
  148SAPE  H10R16351   0.792   1.411   9.484 -1.4670  1.1563 -1.4983
  148SAPE  H10S16352   0.711   1.308   9.359 -0.5056 -1.4083  0.3860
  148SAPE  C21116353   0.918   1.254   9.395 -0.0525 -0.9323  0.1805
  148SAPE  H11R16354   0.978   1.205   9.473 -0.0733 -1.3826 -0.0852
  148SAPE  C21216355   0.953   1.237   9.266 -0.5351 -0.2553  0.8349
  148SAPE  H12R16356   1.049   1.187   9.246  1.9803  4.3868 -0.0291
  148SAPE  C21316357   0.860   1.262   9.144  0.4075 -0.2579  0.0075
  148SAPE  H13R16358   0.770   1.199   9.167 -2.2330  3.1474 -0.1867
  148SAPE  H13S16359   0.896   1.215   9.050 -0.0943 -1.5615  0.4380
  148SAPE  C21416360   0.808   1.406   9.126  0.5071  1.0514  0.1194
  148SAPE  H14R16361   0.836   1.476   9.206  2.3241  1.3030 -0.6746
  148SAPE  C21516362   0.743   1.456   9.015 -0.1010  0.0845  0.1111
  148SAPE  H15R16363   0.723   1.564   9.009 -0.3271 -0.0014 -0.8148
  148SAPE  C21616364   0.715   1.375   8.891  0.0841  0.6417  0.3225
  148SAPE  H16R16365   0.612   1.337   8.903 -0.4007  2.0726  0.8444
  148SAPE  H16S16366   0.782   1.288   8.875 -0.5948  0.0032  0.8823
  148SAPE  C21716367   0.724   1.471   8.767 -0.4613  0.3986 -0.2594
  148SAPE  H17R16368   0.649   1.552   8.773 -0.7045  0.4389 -2.7600
  148SAPE  H17S16369   0.695   1.416   8.675  2.9313  0.5032 -1.5471
  148SAPE  C21816370   0.860   1.531   8.736  1.1371 -0.3150 -0.2519
  148SAPE  H18R16371   0.942   1.456   8.744  0.8146 -1.0498 -2.8053
  148SAPE  H18S16372   0.880   1.605   8.816 -1.5312 -0.3258  0.5307
  148SAPE  C21916373   0.869   1.603   8.601  0.0519 -0.7254  0.8910
  148SAPE  H19R16374   0.926   1.697   8.615 -1.8690  0.4271  1.4130
  148SAPE  H19S16375   0.764   1.636   8.584 -0.4306 -1.2857  2.6048
  148SAPE  C22016376   0.918   1.520   8.485 -0.6272  0.3041 -0.4669
  148SAPE  H20R16377   0.856   1.428   8.473  2.4742 -2.0860  0.6259
  148SAPE  H20S16378   1.018   1.483   8.515 -1.0116 -1.9121 -1.7032
  148SAPE  H20T16379   0.921   1.574   8.388 -1.5129 -2.0815 -1.9186
  148SAPE   C3316380   1.166   1.746   9.880  0.2062  0.1487  0.5893
  148SAPE   H3X16381   1.236   1.663   9.904  1.0789  1.4686  2.8873
  148SAPE   H3Y16382   1.236   1.829   9.903  0.9257 -0.0375 -0.8140
  148SAPE   C3416383   1.113   1.755   9.737  0.1482 -0.3200  0.0113
  148SAPE   H4X16384   1.201   1.774   9.672 -0.5528  4.2030  0.0780
  148SAPE   H4Y16385   1.037   1.835   9.729  1.6601  1.2033  0.4596
  148SAPE   C3516386   1.046   1.629   9.687 -0.1751  0.3711 -0.2648
  148SAPE   H5X16387   0.962   1.609   9.757  0.8205  1.7390  1.4011
  148SAPE   H5Y16388   1.116   1.544   9.705 -1.3842 -0.7019 -0.5366
  148SAPE   C3616389   0.990   1.645   9.551  0.0316  0.0898 -0.0400
  148SAPE   H6X16390   0.926   1.735   9.545 -3.4156 -2.0251  1.7682
  148SAPE   H6Y16391   0.925   1.558   9.527 -1.8418  1.6438 -0.8478
  148SAPE   C3716392   1.104   1.647   9.446 -0.2364 -0.1688 -0.0977
  148SAPE   H7X16393   1.161   1.551   9.445 -0.1726 -0.1289 -0.5669
  148SAPE   H7Y16394   1.157   1.741   9.472 -2.4269  0.3265  3.2854
  148SAPE   C3816395   1.060   1.655   9.300  0.1419 -0.0043  0.8205
  148SAPE   H8X16396   0.963   1.710   9.293  0.3152  0.3566  1.2505
  148SAPE   H8Y16397   1.040   1.550   9.270  1.9300 -0.2127  0.3046
  148SAPE   C3916398   1.164   1.713   9.210 -0.2475  0.4139  0.1017
  148SAPE   H9X16399   1.252   1.651   9.237 -0.8982 -0.6719 -0.2156
  148SAPE   H9Y16400   1.185   1.822   9.216 -0.8886  0.4848  1.8289
  148SAPE  C31016401   1.131   1.681   9.062 -0.6080 -0.1795 -0.8998
  148SAPE  H10X16402   1.123   1.775   9.004 -0.9981  2.2384  2.7432
  148SAPE  H10Y16403   1.029   1.638   9.060 -2.0814  3.0105 -0.2424
  148SAPE  C31116404   1.225   1.586   8.989 -0.1456 -0.3393 -0.3909
  148SAPE  H11X16405   1.178   1.581   8.888 -1.0826 -0.1165  0.0219
  148SAPE  H11Y16406   1.233   1.483   9.031  2.1599  0.2559  0.7784
  148SAPE  C31216407   1.372   1.634   8.970  0.0666  0.2845  0.0727
  148SAPE  H12X16408   1.419   1.645   9.070 -2.2009 -0.5218  1.2910
  148SAPE  H12Y16409   1.368   1.736   8.926  0.1036 -0.2384 -1.1966
  148SAPE  C31316410   1.464   1.552   8.875  0.0179 -0.0199 -0.0130
  148SAPE  H13X16411   1.544   1.626   8.852 -0.7714  0.7950 -0.1933
  148SAPE  H13Y16412   1.417   1.526   8.778  0.9987 -2.3270  0.0659
  148SAPE  C31416413   1.517   1.425   8.947 -0.2748 -0.6618  0.0421
  148SAPE  H14X16414   1.432   1.353   8.955 -1.0052  0.1849  0.0910
  148SAPE  H14Y16415   1.545   1.456   9.050  0.7696  0.6163 -0.5924
  148SAPE  C31516416   1.631   1.350   8.883  0.2192 -0.2829  0.0399
  148SAPE  H15X16417   1.671   1.277   8.958  0.6774  0.4936  0.5722
  148SAPE  H15Y16418   1.709   1.424   8.855  0.2837 -0.4073 -0.1141
  148SAPE  C31616419   1.595   1.290   8.750 -0.1210  0.2662  0.5373
  148SAPE  H16X16420   1.577   1.366   8.671  1.5609  0.4069  0.2395
  148SAPE  H16Y16421   1.503   1.227   8.751  0.3182 -0.3889  1.8187
  148SAPE  C31716422   1.703   1.195   8.699  0.2503 -0.5175  0.0676
  148SAPE  H17X16423   1.687   1.099   8.754  0.7789 -0.3487  0.5333
  148SAPE  H17Y16424   1.805   1.238   8.704  0.0634  0.0947 -1.1576
  148SAPE  C31816425   1.688   1.151   8.549 -0.0052  0.2017 -0.8098
  148SAPE  H18X16426   1.788   1.120   8.512  0.2782 -1.6572  1.3235
  148SAPE  H18Y16427   1.652   1.237   8.488  0.8208  0.2455 -1.2514
  148SAPE  H18Z16428   1.616   1.070   8.523  1.8965 -1.4250 -1.2232
  149SAPE     N16429   1.690   4.478  11.051  0.3050 -0.2800  0.5511
  149SAPE   HN116430   1.652   4.406  10.986 -0.0311 -0.3704  0.8445
  149SAPE   HN216431   1.691   4.415  11.135 -0.9331 -3.9327 -1.9376
  149SAPE   HN316432   1.622   4.555  11.066  0.0097 -0.3902 -0.1784
  149SAPE   C1216433   1.827   4.517  10.995  0.1009 -0.4248  0.1948
  149SAPE  H12A16434   1.898   4.441  11.033  0.3745 -0.0069  0.5287
  149SAPE  H12B16435   1.855   4.612  11.045 -0.5883  0.0597 -0.3154
  149SAPE   C1116436   1.825   4.539  10.850 -0.3072  0.0690  0.5063
  149SAPE  H11A16437   1.737   4.598  10.814  0.7433  0.3886 -1.7127
  149SAPE  H11B16438   1.815   4.444  10.794 -0.9227 -0.3420  1.2910
  149SAPE     P16439   2.053   4.552  10.724 -0.2238  0.3628 -0.0020
  149SAPE   O1316440   2.178   4.633  10.716  0.4243  0.1380  0.5315
  149SAPE   O1416441   2.068   4.417  10.786  0.2936  0.3110 -0.4625
  149SAPE   O1216442   1.937   4.624  10.799  0.3400  0.2559 -0.1843
  149SAPE   O1116443   1.992   4.537  10.582  0.3279  0.5015  0.4550
  149SAPE    C116444   1.927   4.643  10.518 -0.0457  0.2540 -0.2424
  149SAPE    HA16445   1.833   4.667  10.572  0.9723 -0.2246  1.8338
  149SAPE    HB16446   1.987   4.736  10.517 -0.9713  0.8642 -0.7007
  149SAPE    C216447   1.900   4.616  10.368 -0.4925 -0.0105  0.3467
  149SAPE    HS16448   1.919   4.717  10.325  2.6343 -0.2965  0.8871
  149SAPE   O2116449   1.772   4.566  10.340  0.1540 -0.8731 -0.2991
  149SAPE   C2116450   1.676   4.660  10.346  0.1214 -0.0214 -0.2153
  149SAPE   O2216451   1.686   4.776  10.368 -0.2352  0.2702  0.0773
  149SAPE   C2216452   1.544   4.601  10.310  0.0480  0.1910 -0.2305
  149SAPE   H2R16453   1.488   4.569  10.400 -1.7332 -0.5770 -1.5467
  149SAPE   H2S16454   1.474   4.677  10.268 -0.7052  0.4571  1.4305
  149SAPE    C316455   2.004   4.517  10.298  0.4923 -0.4891  0.1689
  149SAPE    HX16456   1.982   4.417  10.340 -1.5542  0.4047  1.3616
  149SAPE    HY16457   2.108   4.542  10.329  0.2177  0.5588  0.2885
  149SAPE   O3116458   1.991   4.531  10.154 -0.3114 -0.2864 -0.2325
  149SAPE   C3116459   1.926   4.441  10.086 -0.4823  0.6306  0.3668
  149SAPE   O3216460   1.881   4.336  10.125  0.2959  0.1264  0.0860
  149SAPE   C3216461   1.915   4.479   9.942 -0.4635 -0.3250 -0.0797
  149SAPE   H2X16462   1.815   4.526   9.927 -0.7875 -1.1528 -0.6104
  149SAPE   H2Y16463   1.902   4.383   9.888  0.1291 -0.0715 -0.6925
  149SAPE   C2316464   1.549   4.476  10.220  0.0414 -0.4807  0.5184
  149SAPE   H3R16465   1.455   4.418  10.237 -0.7136  1.2155  2.4625
  149SAPE   H3S16466   1.642   4.419  10.241  1.1144  1.4405  1.1342
  149SAPE   C2416467   1.563   4.530  10.074 -0.6557 -0.2186  0.5175
  149SAPE   H4R16468   1.619   4.451  10.019 -0.2483 -0.7383  1.6292
  149SAPE   H4S16469   1.635   4.612  10.089  1.6374 -2.1780  0.8616
  149SAPE   C2516470   1.426   4.578  10.023 -0.1184  0.2605 -0.2424
  149SAPE   H5R16471   1.352   4.584  10.105 -1.3339 -0.7867 -1.2173
  149SAPE   C2616472   1.393   4.597   9.896  0.3442 -0.3756 -0.5436
  149SAPE   H6R16473   1.287   4.618   9.872 -0.0222  0.3869  1.5051
  149SAPE   C2716474   1.476   4.587   9.774 -1.0529 -0.1401  1.0117
  149SAPE   H7R16475   1.563   4.653   9.794 -1.8878  0.4835  2.8295
  149SAPE   H7S16476   1.414   4.644   9.701 -1.1720  0.6218  1.6864
  149SAPE   C2816477   1.509   4.456   9.713  0.8502  0.3343  0.3741
  149SAPE   H8R16478   1.462   4.369   9.760  0.2170  0.5845  0.2094
  149SAPE   C2916479   1.566   4.434   9.599  0.6645  0.8502  0.3261
  149SAPE   H9R16480   1.590   4.332   9.566  0.5564  0.7523  0.5458
  149SAPE  C21016481   1.611   4.538   9.495 -0.4973  0.2051  0.1808
  149SAPE  H10R16482   1.714   4.502   9.476 -1.2940 -2.4858  0.5368
  149SAPE  H10S16483   1.628   4.639   9.539 -1.5551  0.4444  0.0808
  149SAPE  C21116484   1.525   4.551   9.374  0.8006  0.1011 -0.0660
  149SAPE  H11R16485   1.447   4.627   9.379 -0.5078 -1.1963 -0.0051
  149SAPE  C21216486   1.540   4.486   9.259  0.5852  0.6091  0.1354
  149SAPE  H12R16487   1.459   4.504   9.187  0.2535 -1.1997 -0.0009
  149SAPE  C21316488   1.645   4.384   9.209 -0.5309  0.2225 -0.0943
  149SAPE  H13R16489   1.601   4.294   9.161  0.6167 -0.7389  0.5987
  149SAPE  H13S16490   1.697   4.339   9.296  0.2270 -0.9288 -1.1135
  149SAPE  C21416491   1.740   4.448   9.117  0.3657 -0.7740 -0.0623
  149SAPE  H14R16492   1.815   4.515   9.161 -1.5533  1.4697  0.0089
  149SAPE  C21516493   1.732   4.445   8.985  0.0639  0.0124 -0.2490
  149SAPE  H15R16494   1.804   4.502   8.924  2.2729  0.4589  2.5930
  149SAPE  C21616495   1.626   4.383   8.905 -0.1476  1.0143 -0.4997
  149SAPE  H16R16496   1.548   4.331   8.965 -0.0084  1.3474 -0.0267
  149SAPE  H16S16497   1.665   4.304   8.839 -2.7800  0.0488 -1.0327
  149SAPE  C21716498   1.555   4.486   8.809  0.2131  0.6581 -0.0877
  149SAPE  H17R16499   1.505   4.432   8.725  0.9903 -0.5205  0.1805
  149SAPE  H17S16500   1.631   4.555   8.767  1.5908 -0.5929  0.2468
  149SAPE  C21816501   1.439   4.570   8.878 -0.5839 -0.1141  0.3576
  149SAPE  H18R16502   1.473   4.606   8.978 -0.6356 -1.5997  0.9378
  149SAPE  H18S16503   1.359   4.498   8.904  1.1471 -2.1978  0.1592
  149SAPE  C21916504   1.378   4.672   8.778  0.1496 -0.0120  0.4806
  149SAPE  H19R16505   1.371   4.611   8.686 -0.5110 -0.6848  0.9604
  149SAPE  H19S16506   1.436   4.766   8.766 -0.6704  0.6132  1.2740
  149SAPE  C22016507   1.234   4.706   8.819  0.6196 -0.2966 -0.0491
  149SAPE  H20R16508   1.203   4.792   8.755 -1.4799 -0.3498  0.8345
  149SAPE  H20S16509   1.231   4.743   8.923 -0.7504  2.2712 -0.9039
  149SAPE  H20T16510   1.164   4.620   8.812 -1.0760  1.0351 -0.1830
  149SAPE   C3316511   2.033   4.560   9.883 -0.1060 -0.5524  0.5711
  149SAPE   H3X16512   2.130   4.512   9.910 -1.0089 -1.6617  1.9536
  149SAPE   H3Y16513   2.045   4.665   9.918  0.4118 -0.3131 -0.2870
  149SAPE   C3416514   2.021   4.575   9.729  0.0505 -0.5241  0.1065
  149SAPE   H4X16515   2.123   4.610   9.702 -0.2646  1.0633  0.8335
  149SAPE   H4Y16516   1.951   4.659   9.708  1.2749  0.9236  1.5793
  149SAPE   C3516517   1.978   4.450   9.646 -0.2846  0.5475  0.1870
  149SAPE   H5X16518   1.868   4.447   9.630 -0.4688 -0.0084  1.4551
  149SAPE   H5Y16519   2.014   4.354   9.689 -0.4090  0.5620  0.3260
  149SAPE   C3616520   2.040   4.441   9.502 -0.1509  0.0063  0.3454
  149SAPE   H6X16521   1.996   4.356   9.445  0.3970 -0.1788  0.1997
  149SAPE   H6Y16522   2.147   4.417   9.514  0.1397  1.2615  0.4460
  149SAPE   C3716523   2.011   4.572   9.424 -0.4562  0.2406  0.2561
  149SAPE   H7X16524   2.065   4.658   9.469 -3.3441  1.8974  0.8056
  149SAPE   H7Y16525   1.907   4.606   9.407 -0.2728  0.8920  0.3937
  149SAPE   C3816526   2.068   4.550   9.286 -0.2505  0.2486  0.4288
  149SAPE   H8X16527   1.993   4.492   9.229 -1.6032  0.9972  1.3696
  149SAPE   H8Y16528   2.162   4.493   9.299 -0.5772 -0.4748 -0.2744
  149SAPE   C3916529   2.085   4.684   9.208  0.7448  0.7016  0.7545
  149SAPE   H9X16530   2.159   4.751   9.257 -0.2288  0.9509  1.9177
  149SAPE   H9Y16531   1.999   4.753   9.214  1.0371  0.9542  2.4408
  149SAPE  C31016532   2.121   4.655   9.056 -0.2770  0.3863 -0.2886
  149SAPE  H10X16533   2.023   4.661   9.004  0.1661  3.6749 -0.9326
  149SAPE  H10Y16534   2.160   4.551   9.059  4.9101  2.0395  0.7403
  149SAPE  C31116535   2.235   4.741   8.991  0.3851 -0.1741 -0.1890
  149SAPE  H11X16536   2.327   4.709   9.044  0.8335  0.9888 -0.2266
  149SAPE  H11Y16537   2.222   4.848   9.016  0.3269 -0.1213 -0.4333
  149SAPE  C31216538   2.255   4.749   8.838  0.1946  0.5651 -0.1899
  149SAPE  H12X16539   2.295   4.650   8.809  0.9707  0.7889  0.0934
  149SAPE  H12Y16540   2.345   4.812   8.826 -0.0203  1.3682  1.9308
  149SAPE  C31316541   2.132   4.763   8.745 -0.2845 -0.1109 -0.3599
  149SAPE  H13X16542   2.089   4.861   8.775 -0.9552 -0.6381  0.4361
  149SAPE  H13Y16543   2.056   4.690   8.779  3.0882 -1.8693  4.4961
  149SAPE  C31416544   2.159   4.752   8.594  0.0578  0.0157 -0.2809
  149SAPE  H14X16545   2.181   4.645   8.574 -0.5716 -0.1331 -0.1844
  149SAPE  H14Y16546   2.246   4.817   8.572 -1.2991  3.0045  2.3551
  149SAPE  C31516547   2.039   4.770   8.508 -0.2203  0.5781  0.2030
  149SAPE  H15X16548   1.985   4.867   8.514  0.7164  1.0770  0.6781
  149SAPE  H15Y16549   1.970   4.687   8.535  0.4165 -0.0377 -0.0259
  149SAPE  C31616550   2.059   4.725   8.366  0.7902  0.3989  0.4777
  149SAPE  H16X16551   2.099   4.622   8.355 -1.0692 -0.2099 -1.4409
  149SAPE  H16Y16552   2.126   4.805   8.330  0.1474  0.7139 -0.0472
  149SAPE  C31716553   1.926   4.743   8.287 -0.2568  0.1035  0.2085
  149SAPE  H17X16554   1.952   4.776   8.185  0.1929 -0.2066  0.2204
  149SAPE  H17Y16555   1.861   4.828   8.316 -0.8876  0.4060 -1.9457
  149SAPE  C31816556   1.840   4.614   8.290  0.4822 -0.6247  0.1284
  149SAPE  H18X16557   1.893   4.533   8.236  2.0543  1.5148 -1.6869
  149SAPE  H18Y16558   1.748   4.650   8.239  0.9807  0.0447 -0.3099
  149SAPE  H18Z16559   1.824   4.578   8.394 -0.4311  0.1280  0.2660
  150SAPE     N16560   3.820   3.305  10.671  0.2748  0.2296  0.2452
  150SAPE   HN116561   3.784   3.208  10.656  0.5164  0.0020  1.0454
  150SAPE   HN216562   3.892   3.301  10.746  2.0002 -0.5572 -1.3611
  150SAPE   HN316563   3.745   3.375  10.688 -1.0657 -1.0296 -0.2677
  150SAPE   C1216564   3.904   3.357  10.567  0.2975  0.7406  0.1243
  150SAPE  H12A16565   3.930   3.459  10.601  0.0248  0.3646  1.5143
  150SAPE  H12B16566   3.853   3.343  10.469 -2.3845  2.4573  1.1566
  150SAPE   C1116567   4.039   3.280  10.564  0.2414  0.4913 -0.5664
  150SAPE  H11A16568   4.093   3.316  10.473  0.5714  0.7395 -0.2775
  150SAPE  H11B16569   4.018   3.172  10.545 -1.7591  0.7170  0.1354
  150SAPE     P16570   4.239   3.391  10.697  0.0747  0.1861  0.5012
  150SAPE   O1316571   4.204   3.535  10.666  0.1922  0.4828 -0.3075
  150SAPE   O1416572   4.292   3.372  10.838  0.4785  0.4722  0.7417
  150SAPE   O1216573   4.111   3.293  10.684  0.6189 -0.8951 -0.0786
  150SAPE   O1116574   4.343   3.335  10.602 -1.0723 -0.8582  0.0479
  150SAPE    C116575   4.349   3.186  10.605 -0.5638 -0.5732  0.1476
  150SAPE    HA16576   4.403   3.155  10.696 -0.4439  0.3446  0.4000
  150SAPE    HB16577   4.252   3.132  10.599  0.3239 -2.2081 -0.1964
  150SAPE    C216578   4.417   3.124  10.481 -0.8049 -0.4170 -0.0346
  150SAPE    HS16579   4.527   3.142  10.486 -0.8730  0.1855 -0.5816
  150SAPE   O2116580   4.353   3.179  10.363  0.2399  0.0568 -0.3122
  150SAPE   C2116581   4.441   3.192  10.257 -0.2880 -0.0312 -0.3394
  150SAPE   O2216582   4.556   3.149  10.254 -0.4537  0.0653 -0.4812
  150SAPE   C2216583   4.370   3.256  10.132  0.0759  0.0168 -0.6589
  150SAPE   H2R16584   4.454   3.287  10.066  0.5875 -0.8021 -0.4037
  150SAPE   H2S16585   4.300   3.181  10.090 -1.6474  0.3282  1.4792
  150SAPE    C316586   4.402   2.968  10.505 -0.5517 -0.5956 -0.3659
  150SAPE    HX16587   4.300   2.941  10.537 -0.0861 -1.3227  0.5550
  150SAPE    HY16588   4.479   2.934  10.578 -0.5670  0.5366  0.2033
  150SAPE   O3116589   4.432   2.901  10.385 -0.1829  0.0500 -0.1894
  150SAPE   C3116590   4.440   2.771  10.392 -0.0903  0.8140  0.3996
  150SAPE   O3216591   4.402   2.699  10.481  0.0826 -0.2825  0.3040
  150SAPE   C3216592   4.500   2.722  10.261  0.2663  0.3341  0.8330
  150SAPE   H2X16593   4.557   2.630  10.288  3.0508  2.0807  1.3729
  150SAPE   H2Y16594   4.584   2.791  10.237  0.3906  0.0957  0.5732
  150SAPE   C2316595   4.301   3.385  10.165 -0.3743 -0.0875  0.5526
  150SAPE   H3R16596   4.373   3.462  10.200  0.0899 -0.4836  0.4603
  150SAPE   H3S16597   4.217   3.368  10.237 -0.8428  1.8686  0.5335
  150SAPE   C2416598   4.226   3.456  10.042  0.1123 -0.1519 -0.1426
  150SAPE   H4R16599   4.303   3.468   9.963 -0.4911  0.4246 -0.6505
  150SAPE   H4S16600   4.207   3.562  10.068  2.1310  0.1316  0.3894
  150SAPE   C2516601   4.094   3.398   9.999  0.7116  0.4667 -0.5227
  150SAPE   H5R16602   4.012   3.423  10.068  2.4422  1.4873  1.2508
  150SAPE   C2616603   4.069   3.326   9.891 -0.0648 -0.2061 -0.4871
  150SAPE   H6R16604   3.963   3.304   9.874  0.0395  0.1284 -1.6389
  150SAPE   C2716605   4.172   3.282   9.791 -0.2711  0.1202 -0.1053
  150SAPE   H7R16606   4.275   3.274   9.832  1.5612 -0.7754 -4.3546
  150SAPE   H7S16607   4.186   3.354   9.708  2.9477 -0.1072  0.1269
  150SAPE   C2816608   4.142   3.150   9.725 -0.7360  0.2308  0.3480
  150SAPE   H8R16609   4.131   3.069   9.799 -1.4230 -1.2524 -1.3062
  150SAPE   C2916610   4.123   3.120   9.595 -0.2992 -0.0934 -0.2568
  150SAPE   H9R16611   4.127   3.017   9.557  1.3609  0.2309 -1.0431
  150SAPE  C21016612   4.117   3.230   9.485 -0.0842  0.3086  0.0302
  150SAPE  H10R16613   4.217   3.275   9.472 -0.0649 -0.1938 -1.9323
  150SAPE  H10S16614   4.040   3.305   9.513 -0.2752  0.2836 -0.4181
  150SAPE  C21116615   4.076   3.171   9.353 -0.3018  0.2346  0.1223
  150SAPE  H11R16616   3.967   3.183   9.338 -0.2285  0.7795  0.0188
  150SAPE  C21216617   4.150   3.100   9.268  0.3727  0.4246  0.1401
  150SAPE  H12R16618   4.096   3.047   9.189 -0.4624  0.6091  0.5749
  150SAPE  C21316619   4.291   3.060   9.285  0.4167 -0.6259 -0.1554
  150SAPE  H13R16620   4.337   3.111   9.372  0.0474  0.4208 -0.5563
  150SAPE  H13S16621   4.340   3.108   9.197  2.3005  1.0981  1.7065
  150SAPE  C21416622   4.317   2.912   9.280 -0.2655  0.0159 -0.1505
  150SAPE  H14R16623   4.299   2.861   9.376 -2.2446  0.3794 -0.2905
  150SAPE  C21516624   4.337   2.847   9.168 -0.0187  0.3432  0.3946
  150SAPE  H15R16625   4.365   2.741   9.179 -2.1602 -0.7411 -2.9783
  150SAPE  C21616626   4.346   2.908   9.031  0.8899  0.8891 -0.1952
  150SAPE  H16R16627   4.454   2.905   9.005  1.6926 -2.9764  2.7587
  150SAPE  H16S16628   4.313   3.014   9.019  1.4585  0.9757 -1.0651
  150SAPE  C21716629   4.264   2.844   8.916  0.0164  0.2525 -0.2594
  150SAPE  H17R16630   4.286   2.881   8.814  1.6976 -0.8216 -0.3371
  150SAPE  H17S16631   4.157   2.859   8.941  0.0932 -2.6813  2.5896
  150SAPE  C21816632   4.248   2.694   8.906 -0.1569  0.4855  0.3065
  150SAPE  H18R16633   4.171   2.665   8.832  1.4459  0.9117 -1.6021
  150SAPE  H18S16634   4.201   2.653   8.998  0.2099  1.6862  1.0420
  150SAPE  C21916635   4.378   2.620   8.883 -0.1800 -0.0320 -0.5693
  150SAPE  H19R16636   4.367   2.515   8.919  1.0911 -0.6372 -1.8506
  150SAPE  H19S16637   4.460   2.669   8.941 -1.3452  0.6613  0.5462
  150SAPE  C22016638   4.408   2.614   8.731 -0.3215  0.3256 -0.0858
  150SAPE  H20R16639   4.424   2.719   8.697  2.7700  0.8766  2.6594
  150SAPE  H20S16640   4.324   2.571   8.672 -0.1916  0.4212 -0.3427
  150SAPE  H20T16641   4.503   2.559   8.717 -1.2119 -1.6330  1.2060
  150SAPE   C3316642   4.391   2.721  10.146 -0.3568 -0.1500 -0.2359
  150SAPE   H3X16643   4.324   2.810  10.140 -1.1378 -0.7166 -0.0221
  150SAPE   H3Y16644   4.329   2.634  10.174 -0.5278 -0.1778 -0.6903
  150SAPE   C3416645   4.453   2.704  10.011  0.1797 -0.0318  0.2820
  150SAPE   H4X16646   4.388   2.632   9.957  0.7424 -1.8854  1.9617
  150SAPE   H4Y16647   4.550   2.650  10.004  1.3808  2.1370 -0.7878
  150SAPE   C3516648   4.471   2.826   9.920 -0.3106 -0.5792 -0.4298
  150SAPE   H5X16649   4.581   2.834   9.913 -0.3873 -0.7575 -3.0173
  150SAPE   H5Y16650   4.430   2.922   9.959  0.3169 -0.5496  0.1753
  150SAPE   C3616651   4.425   2.810   9.773  0.2699  0.7625  0.0468
  150SAPE   H6X16652   4.431   2.904   9.713  1.4995 -0.6275 -2.1428
  150SAPE   H6Y16653   4.319   2.779   9.774  0.2040  0.9126  2.5248
  150SAPE   C3716654   4.507   2.696   9.711 -0.4633  0.1459  1.1745
  150SAPE   H7X16655   4.473   2.598   9.750 -0.8915  0.1570  0.8327
  150SAPE   H7Y16656   4.613   2.707   9.743 -0.0599 -0.4180  0.0719
  150SAPE   C3816657   4.497   2.693   9.560  0.0796 -0.3400  0.3974
  150SAPE   H8X16658   4.543   2.790   9.532 -1.4377 -0.2254 -1.9150
  150SAPE   H8Y16659   4.388   2.703   9.540  0.3194  1.5233 -0.2056
  150SAPE   C3916660   4.554   2.576   9.483  0.1446 -0.6664 -0.0140
  150SAPE   H9X16661   4.511   2.479   9.516  0.9957 -1.8834 -2.2568
  150SAPE   H9Y16662   4.664   2.570   9.499 -0.1182 -0.8668  2.0387
  150SAPE  C31016663   4.529   2.593   9.332 -0.2972 -0.1293 -0.2940
  150SAPE  H10X16664   4.566   2.695   9.306 -1.7169  0.1472 -1.3658
  150SAPE  H10Y16665   4.423   2.574   9.305 -0.8483 -0.5557  1.9633
  150SAPE  C31116666   4.624   2.497   9.252 -0.3512  0.3537  0.0682
  150SAPE  H11X16667   4.609   2.398   9.300  2.0459 -0.8388 -1.4572
  150SAPE  H11Y16668   4.732   2.518   9.261  0.0113 -0.2647 -2.3232
  150SAPE  C31216669   4.570   2.485   9.108  0.0912 -0.0721  0.6411
  150SAPE  H12X16670   4.600   2.574   9.050 -3.5686  1.6483  1.1057
  150SAPE  H12Y16671   4.459   2.479   9.115  0.2317 -2.8059  1.8005
  150SAPE  C31316672   4.625   2.360   9.043 -0.2212 -0.2285 -0.2355
  150SAPE  H13X16673   4.590   2.277   9.108 -3.8714  1.7714  0.6617
  150SAPE  H13Y16674   4.735   2.373   9.041 -0.1567 -0.7928 -1.0295
  150SAPE  C31416675   4.574   2.317   8.905 -0.1860  0.2043  0.4226
  150SAPE  H14X16676   4.595   2.393   8.827 -1.2036 -0.8158 -0.8869
  150SAPE  H14Y16677   4.468   2.289   8.920  0.5283 -2.4586  0.9709
  150SAPE  C31516678   4.640   2.191   8.846  0.4906  0.7165  0.4163
  150SAPE  H15X16679   4.667   2.117   8.925  0.0339 -0.4884 -0.5216
  150SAPE  H15Y16680   4.736   2.230   8.807  0.5869 -0.2841 -0.3738
  150SAPE  C31616681   4.553   2.117   8.742 -0.4848  0.6976 -0.4350
  150SAPE  H16X16682   4.518   2.181   8.658 -2.9884  0.0323  0.0176
  150SAPE  H16Y16683   4.466   2.081   8.801  2.0639 -2.9066  1.5379
  150SAPE  C31716684   4.606   1.986   8.685  0.1501  1.1212 -0.3636
  150SAPE  H17X16685   4.614   1.921   8.775 -0.9709  2.6400  0.8733
  150SAPE  H17Y16686   4.707   2.013   8.646 -0.7819  4.7243 -0.5651
  150SAPE  C31816687   4.513   1.919   8.583 -0.2868  0.2141 -0.1772
  150SAPE  H18X16688   4.408   1.889   8.606 -1.1223  2.3915 -0.8283
  150SAPE  H18Y16689   4.551   1.825   8.538 -0.1168  1.1100 -1.9823
  150SAPE  H18Z16690   4.506   2.000   8.507 -0.5434  1.4114  1.0677
  151SAPE     N16691   4.356   0.276  10.565 -0.1874 -0.1625 -0.1401
  151SAPE   HN116692   4.381   0.324  10.654 -1.4545  0.8274 -0.2882
  151SAPE   HN216693   4.432   0.281  10.494 -1.2927 -0.9079 -1.4175
  151SAPE   HN316694   4.274   0.330  10.531  0.4032  1.1433  0.4447
  151SAPE   C1216695   4.318   0.126  10.577 -0.2431  0.2157  0.3322
  151SAPE  H12A16696   4.253   0.118  10.667  0.2758  0.0316  0.6974
  151SAPE  H12B16697   4.415   0.072  10.585 -0.0829  0.4139 -0.2456
  151SAPE   C1116698   4.253   0.081  10.451  0.0559 -0.1827  0.1230
  151SAPE  H11A16699   4.251  -0.030  10.445 -0.6671 -0.1879  0.2905
  151SAPE  H11B16700   4.314   0.101  10.361  1.4308 -2.1842  0.5395
  151SAPE     P16701   3.989   0.051  10.433  0.1764  0.2763  0.2644
  151SAPE   O1316702   3.980  -0.052  10.543 -0.9973 -0.6436 -0.1143
  151SAPE   O1416703   3.867   0.136  10.415  0.5766 -0.4743 -0.0657
  151SAPE   O1216704   4.115   0.140  10.442 -0.1459  0.0250 -0.1279
  151SAPE   O1116705   4.016  -0.021  10.298 -0.3907 -0.4555 -0.0510
  151SAPE    C116706   4.046   0.051  10.178 -0.6145 -0.3706  0.1583
  151SAPE    HA16707   3.966   0.124  10.152  0.3397  0.6769  0.0763
  151SAPE    HB16708   4.141   0.108  10.189 -0.6538 -0.2755 -0.0018
  151SAPE    C216709   4.057  -0.045  10.059 -0.3225 -0.4292  0.4769
  151SAPE    HS16710   4.127  -0.127  10.085  2.1574  1.0443 -1.1155
  151SAPE   O2116711   4.079   0.034   9.937 -0.3250  0.0277 -0.3001
  151SAPE   C2116712   4.170  -0.029   9.863  0.3283  0.2503  0.5275
  151SAPE   O2216713   4.239  -0.119   9.896 -0.2005  0.5307 -0.2557
  151SAPE   C2216714   4.158   0.035   9.716  0.1172 -0.7048  0.8326
  151SAPE   H2R16715   4.098  -0.041   9.662 -2.1307  1.4800  0.0803
  151SAPE   H2S16716   4.112   0.136   9.716 -0.0483 -0.7604 -0.5759
  151SAPE    C316717   3.923  -0.126  10.034 -0.4104  0.4025 -0.2331
  151SAPE    HX16718   3.836  -0.059  10.020 -2.6803 -2.2972  0.0538
  151SAPE    HY16719   3.898  -0.180  10.128  1.8537  0.8146  0.6699
  151SAPE   O3116720   3.926  -0.211   9.910  0.3336  0.1412 -0.3799
  151SAPE   C3116721   3.966  -0.337   9.933 -0.6054 -0.1152 -0.3319
  151SAPE   O3216722   4.003  -0.382  10.043 -0.0665  0.4671  0.0284
  151SAPE   C3216723   3.963  -0.420   9.805 -0.0693 -0.0416 -0.2534
  151SAPE   H2X16724   4.037  -0.389   9.728 -2.3986  1.8612 -1.9137
  151SAPE   H2Y16725   3.864  -0.411   9.755  0.7459  0.4833 -1.8646
  151SAPE   C2316726   4.293   0.029   9.641 -0.3735 -0.0648 -0.0199
  151SAPE   H3R16727   4.338  -0.072   9.653  0.9696  0.5573  0.3423
  151SAPE   H3S16728   4.367   0.103   9.678 -1.0463  1.1012 -0.9348
  151SAPE   C2416729   4.286   0.040   9.494  0.2626 -0.2962  0.8798
  151SAPE   H4R16730   4.220   0.129   9.481 -0.1260 -0.9185 -2.2625
  151SAPE   H4S16731   4.242  -0.047   9.441  0.9660 -1.1028  1.5979
  151SAPE   C2516732   4.429   0.054   9.442  0.0467  0.8606  0.1434
  151SAPE   H5R16733   4.507   0.012   9.507  0.0907 -1.5324 -1.3470
  151SAPE   C2616734   4.456   0.095   9.313  0.1456 -0.5247  0.1602
  151SAPE   H6R16735   4.559   0.112   9.279 -0.2373  0.1541 -0.6941
  151SAPE   C2716736   4.353   0.135   9.215  0.2147  0.4180 -0.6555
  151SAPE   H7R16737   4.248   0.142   9.248 -0.0253 -1.3438 -0.9183
  151SAPE   H7S16738   4.343   0.059   9.134  0.8564 -1.2120  0.7126
  151SAPE   C2816739   4.397   0.261   9.142 -0.2858 -0.3878 -0.9082
  151SAPE   H8R16740   4.490   0.307   9.178  0.5379 -0.5019 -2.8117
  151SAPE   C2916741   4.340   0.319   9.037 -0.0779  0.1915  0.7493
  151SAPE   H9R16742   4.392   0.406   8.994 -0.5423 -0.6011 -1.5484
  151SAPE  C21016743   4.213   0.278   8.963 -0.6492  0.9913  1.1469
  151SAPE  H10R16744   4.120   0.336   8.980  0.8570  3.8944  0.0746
  151SAPE  H10S16745   4.188   0.173   8.992  1.4632  0.0867 -0.0830
  151SAPE  C21116746   4.224   0.285   8.808 -0.0688  0.0922 -0.1698
  151SAPE  H11R16747   4.308   0.345   8.773 -1.9610  2.3011 -1.1783
  151SAPE  C21216748   4.139   0.221   8.725 -0.5281  0.6153 -0.5863
  151SAPE  H12R16749   4.160   0.219   8.617 -3.5647 -0.6180 -1.2491
  151SAPE  C21316750   4.024   0.131   8.757  0.8842  0.1335  0.3930
  151SAPE  H13R16751   4.040   0.064   8.844  0.3253 -0.3950  0.0959
  151SAPE  H13S16752   4.020   0.055   8.676  0.9809 -0.4705  0.9455
  151SAPE  C21416753   3.896   0.210   8.756  0.2141  0.6421 -0.2682
  151SAPE  H14R16754   3.888   0.303   8.699 -2.1497  1.3174  1.0326
  151SAPE  C21516755   3.784   0.190   8.830  0.0199  0.5958 -0.4796
  151SAPE  H15R16756   3.708   0.266   8.805  1.7485  2.0889 -1.3718
  151SAPE  C21616757   3.752   0.072   8.923  0.1070 -0.1613 -0.5756
  151SAPE  H16R16758   3.843   0.010   8.941  0.1177  0.0107 -0.0247
  151SAPE  H16S16759   3.673   0.007   8.880 -2.0623  1.1541  1.2177
  151SAPE  C21716760   3.711   0.116   9.066  0.3993  0.8643  1.1077
  151SAPE  H17R16761   3.686   0.023   9.122 -0.5324  1.2549  1.3738
  151SAPE  H17S16762   3.608   0.156   9.051  0.3116  0.2838  0.0509
  151SAPE  C21816763   3.797   0.223   9.133 -0.0715  0.4907  0.0103
  151SAPE  H18R16764   3.753   0.250   9.231 -1.6880  0.0744 -0.5664
  151SAPE  H18S16765   3.794   0.316   9.072  1.5883  0.8399  0.4047
  151SAPE  C21916766   3.942   0.186   9.174 -0.5476 -0.2271 -0.3389
  151SAPE  H19R16767   3.996   0.273   9.218 -2.2017  0.2267  0.8961
  151SAPE  H19S16768   4.000   0.142   9.090  1.3619  1.8200 -0.2068
  151SAPE  C22016769   3.933   0.073   9.281  0.2130  0.1802  0.0778
  151SAPE  H20R16770   4.038   0.043   9.301  1.2972  2.3538 -1.8471
  151SAPE  H20S16771   3.873  -0.011   9.241 -1.8196  0.5185  2.1864
  151SAPE  H20T16772   3.883   0.118   9.370 -1.1649 -0.0387 -0.5600
  151SAPE   C3316773   3.978  -0.573   9.831  0.6772 -0.1903  0.1227
  151SAPE   H3X16774   3.890  -0.607   9.889 -1.0763  1.1235 -1.5920
  151SAPE   H3Y16775   4.065  -0.589   9.898 -0.9378 -0.9146  2.1641
  151SAPE   C3416776   3.991  -0.646   9.698  0.2366  0.4338 -0.0614
  151SAPE   H4X16777   4.037  -0.744   9.724 -1.4271  0.4773  3.7550
  151SAPE   H4Y16778   4.061  -0.589   9.633  0.9635  0.4092  0.6829
  151SAPE   C3516779   3.863  -0.676   9.616  0.3874 -0.5479  0.5408
  151SAPE   H5X16780   3.837  -0.580   9.566  2.6258  1.5680  3.0655
  151SAPE   H5Y16781   3.777  -0.699   9.681 -1.5826 -1.5167 -2.2424
  151SAPE   C3616782   3.866  -0.796   9.518  0.5210 -0.0119  0.3305
  151SAPE   H6X16783   3.772  -0.854   9.514  1.3451 -1.3398 -1.9330
  151SAPE   H6Y16784   3.931  -0.876   9.560  0.0691  0.3285  1.7308
  151SAPE   C3716785   3.914  -0.759   9.375 -0.8220  0.2066  0.7290
  151SAPE   H7X16786   3.992  -0.680   9.376 -0.5549 -0.0345 -0.1344
  151SAPE   H7Y16787   3.821  -0.714   9.333 -0.1546  0.0379 -0.9961
  151SAPE   C3816788   3.957  -0.887   9.290 -0.3964 -0.3777  0.0237
  151SAPE   H8X16789   3.875  -0.962   9.301 -0.6477 -0.3712 -1.5256
  151SAPE   H8Y16790   4.055  -0.914   9.333  0.1219  2.3485  0.7240
  151SAPE   C3916791   3.947  -0.845   9.147 -0.1538  0.2786  0.1862
  151SAPE   H9X16792   3.849  -0.796   9.126  1.1679  3.1658  0.3156
  151SAPE   H9Y16793   3.947  -0.933   9.079 -0.1694 -1.1463  1.9598
  151SAPE  C31016794   4.064  -0.755   9.102  0.2499  0.1873  0.0925
  151SAPE  H10X16795   4.161  -0.797   9.136 -0.2984 -0.9695  0.2658
  151SAPE  H10Y16796   4.064  -0.655   9.152  0.7113  0.1172  0.2426
  151SAPE  C31116797   4.077  -0.724   8.950 -0.0623 -0.0611 -0.2199
  151SAPE  H11X16798   4.118  -0.814   8.900 -0.5721  0.5522 -1.8174
  151SAPE  H11Y16799   4.160  -0.651   8.934  2.7551 -2.9346  0.2964
  151SAPE  C31216800   3.954  -0.674   8.876  0.0949  0.3154  0.1948
  151SAPE  H12X16801   3.930  -0.570   8.906 -0.6813 -0.4415  2.4333
  151SAPE  H12Y16802   3.867  -0.742   8.876  0.6795 -0.4523 -0.3834
  151SAPE  C31316803   3.991  -0.666   8.722 -0.5048 -0.2765 -0.3698
  151SAPE  H13X16804   4.004  -0.774   8.701  0.4306 -0.4342  0.8942
  151SAPE  H13Y16805   4.084  -0.609   8.701 -1.4523  0.6998 -2.1091
  151SAPE  C31416806   3.880  -0.608   8.636  0.4282 -0.0120  0.2195
  151SAPE  H14X16807   3.782  -0.656   8.658  0.7565 -0.5232  0.5812
  151SAPE  H14Y16808   3.917  -0.610   8.531  0.8272  0.7280  0.3336
  151SAPE  C31516809   3.848  -0.461   8.673 -0.5786  0.1246  0.3250
  151SAPE  H15X16810   3.944  -0.405   8.675 -0.6321  0.2745 -0.9783
  151SAPE  H15Y16811   3.807  -0.456   8.777  0.8692 -0.3251  0.9529
  151SAPE  C31616812   3.763  -0.400   8.569 -0.0464 -0.9604 -0.4081
  151SAPE  H16X16813   3.684  -0.477   8.553 -2.3206  0.5201  2.6255
  151SAPE  H16Y16814   3.816  -0.376   8.475 -2.1477  0.2254 -1.3471
  151SAPE  C31716815   3.691  -0.270   8.620 -0.0523  0.2520 -0.3593
  151SAPE  H17X16816   3.630  -0.226   8.538 -1.2321  0.1195  0.4274
  151SAPE  H17Y16817   3.763  -0.190   8.646  0.6997 -0.4487 -0.2239
  151SAPE  C31816818   3.596  -0.289   8.741 -0.0900  0.2701  0.2838
  151SAPE  H18X16819   3.520  -0.369   8.722  0.2740 -0.2587  0.9984
  151SAPE  H18Y16820   3.546  -0.192   8.758  2.2135  1.6255 -0.2081
  151SAPE  H18Z16821   3.651  -0.303   8.837  0.3249  1.5373  0.2413
  152SAPE     N16822   3.569   0.539  10.547  0.0759  0.0626  0.4851
  152SAPE   HN116823   3.589   0.438  10.563 -1.6594 -0.5352 -0.7690
  152SAPE   HN216824   3.639   0.578  10.481  1.6353  1.2687  2.7128
  152SAPE   HN316825   3.580   0.588  10.638 -1.2704  1.1404  0.1124
  152SAPE   C1216826   3.433   0.558  10.493 -0.9247  0.0062 -0.0994
  152SAPE  H12A16827   3.436   0.661  10.450 -2.2434  0.0472 -0.1448
  152SAPE  H12B16828   3.356   0.568  10.572  0.1378  3.5460  0.6650
  152SAPE   C1116829   3.396   0.449  10.381  0.3419  0.3480  0.2027
  152SAPE  H11A16830   3.446   0.492  10.292  0.1979  0.0621 -0.0173
  152SAPE  H11B16831   3.286   0.452  10.365  0.1470  2.8527  1.5003
  152SAPE     P16832   3.356   0.209  10.458  0.5185  0.3145 -0.0100
  152SAPE   O1316833   3.446   0.100  10.491  0.1111  0.1443 -0.1098
  152SAPE   O1416834   3.263   0.253  10.566  0.2830  0.5597 -0.4090
  152SAPE   O1216835   3.442   0.327  10.412  0.0249  0.2888 -0.4691
  152SAPE   O1116836   3.276   0.190  10.324 -0.3028  0.4462 -0.3790
  152SAPE    C116837   3.147   0.247  10.296 -0.2005  0.1514 -0.8727
  152SAPE    HA16838   3.114   0.301  10.388  0.4237 -0.3352 -0.3577
  152SAPE    HB16839   3.149   0.312  10.206  2.5339 -0.5498 -1.4005
  152SAPE    C216840   3.051   0.127  10.264 -0.8534 -0.2594  0.1621
  152SAPE    HS16841   3.089   0.039  10.321  1.7475 -0.5961 -1.8939
  152SAPE   O2116842   3.038   0.106  10.122 -0.5208  0.0808  0.0821
  152SAPE   C2116843   2.988  -0.012  10.083 -0.2913  0.4001 -0.3695
  152SAPE   O2216844   2.970  -0.107  10.162  0.3944 -0.6098  0.2257
  152SAPE   C2216845   2.936  -0.002   9.937 -0.0626  0.5035 -0.9941
  152SAPE   H2R16846   2.850   0.068   9.937  0.4288  1.1090 -1.2094
  152SAPE   H2S16847   3.013   0.047   9.874  1.3397 -0.1219  0.1723
  152SAPE    C316848   2.908   0.156  10.314 -1.1569  0.1420 -0.7452
  152SAPE    HX16849   2.928   0.180  10.421  2.1720 -1.2933 -0.9042
  152SAPE    HY16850   2.848   0.063  10.306 -0.2743 -0.6792  1.3558
  152SAPE   O3116851   2.851   0.277  10.261  0.7483 -0.5548  0.5544
  152SAPE   C3116852   2.764   0.261  10.161  0.0245 -0.3873  0.3736
  152SAPE   O3216853   2.710   0.155  10.130  0.1911 -0.2650 -0.0021
  152SAPE   C3216854   2.745   0.390  10.071  0.0946 -0.3885 -0.2050
  152SAPE   H2X16855   2.780   0.485  10.116 -0.1203 -0.5951  0.4031
  152SAPE   H2Y16856   2.635   0.392  10.059  0.0821  0.1475 -0.0177
  152SAPE   C2316857   2.901  -0.139   9.882 -0.2163 -0.1665 -0.1007
  152SAPE   H3R16858   2.857  -0.124   9.781  1.5705  0.0078 -0.9019
  152SAPE   H3S16859   2.819  -0.184   9.942  0.2795 -1.6591 -0.5006
  152SAPE   C2416860   3.024  -0.228   9.851 -0.5537 -0.1749  0.0292
  152SAPE   H4R16861   3.061  -0.263   9.950 -1.7222 -0.1667  0.4868
  152SAPE   H4S16862   3.108  -0.165   9.813  0.3908 -0.0459  2.1914
  152SAPE   C2516863   2.988  -0.335   9.749 -0.4149  0.4148  0.1276
  152SAPE   H5R16864   2.934  -0.421   9.791 -1.7284  0.9125 -0.5078
  152SAPE   C2616865   3.040  -0.339   9.622  0.0014 -0.0407  0.1205
  152SAPE   H6R16866   3.011  -0.412   9.545  0.5409  1.6858 -1.8149
  152SAPE   C2716867   3.132  -0.244   9.556 -0.1893  0.2195  0.2687
  152SAPE   H7R16868   3.227  -0.231   9.612 -0.9906  1.0453  1.4755
  152SAPE   H7S16869   3.079  -0.146   9.552  0.4666  0.6993  2.3668
  152SAPE   C2816870   3.182  -0.280   9.420  0.0552  0.3353 -0.4010
  152SAPE   H8R16871   3.272  -0.343   9.421  0.3910  0.8178  0.5304
  152SAPE   C2916872   3.116  -0.247   9.308  0.2243  0.0750 -0.2114
  152SAPE   H9R16873   3.155  -0.282   9.212  0.6828 -3.3458  1.0628
  152SAPE  C21016874   2.982  -0.180   9.303  0.9417 -0.1041  0.4267
  152SAPE  H10R16875   2.977  -0.106   9.220 -0.5274 -0.5077  0.1295
  152SAPE  H10S16876   2.967  -0.115   9.392 -1.9074  0.8735 -0.6561
  152SAPE  C21116877   2.864  -0.270   9.300  0.0607  1.0570  0.1741
  152SAPE  H11R16878   2.849  -0.331   9.391  0.0050 -1.2700 -1.2991
  152SAPE  C21216879   2.786  -0.303   9.198 -0.1788 -1.1157  0.2905
  152SAPE  H12R16880   2.696  -0.360   9.223  0.8466 -3.5275 -1.1600
  152SAPE  C21316881   2.792  -0.241   9.057  0.3139  0.0957 -0.2984
  152SAPE  H13R16882   2.833  -0.138   9.065 -0.1856  0.3368 -0.7931
  152SAPE  H13S16883   2.690  -0.231   9.014  0.3792 -0.1873 -0.5202
  152SAPE  C21416884   2.873  -0.314   8.950 -0.1658  0.0876  0.9083
  152SAPE  H14R16885   2.964  -0.364   8.987  1.2512  0.2609 -2.0193
  152SAPE  C21516886   2.848  -0.304   8.822  0.1713 -0.2912 -0.0385
  152SAPE  H15R16887   2.918  -0.357   8.755 -1.5121 -1.3180 -1.0607
  152SAPE  C21616888   2.739  -0.229   8.752 -1.0884  0.0670  0.4307
  152SAPE  H16R16889   2.774  -0.192   8.654  0.2423  0.6358  1.0915
  152SAPE  H16S16890   2.715  -0.136   8.808  1.6183  0.7499  0.5919
  152SAPE  C21716891   2.606  -0.301   8.742 -0.2982  0.3082 -0.0654
  152SAPE  H17R16892   2.575  -0.352   8.836 -0.3081  0.6209  0.1043
  152SAPE  H17S16893   2.620  -0.392   8.679 -0.2918 -0.0984  0.5153
  152SAPE  C21816894   2.491  -0.205   8.699  0.1790  0.9575  0.2160
  152SAPE  H18R16895   2.511  -0.174   8.594 -0.9232 -0.3163 -0.4166
  152SAPE  H18S16896   2.503  -0.114   8.761 -0.4469  0.1468  1.5860
  152SAPE  C21916897   2.349  -0.265   8.714 -0.5791 -0.5669  0.3564
  152SAPE  H19R16898   2.342  -0.287   8.823 -0.3624  1.0348  0.7304
  152SAPE  H19S16899   2.341  -0.354   8.648 -1.3878 -0.8037  0.7542
  152SAPE  C22016900   2.242  -0.165   8.679 -0.1021  0.3145 -0.3311
  152SAPE  H20R16901   2.144  -0.216   8.665  0.9209 -2.8130  2.3721
  152SAPE  H20S16902   2.273  -0.112   8.587  2.0162  0.6441  0.5126
  152SAPE  H20T16903   2.235  -0.090   8.761  0.4844 -0.6069  0.6055
  152SAPE   C3316904   2.805   0.373   9.932  0.0221  0.3456 -0.3298
  152SAPE   H3X16905   2.793   0.268   9.897  0.1917 -0.3722  1.6623
  152SAPE   H3Y16906   2.915   0.380   9.937  0.3305 -1.4212 -2.6904
  152SAPE   C3416907   2.760   0.469   9.827  0.4387  0.1385 -0.2944
  152SAPE   H4X16908   2.793   0.573   9.846 -0.1848  0.3450 -0.3220
  152SAPE   H4Y16909   2.649   0.461   9.831  0.4884 -1.4043 -1.2679
  152SAPE   C3516910   2.806   0.428   9.683 -0.0401 -0.5631  0.3591
  152SAPE   H5X16911   2.915   0.407   9.675 -0.0976 -0.8497  0.3069
  152SAPE   H5Y16912   2.795   0.515   9.614  0.2858  0.0212  1.0329
  152SAPE   C3616913   2.717   0.312   9.624 -0.1740  0.5200  0.1198
  152SAPE   H6X16914   2.610   0.322   9.650 -0.4702  1.6624 -1.4081
  152SAPE   H6Y16915   2.755   0.218   9.670 -2.8205 -0.4854  0.4274
  152SAPE   C3716916   2.714   0.280   9.477  0.1837  0.3518  0.0625
  152SAPE   H7X16917   2.678   0.376   9.435 -1.6282 -1.0094 -1.7335
  152SAPE   H7Y16918   2.648   0.196   9.445  0.4228  0.7603 -1.6226
  152SAPE   C3816919   2.848   0.230   9.424  0.2651 -0.5616  0.2037
  152SAPE   H8X16920   2.874   0.144   9.489 -0.3695 -2.0745 -1.4732
  152SAPE   H8Y16921   2.924   0.308   9.447 -2.3727  1.7403  1.7548
  152SAPE   C3916922   2.847   0.180   9.280 -0.1349  0.4341 -0.5543
  152SAPE   H9X16923   2.783   0.089   9.279  0.6993 -0.1746 -2.4569
  152SAPE   H9Y16924   2.951   0.148   9.259 -0.2602 -1.1154  0.9300
  152SAPE  C31016925   2.797   0.276   9.179  0.3153  0.0744  0.3598
  152SAPE  H10X16926   2.849   0.373   9.197  0.0562  0.6381 -1.7309
  152SAPE  H10Y16927   2.686   0.282   9.177  0.3768  1.3070 -1.7250
  152SAPE  C31116928   2.831   0.217   9.039 -0.9318 -0.0878 -0.1026
  152SAPE  H11X16929   2.842   0.107   9.049  2.9855  0.1009 -0.9000
  152SAPE  H11Y16930   2.936   0.248   9.023 -1.1847  1.1217  0.4400
  152SAPE  C31216931   2.731   0.241   8.927  0.8609 -0.5307  0.4693
  152SAPE  H12X16932   2.736   0.347   8.893 -1.2639  0.1366  1.9987
  152SAPE  H12Y16933   2.626   0.213   8.951  0.2059 -1.1279 -2.6326
  152SAPE  C31316934   2.775   0.165   8.798 -0.0506 -0.0812 -0.0897
  152SAPE  H13X16935   2.778   0.056   8.815  0.5815  0.2724  2.6928
  152SAPE  H13Y16936   2.876   0.191   8.763 -0.3884 -0.6994 -1.5642
  152SAPE  C31416937   2.694   0.206   8.674  0.4486  0.4060  0.5087
  152SAPE  H14X16938   2.719   0.311   8.649  0.8088  0.3971  0.8305
  152SAPE  H14Y16939   2.588   0.188   8.705  1.2549 -2.4619  2.0004
  152SAPE  C31516940   2.722   0.108   8.546 -0.2718 -0.7051  1.0242
  152SAPE  H15X16941   2.710   0.002   8.578 -0.2488 -0.6121  1.3492
  152SAPE  H15Y16942   2.822   0.122   8.501 -0.0422 -0.3470  1.6304
  152SAPE  C31616943   2.621   0.141   8.439 -0.0428  0.1384 -0.2849
  152SAPE  H16X16944   2.619   0.245   8.400 -0.5834 -0.3110 -1.5080
  152SAPE  H16Y16945   2.521   0.102   8.471  0.0164  0.1118 -0.1324
  152SAPE  C31716946   2.654   0.055   8.316  0.9329 -0.4820 -0.0620
  152SAPE  H17X16947   2.660  -0.050   8.353  1.1055 -0.4366  0.0399
  152SAPE  H17Y16948   2.750   0.092   8.273 -0.2834  3.1943  0.0427
  152SAPE  C31816949   2.542   0.078   8.210  0.6779  0.1268  0.0448
  152SAPE  H18X16950   2.540   0.011   8.121 -0.3021  0.6010 -0.3115
  152SAPE  H18Y16951   2.539   0.182   8.171 -0.1538 -0.4757 -1.6279
  152SAPE  H18Z16952   2.442   0.056   8.254 -0.7823  0.8550 -2.6384
  153SAPE     N16953   3.846   0.669  10.897 -0.2075 -0.5524 -0.0111
  153SAPE   HN116954   3.746   0.644  10.910 -0.6563  0.5218 -1.2212
  153SAPE   HN216955   3.898   0.580  10.887 -0.2241 -0.5854  0.1836
  153SAPE   HN316956   3.879   0.718  10.983  1.9792  0.4754 -1.3661
  153SAPE   C1216957   3.847   0.768  10.786 -0.5081  0.9782  0.8090
  153SAPE  H12A16958   3.809   0.733  10.688  2.9371  0.8422 -0.6194
  153SAPE  H12B16959   3.953   0.797  10.768 -0.1556 -1.0304 -0.8259
  153SAPE   C1116960   3.792   0.899  10.835  0.0819 -0.1104  0.4114
  153SAPE  H11A16961   3.797   0.972  10.751 -2.6790  1.6742  1.6827
  153SAPE  H11B16962   3.852   0.945  10.916  2.0428 -0.2634 -0.8641
  153SAPE     P16963   3.537   0.854  10.780  0.4472 -0.4064  0.0400
  153SAPE   O1316964   3.533   0.705  10.774 -0.5581 -0.1222  0.3562
  153SAPE   O1416965   3.414   0.926  10.824  0.9373  0.0437 -0.0735
  153SAPE   O1216966   3.655   0.894  10.884  0.2605  0.1995 -0.2317
  153SAPE   O1116967   3.578   0.895  10.636 -0.1723  1.0488 -0.5026
  153SAPE    C116968   3.496   0.992  10.579  0.5473 -0.7077 -0.0281
  153SAPE    HA16969   3.390   0.958  10.573  0.6629 -1.1328  0.2730
  153SAPE    HB16970   3.489   1.090  10.630 -0.5280 -1.5506  1.5247
  153SAPE    C216971   3.533   1.009  10.432 -0.2576 -0.4017  0.0926
  153SAPE    HS16972   3.483   1.103  10.401  0.1837 -0.3259 -0.3969
  153SAPE   O2116973   3.499   0.893  10.358 -0.0894 -0.5638 -0.5819
  153SAPE   C2116974   3.403   0.911  10.263 -0.1721 -0.1882 -0.3679
  153SAPE   O2216975   3.347   1.016  10.242 -0.7236 -0.1316 -0.2667
  153SAPE   C2216976   3.388   0.789  10.182 -0.5978 -0.1302  0.2786
  153SAPE   H2R16977   3.484   0.794  10.125 -0.3529  0.0446  0.7033
  153SAPE   H2S16978   3.391   0.695  10.241  0.1334  1.1072  2.3182
  153SAPE    C316979   3.684   1.038  10.408  0.2561  0.0637  0.1041
  153SAPE    HX16980   3.748   0.948  10.410 -0.5619 -0.5160  0.8242
  153SAPE    HY16981   3.709   1.106  10.492 -1.3560  0.6448  0.1507
  153SAPE   O3116982   3.709   1.115  10.284 -0.2437  0.1705 -0.1536
  153SAPE   C3116983   3.695   1.248  10.287  0.6067 -0.1630 -0.3069
  153SAPE   O3216984   3.674   1.315  10.387 -0.4032  0.0377  0.2466
  153SAPE   C3216985   3.705   1.296  10.141  0.0927  0.8044  0.0814
  153SAPE   H2X16986   3.633   1.231  10.087 -0.4185  0.9220  0.6038
  153SAPE   H2Y16987   3.805   1.270  10.102 -0.2871 -0.2143 -0.2386
  153SAPE   C2316988   3.272   0.799  10.085 -0.2032 -0.3043 -0.3139
  153SAPE   H3R16989   3.291   0.888  10.022  2.3183 -2.2622 -2.5922
  153SAPE   H3S16990   3.179   0.807  10.145 -0.2684 -0.3878 -0.4038
  153SAPE   C2416991   3.261   0.684   9.983  0.3973 -0.0287  0.3982
  153SAPE   H4R16992   3.248   0.599  10.053 -2.0785  0.6766  0.8729
  153SAPE   H4S16993   3.354   0.678   9.923  0.2791 -1.1839  0.3078
  153SAPE   C2516994   3.133   0.693   9.897 -0.1739  0.3328  0.2083
  153SAPE   H5R16995   3.043   0.706   9.958  0.0584 -2.1150  1.1769
  153SAPE   C2616996   3.132   0.684   9.762  0.1390 -0.5556  1.2075
  153SAPE   H6R16997   3.036   0.699   9.710  1.4720 -1.7390 -1.8114
  153SAPE   C2716998   3.250   0.672   9.670  0.6688 -0.3409 -0.6275
  153SAPE   H7R16999   3.333   0.618   9.720 -0.5670 -0.5785  1.2470
  153SAPE   H7S17000   3.282   0.770   9.627 -2.8568 -0.5792 -4.4709
  153SAPE   C2817001   3.204   0.591   9.552 -0.0775  0.2816  0.0333
  153SAPE   H8R17002   3.206   0.482   9.570  1.1574  0.0603 -1.3108
  153SAPE   C2917003   3.165   0.613   9.424  0.0448 -0.3070 -0.2503
  153SAPE   H9R17004   3.133   0.523   9.369 -1.0108  0.0587 -0.2488
  153SAPE  C21017005   3.153   0.743   9.350 -0.7675 -0.0504  0.1210
  153SAPE  H10R17006   3.184   0.824   9.419 -1.0684  1.2753 -1.2453
  153SAPE  H10S17007   3.050   0.772   9.319 -0.2647  1.6184 -0.0866
  153SAPE  C21117008   3.251   0.745   9.232 -0.1878  0.3996 -0.3194
  153SAPE  H11R17009   3.360   0.737   9.249 -0.1323  1.3621 -0.2088
  153SAPE  C21217010   3.215   0.714   9.107 -0.0941 -1.0181  0.5486
  153SAPE  H12R17011   3.292   0.714   9.028 -1.5288 -0.5526 -0.9005
  153SAPE  C21317012   3.083   0.677   9.060  0.3779 -0.5768 -0.3379
  153SAPE  H13R17013   3.048   0.751   8.986 -1.1472 -0.6595  0.2716
  153SAPE  H13S17014   3.005   0.669   9.139 -1.3081 -2.1517 -2.0713
  153SAPE  C21417015   3.090   0.543   8.999  1.1377  0.7367  0.0540
  153SAPE  H14R17016   3.109   0.462   9.071 -1.3631 -0.5565 -0.6348
  153SAPE  C21517017   3.080   0.506   8.872 -0.3199  0.8440 -0.7925
  153SAPE  H15R17018   3.097   0.401   8.844  2.9217  0.8582  0.7426
  153SAPE  C21617019   3.074   0.605   8.757  0.2960 -0.1119 -0.2594
  153SAPE  H16R17020   3.113   0.566   8.661  2.5347 -0.0301  0.5529
  153SAPE  H16S17021   3.132   0.693   8.793 -2.0069 -0.1011  4.0897
  153SAPE  C21717022   2.934   0.662   8.729 -0.1659 -0.0597 -0.0747
  153SAPE  H17R17023   2.949   0.753   8.667 -1.7875  0.1854 -0.1697
  153SAPE  H17S17024   2.879   0.691   8.822  0.0548 -0.8897  0.3209
  153SAPE  C21817025   2.846   0.576   8.635  0.2545 -0.1566  0.3452
  153SAPE  H18R17026   2.750   0.552   8.684  0.2191 -2.0639 -0.5823
  153SAPE  H18S17027   2.902   0.481   8.630  0.5655  0.0691 -0.6495
  153SAPE  C21917028   2.831   0.616   8.485 -0.1949 -0.3702  0.0110
  153SAPE  H19R17029   2.933   0.645   8.452 -0.9579  1.9363 -0.5252
  153SAPE  H19S17030   2.768   0.704   8.461 -2.6760 -2.1935 -0.5194
  153SAPE  C22017031   2.781   0.502   8.401  0.5344  0.1785 -0.4375
  153SAPE  H20R17032   2.670   0.504   8.410  0.3763  1.0590 -2.2245
  153SAPE  H20S17033   2.809   0.402   8.440 -1.5963 -0.9434 -1.5884
  153SAPE  H20T17034   2.805   0.519   8.294 -1.3916 -0.5530 -1.0290
  153SAPE   C3317035   3.670   1.441  10.126 -0.8270  0.0455  0.3401
  153SAPE   H3X17036   3.731   1.492  10.204  0.9868 -0.9055 -0.3919
  153SAPE   H3Y17037   3.561   1.459  10.133 -1.6491 -3.5613 -1.0617
  153SAPE   C3417038   3.730   1.501   9.995  0.2135 -0.3372 -0.2837
  153SAPE   H4X17039   3.840   1.485   9.992  0.3714  0.1909  1.3992
  153SAPE   H4Y17040   3.728   1.612  10.002  1.0139 -0.3655  0.6932
  153SAPE   C3517041   3.663   1.443   9.865 -0.1659  0.3174  0.2009
  153SAPE   H5X17042   3.553   1.453   9.874 -0.0945 -0.5410  3.1704
  153SAPE   H5Y17043   3.691   1.336   9.852 -3.2584 -0.5107 -0.5149
  153SAPE   C3617044   3.711   1.521   9.738  0.0162  0.5374 -0.3977
  153SAPE   H6X17045   3.817   1.495   9.717 -0.2744  0.7186 -2.2363
  153SAPE   H6Y17046   3.693   1.629   9.758 -1.1432  0.2560  0.1520
  153SAPE   C3717047   3.630   1.484   9.613  0.6475  0.1257  0.0992
  153SAPE   H7X17048   3.527   1.525   9.623  0.5677  0.4205 -1.6329
  153SAPE   H7Y17049   3.611   1.375   9.599  0.6382  0.5209 -4.4317
  153SAPE   C3817050   3.685   1.546   9.487  0.2390  0.2836 -0.3781
  153SAPE   H8X17051   3.794   1.522   9.482  0.4823  0.9689  0.9647
  153SAPE   H8Y17052   3.680   1.657   9.481 -0.3272  0.2949  0.1868
  153SAPE   C3917053   3.604   1.498   9.357 -0.3219 -1.1133 -0.0919
  153SAPE   H9X17054   3.555   1.405   9.392 -3.4535  0.8903  1.3500
  153SAPE   H9Y17055   3.690   1.481   9.289  1.7029 -0.7524  2.2048
  153SAPE  C31017056   3.507   1.602   9.306 -0.1869  0.1953 -0.1850
  153SAPE  H10X17057   3.545   1.705   9.290 -3.2058  1.5190  0.4998
  153SAPE  H10Y17058   3.425   1.601   9.380  1.2168 -0.2567  1.4144
  153SAPE  C31117059   3.451   1.557   9.174  0.7706 -0.0034 -0.4260
  153SAPE  H11X17060   3.349   1.597   9.153  0.9865  0.4939 -0.5697
  153SAPE  H11Y17061   3.427   1.450   9.188  1.2797 -0.3383 -1.9322
  153SAPE  C31217062   3.542   1.579   9.059 -0.1207 -0.4895  0.3573
  153SAPE  H12X17063   3.638   1.525   9.067  0.4599 -0.0101 -2.3534
  153SAPE  H12Y17064   3.563   1.686   9.036 -0.9186  0.1987  2.6138
  153SAPE  C31317065   3.464   1.506   8.945 -1.1797 -0.4343 -1.2259
  153SAPE  H13X17066   3.415   1.416   8.989  0.4169 -1.0613 -0.6439
  153SAPE  H13Y17067   3.543   1.482   8.870 -0.5715  0.5546 -0.9289
  153SAPE  C31417068   3.364   1.597   8.866 -0.4418  0.4952 -0.3962
  153SAPE  H14X17069   3.428   1.677   8.822 -0.4895  1.9372  1.9719
  153SAPE  H14Y17070   3.291   1.644   8.935  0.2976  4.3469 -1.9662
  153SAPE  C31517071   3.285   1.517   8.764 -0.5040  0.3930  0.0703
  153SAPE  H15X17072   3.248   1.422   8.809 -2.0506  1.1267  0.4124
  153SAPE  H15Y17073   3.357   1.488   8.685  1.4783 -0.4410  2.0709
  153SAPE  C31617074   3.172   1.594   8.700 -0.5471  1.0830 -0.5893
  153SAPE  H16X17075   3.211   1.698   8.689  0.6253  0.5871 -1.2375
  153SAPE  H16Y17076   3.083   1.600   8.766 -1.3856 -2.7502 -1.1698
  153SAPE  C31717077   3.128   1.550   8.557  0.3385 -0.3859 -0.2704
  153SAPE  H17X17078   3.036   1.609   8.535 -0.5562 -0.6760  2.3408
  153SAPE  H17Y17079   3.081   1.449   8.549 -0.9977  0.2789 -1.1540
  153SAPE  C31817080   3.239   1.557   8.450 -0.3583 -1.1269  0.3176
  153SAPE  H18X17081   3.196   1.546   8.348 -1.4386 -0.9823  0.7431
  153SAPE  H18Y17082   3.308   1.471   8.465 -0.0911 -0.8292  0.8272
  153SAPE  H18Z17083   3.291   1.655   8.456 -1.0754 -0.7200 -0.0067
  154SAPE     N17084   4.146   2.569  10.712  0.3173 -0.5596  0.3018
  154SAPE   HN117085   4.042   2.561  10.706 -0.0519  1.9547  1.6789
  154SAPE   HN217086   4.192   2.502  10.647  1.4700  0.0776  0.4307
  154SAPE   HN317087   4.174   2.546  10.809  0.2224  2.8532  1.2761
  154SAPE   C1217088   4.181   2.710  10.675  0.1318  0.1428 -0.0566
  154SAPE  H12A17089   4.168   2.727  10.566  0.6145  1.6448  0.0927
  154SAPE  H12B17090   4.286   2.735  10.700  0.4371  2.0654 -2.7737
  154SAPE   C1117091   4.088   2.807  10.747 -0.9097  0.9811 -0.0483
  154SAPE  H11A17092   4.120   2.913  10.736 -1.0476  1.4182  2.8993
  154SAPE  H11B17093   4.102   2.784  10.854 -0.3089  1.3328 -0.0469
  154SAPE     P17094   3.890   2.903  10.598  0.3923 -0.0750 -0.1781
  154SAPE   O1317095   3.769   2.851  10.521 -0.1184 -0.3056  0.2855
  154SAPE   O1417096   3.859   3.026  10.674 -0.0893  0.2968 -0.2088
  154SAPE   O1217097   3.954   2.795  10.698  0.0299  0.4715 -0.0590
  154SAPE   O1117098   4.006   2.946  10.504 -0.2141  0.6794  0.2620
  154SAPE    C117099   4.033   2.862  10.390  0.2036 -0.5087  0.0443
  154SAPE    HA17100   4.138   2.876  10.354  0.5693  1.0472  1.5830
  154SAPE    HB17101   4.009   2.755  10.409 -1.7572 -0.2090 -0.5212
  154SAPE    C217102   3.953   2.902  10.268 -0.0017 -0.2860  0.5494
  154SAPE    HS17103   3.848   2.877  10.295  0.1008 -1.9529 -0.4323
  154SAPE   O2117104   4.002   2.828  10.159 -0.7910 -0.0799  0.5772
  154SAPE   C2117105   3.905   2.798  10.067  0.4078 -0.4691 -0.9155
  154SAPE   O2217106   3.786   2.779  10.084 -0.2607 -0.6217  0.0991
  154SAPE   C2217107   3.976   2.788   9.936  0.1715 -0.1129 -0.1791
  154SAPE   H2R17108   4.014   2.889   9.910 -1.9468  0.4044 -1.4895
  154SAPE   H2S17109   4.064   2.721   9.938  0.8028  0.6595 -1.1818
  154SAPE    C317110   3.960   3.057  10.235 -0.8034  0.3247 -0.2627
  154SAPE    HX17111   4.062   3.092  10.208  0.1342 -1.3870  0.8369
  154SAPE    HY17112   3.944   3.107  10.333  3.8536 -0.3360  1.0889
  154SAPE   O3117113   3.883   3.092  10.122 -0.3085  0.4431  0.3721
  154SAPE   C3117114   3.776   3.174  10.147  0.0289  0.1125 -0.0778
  154SAPE   O3217115   3.745   3.213  10.253 -0.3142  0.6149  0.0100
  154SAPE   C3217116   3.707   3.199  10.017 -0.3246 -0.1736 -0.2689
  154SAPE   H2X17117   3.720   3.117   9.943  0.1204 -0.7961  0.4842
  154SAPE   H2Y17118   3.747   3.298   9.985 -1.3381 -0.0236 -1.1400
  154SAPE   C2317119   3.883   2.740   9.828  0.3079 -0.0987 -0.4706
  154SAPE   H3R17120   3.794   2.806   9.818 -0.2495 -0.5222  1.1957
  154SAPE   H3S17121   3.843   2.642   9.866  0.4573  0.0517  0.0912
  154SAPE   C2417122   3.953   2.720   9.691  0.4950 -0.6894 -0.3593
  154SAPE   H4R17123   4.042   2.658   9.711  2.0238  1.3954 -0.3874
  154SAPE   H4S17124   3.997   2.818   9.663  0.8526 -0.4336  1.0258
  154SAPE   C2517125   3.844   2.655   9.602  0.0308  0.4427 -0.4675
  154SAPE   H5R17126   3.803   2.560   9.638  1.2551 -0.1218 -0.5069
  154SAPE   C2617127   3.782   2.704   9.491  0.4912 -0.0253  0.5173
  154SAPE   H6R17128   3.701   2.650   9.439  0.8552 -0.2060  0.1375
  154SAPE   C2717129   3.828   2.833   9.431 -0.4457  0.8283  0.3251
  154SAPE   H7R17130   3.879   2.889   9.512 -0.0014  1.5378 -0.4290
  154SAPE   H7S17131   3.736   2.891   9.409 -1.4879 -1.0603 -0.5321
  154SAPE   C2817132   3.913   2.823   9.307 -0.3033  0.3732 -0.4837
  154SAPE   H8R17133   4.016   2.800   9.339 -0.5624 -1.5585 -0.8740
  154SAPE   C2917134   3.880   2.848   9.178 -0.3715  0.3533 -0.6700
  154SAPE   H9R17135   3.958   2.849   9.101  0.7569  0.5069  0.4427
  154SAPE  C21017136   3.751   2.899   9.121  0.8102  0.0684  0.1234
  154SAPE  H10R17137   3.693   2.940   9.206  0.2870 -1.3315  0.4716
  154SAPE  H10S17138   3.699   2.809   9.082  0.6489  1.5443 -3.4596
  154SAPE  C21117139   3.777   2.999   9.009  0.6438  0.2803  0.6574
  154SAPE  H11R17140   3.785   3.103   9.045 -1.1369  0.7066 -0.0479
  154SAPE  C21217141   3.777   2.981   8.874  0.9699  0.4906 -0.1877
  154SAPE  H12R17142   3.792   3.074   8.816  0.1089  0.8000  0.0686
  154SAPE  C21317143   3.751   2.854   8.790  0.4783 -0.2390  0.2067
  154SAPE  H13R17144   3.675   2.863   8.710  1.4407  0.8766 -0.6212
  154SAPE  H13S17145   3.712   2.773   8.855  0.6565 -1.0443 -0.6721
  154SAPE  C21417146   3.878   2.791   8.730  0.3634  0.2670 -0.1412
  154SAPE  H14R17147   3.954   2.867   8.704  0.6477 -0.0712 -0.3101
  154SAPE  C21517148   3.907   2.660   8.705  0.3239  0.6520 -0.3043
  154SAPE  H15R17149   4.004   2.639   8.658 -0.6983  0.1069 -2.2883
  154SAPE  C21617150   3.822   2.531   8.722 -0.1827 -1.1139 -0.9762
  154SAPE  H16R17151   3.756   2.545   8.810  2.3585  2.8190  0.5966
  154SAPE  H16S17152   3.887   2.445   8.752 -1.3478 -1.5765  0.3392
  154SAPE  C21717153   3.758   2.482   8.590  0.1115  0.1522 -0.0852
  154SAPE  H17R17154   3.698   2.558   8.535 -1.4253 -0.9749 -0.0347
  154SAPE  H17S17155   3.688   2.397   8.606 -0.7172  0.4666 -1.7941
  154SAPE  C21817156   3.865   2.419   8.499  0.0049 -0.5780 -0.1561
  154SAPE  H18R17157   3.908   2.326   8.543  0.8343  0.1602  0.6465
  154SAPE  H18S17158   3.940   2.500   8.482  1.1395 -1.3281  1.0545
  154SAPE  C21917159   3.800   2.385   8.368  0.1924 -0.5724  0.8330
  154SAPE  H19R17160   3.747   2.466   8.314 -1.5260 -3.3569 -2.0500
  154SAPE  H19S17161   3.723   2.306   8.385 -0.4527  0.2643  1.8936
  154SAPE  C22017162   3.910   2.317   8.277 -0.2466 -0.2934 -0.4584
  154SAPE  H20R17163   3.955   2.230   8.328  1.1756  0.0501 -1.0740
  154SAPE  H20S17164   4.000   2.382   8.278 -0.5141  0.1043  1.6596
  154SAPE  H20T17165   3.876   2.291   8.174 -1.2511 -2.1128  0.2793
  154SAPE   C3317166   3.555   3.225  10.034  0.1894 -0.3148  0.2032
  154SAPE   H3X17167   3.517   3.253   9.933 -0.4816  0.4068  0.6373
  154SAPE   H3Y17168   3.525   3.312  10.096 -1.7178 -1.3926  0.8734
  154SAPE   C3417169   3.474   3.103  10.082  0.6415 -0.7369 -0.6786
  154SAPE   H4X17170   3.369   3.137  10.081  0.6844 -0.5721 -0.0990
  154SAPE   H4Y17171   3.504   3.087  10.188  1.1450 -1.3227 -0.9031
  154SAPE   C3517172   3.476   2.978   9.997  0.4290  0.0636  0.6776
  154SAPE   H5X17173   3.402   2.912  10.047 -0.6649 -1.6795 -2.9115
  154SAPE   H5Y17174   3.579   2.936   9.998 -0.2202 -1.8501 -2.3911
  154SAPE   C3617175   3.443   3.005   9.842  0.1465  0.1161 -0.4863
  154SAPE   H6X17176   3.517   3.071   9.792  1.1785  1.3504  2.4517
  154SAPE   H6Y17177   3.342   3.050   9.838  0.3723  0.8677  1.1387
  154SAPE   C3717178   3.437   2.869   9.770  0.1877 -0.0610 -0.0182
  154SAPE   H7X17179   3.407   2.791   9.843  0.0277  0.0039 -0.0133
  154SAPE   H7Y17180   3.537   2.830   9.745 -0.6339 -3.2733  1.2826
  154SAPE   C3817181   3.344   2.876   9.648  0.7389  0.2064 -0.3943
  154SAPE   H8X17182   3.246   2.912   9.684 -0.5319 -2.6226 -0.8244
  154SAPE   H8Y17183   3.323   2.773   9.614 -0.5518  0.2324  0.2746
  154SAPE   C3917184   3.401   2.969   9.541 -0.2298  0.1250  0.3535
  154SAPE   H9X17185   3.511   2.966   9.533 -0.2036  2.3380 -0.6740
  154SAPE   H9Y17186   3.392   3.075   9.570  3.6571  0.4139  0.9125
  154SAPE  C31017187   3.331   2.936   9.402  0.7622 -0.4946 -0.0127
  154SAPE  H10X17188   3.228   2.978   9.404  1.3260  1.2283 -2.4580
  154SAPE  H10Y17189   3.336   2.825   9.397 -1.7708 -0.6530 -0.0805
  154SAPE  C31117190   3.416   2.992   9.290 -0.3909 -0.0879  0.1742
  154SAPE  H11X17191   3.505   2.929   9.269 -0.2554  0.5433 -1.2796
  154SAPE  H11Y17192   3.445   3.097   9.311  1.0297 -0.7314  1.6511
  154SAPE  C31217193   3.331   2.986   9.160  0.3906  0.1110  0.1936
  154SAPE  H12X17194   3.232   3.033   9.180 -0.0772 -0.0059 -1.6679
  154SAPE  H12Y17195   3.317   2.878   9.137  0.3975 -0.1843  1.5003
  154SAPE  C31317196   3.390   3.058   9.039 -0.1895 -0.4590 -0.4170
  154SAPE  H13X17197   3.494   3.027   9.013 -0.3675 -0.6045 -0.9624
  154SAPE  H13Y17198   3.387   3.164   9.072 -1.6188 -0.5371 -0.2570
  154SAPE  C31417199   3.296   3.059   8.913  0.6265 -0.2567  0.0290
  154SAPE  H14X17200   3.192   3.079   8.948  0.0125  2.7156 -3.0130
  154SAPE  H14Y17201   3.300   2.962   8.859  1.0026 -0.1111 -0.2075
  154SAPE  C31517202   3.324   3.177   8.817 -0.0634  0.0262 -0.6658
  154SAPE  H15X17203   3.265   3.173   8.723 -3.1449  2.6376  0.9606
  154SAPE  H15Y17204   3.433   3.173   8.793  0.5291  2.7091  1.0751
  154SAPE  C31617205   3.288   3.323   8.866  0.4323  0.0443  0.3480
  154SAPE  H16X17206   3.326   3.398   8.793  0.5452  1.1754  1.5406
  154SAPE  H16Y17207   3.332   3.332   8.967  1.6793 -2.8831  0.1619
  154SAPE  C31717208   3.135   3.348   8.879 -0.1566  0.1007 -0.4503
  154SAPE  H17X17209   3.091   3.280   8.956  0.9133 -2.5921 -2.0568
  154SAPE  H17Y17210   3.083   3.322   8.785 -0.6550  0.8235 -0.3774
  154SAPE  C31817211   3.086   3.496   8.891  0.1549 -0.3648  0.0595
  154SAPE  H18X17212   3.111   3.539   8.990 -0.3599  0.6110 -0.2288
  154SAPE  H18Y17213   2.975   3.498   8.895  0.0796 -2.1414 -0.0219
  154SAPE  H18Z17214   3.129   3.565   8.816 -1.0475  0.0709 -0.2435
  155SAPE     N17215   3.767   1.424  10.643  0.3647 -0.3039  0.7092
  155SAPE   HN117216   3.801   1.387  10.552 -0.9364  1.1653 -0.4415
  155SAPE   HN217217   3.681   1.480  10.625  1.0392  0.7156  0.5558
  155SAPE   HN317218   3.827   1.503  10.675  0.5423 -0.1775  0.0809
  155SAPE   C1217219   3.750   1.324  10.753  0.2484  0.2857  0.7131
  155SAPE  H12A17220   3.671   1.249  10.732  0.3559  0.2437  0.4550
  155SAPE  H12B17221   3.726   1.384  10.843  2.5094  1.0208  0.8924
  155SAPE   C1117222   3.882   1.255  10.792 -0.1425 -0.0158  0.4089
  155SAPE  H11A17223   3.852   1.174  10.861  0.1657 -1.1589 -0.7660
  155SAPE  H11B17224   3.958   1.322  10.837  0.2002 -0.6978  0.8565
  155SAPE     P17225   4.087   1.122  10.694 -0.0974 -0.3003 -0.1501
  155SAPE   O1317226   4.154   1.150  10.820  0.3467 -0.1353 -0.3119
  155SAPE   O1417227   4.078   0.981  10.672 -0.0563  0.9874  0.7125
  155SAPE   O1217228   3.943   1.191  10.685  1.0092 -0.3667 -0.0104
  155SAPE   O1117229   4.170   1.194  10.570  0.0300 -0.9300  0.8067
  155SAPE    C117230   4.293   1.122  10.539 -0.7484 -0.3286 -0.1171
  155SAPE    HA17231   4.381   1.160  10.596 -0.4025  0.7111 -1.2971
  155SAPE    HB17232   4.285   1.012  10.547  0.0038 -0.3756  0.0876
  155SAPE    C217233   4.325   1.151  10.389  0.7104  1.2153  0.7702
  155SAPE    HS17234   4.419   1.095  10.371 -0.2576  0.2237 -1.6453
  155SAPE   O2117235   4.331   1.293  10.361 -0.1280  0.5978  0.0959
  155SAPE   C2117236   4.431   1.355  10.407  0.0256 -0.6081 -0.2177
  155SAPE   O2217237   4.528   1.297  10.454 -0.6295  0.3175  0.0178
  155SAPE   C2217238   4.425   1.509  10.381 -0.2248 -0.0953 -0.1962
  155SAPE   H2R17239   4.326   1.535  10.425 -0.7003  0.5608 -1.6025
  155SAPE   H2S17240   4.504   1.557  10.442  1.6620 -1.8219 -1.1662
  155SAPE    C317241   4.211   1.086  10.299  0.3922  0.5835  0.5728
  155SAPE    HX17242   4.109   1.094  10.342 -0.2333 -1.1561 -0.4855
  155SAPE    HY17243   4.233   0.977  10.296  0.6436  0.6235  0.8692
  155SAPE   O3117244   4.218   1.140  10.172 -0.3501  0.2225  0.4471
  155SAPE   C3117245   4.158   1.249  10.148 -0.2482 -0.3580 -0.4352
  155SAPE   O3217246   4.065   1.303  10.209  0.0567 -0.2936  0.1661
  155SAPE   C3217247   4.197   1.292  10.003 -0.0324  0.2475  0.9482
  155SAPE   H2X17248   4.149   1.229   9.926  0.0814  1.1014  0.1574
  155SAPE   H2Y17249   4.308   1.286  10.000 -0.0263 -0.2578  1.8611
  155SAPE   C2317250   4.422   1.544  10.225  0.2500  0.3871  0.2531
  155SAPE   H3R17251   4.357   1.633  10.215 -1.3438 -0.4653  2.4333
  155SAPE   H3S17252   4.386   1.462  10.159 -1.0117  1.7181 -0.7890
  155SAPE   C2417253   4.561   1.574  10.164 -0.0507 -0.1064 -0.5781
  155SAPE   H4R17254   4.557   1.583  10.053 -0.0394  0.5538 -0.5298
  155SAPE   H4S17255   4.620   1.484  10.190  1.5143  0.4041 -2.1743
  155SAPE   C2517256   4.617   1.703  10.220 -0.5220 -0.3135  0.8279
  155SAPE   H5R17257   4.658   1.686  10.320  0.4935 -0.0801  0.4674
  155SAPE   C2617258   4.633   1.824  10.154  0.1236  0.4801  0.2859
  155SAPE   H6R17259   4.684   1.912  10.194 -1.8656  1.1702  1.4722
  155SAPE   C2717260   4.584   1.853  10.018  0.0776 -0.1210  0.8279
  155SAPE   H7R17261   4.604   1.768   9.949 -0.0777  0.4042  0.1305
  155SAPE   H7S17262   4.652   1.932   9.981 -1.2915  0.8382  0.3030
  155SAPE   C2817263   4.442   1.903  10.004  0.2620 -0.5806  0.5224
  155SAPE   H8R17264   4.387   1.939  10.093  0.1408  2.5897 -0.7311
  155SAPE   C2917265   4.378   1.927   9.888 -0.2870  0.2738 -0.5164
  155SAPE   H9R17266   4.276   1.968   9.888  0.1843  1.6117  1.6162
  155SAPE  C21017267   4.443   1.922   9.752 -0.1123  0.3767  0.0281
  155SAPE  H10R17268   4.553   1.912   9.763 -0.0863 -0.9467 -1.2159
  155SAPE  H10S17269   4.442   2.023   9.707  3.3494  0.2076 -0.7048
  155SAPE  C21117270   4.386   1.819   9.657 -0.4922 -0.7971 -0.3782
  155SAPE  H11R17271   4.357   1.726   9.708 -1.7845 -0.6401 -0.7740
  155SAPE  C21217272   4.379   1.829   9.521 -0.5480  0.2587  0.1765
  155SAPE  H12R17273   4.356   1.735   9.470  0.7322  0.5072 -0.9126
  155SAPE  C21317274   4.430   1.942   9.445  1.1271  0.1003  0.3553
  155SAPE  H13R17275   4.458   2.026   9.513  0.1503  0.4151  0.3965
  155SAPE  H13S17276   4.351   1.982   9.378 -0.1457 -2.6894  0.0526
  155SAPE  C21417277   4.551   1.898   9.363  0.0468  0.1472 -0.0405
  155SAPE  H14R17278   4.636   1.861   9.421 -0.7782 -1.6310  0.1137
  155SAPE  C21517279   4.566   1.916   9.230 -0.1073  0.8564 -0.4881
  155SAPE  H15R17280   4.653   1.865   9.187  1.1746  2.4593  0.0932
  155SAPE  C21617281   4.465   1.981   9.134  0.4365  0.3598  0.7458
  155SAPE  H16R17282   4.512   2.036   9.051 -1.3452 -0.4832 -0.9037
  155SAPE  H16S17283   4.413   2.058   9.195 -2.9216 -1.3069  0.2554
  155SAPE  C21717284   4.349   1.891   9.106 -0.7594  0.0226 -0.2072
  155SAPE  H17R17285   4.262   1.955   9.077 -1.4143  0.0971  1.7664
  155SAPE  H17S17286   4.306   1.845   9.197 -1.4588 -2.6326 -1.7785
  155SAPE  C21817287   4.382   1.795   8.993  0.7927 -0.0669 -0.1609
  155SAPE  H18R17288   4.443   1.714   9.037 -0.1167 -1.3087 -1.1235
  155SAPE  H18S17289   4.434   1.852   8.914 -0.5107  1.1245 -0.2119
  155SAPE  C21917290   4.252   1.741   8.931  0.0001 -0.7122  0.0185
  155SAPE  H19R17291   4.180   1.821   8.906 -1.4070 -1.3939  1.6233
  155SAPE  H19S17292   4.196   1.687   9.011 -0.2786 -1.2602 -0.5408
  155SAPE  C22017293   4.273   1.657   8.808 -0.3472  0.2885 -0.4466
  155SAPE  H20R17294   4.313   1.723   8.728  2.1778 -0.2796  0.2675
  155SAPE  H20S17295   4.178   1.611   8.772  0.1035 -2.1884  1.2681
  155SAPE  H20T17296   4.346   1.576   8.827 -0.6567  0.5188  2.1282
  155SAPE   C3317297   4.155   1.435   9.968 -1.0684  0.6144 -0.7044
  155SAPE   H3X17298   4.188   1.499  10.053 -1.4747  0.1862 -0.2132
  155SAPE   H3Y17299   4.045   1.452   9.962 -1.3659 -0.9969 -0.2947
  155SAPE   C3417300   4.234   1.486   9.854 -0.1114 -0.5291 -0.4402
  155SAPE   H4X17301   4.342   1.498   9.876 -0.6273  1.2648  1.3374
  155SAPE   H4Y17302   4.196   1.588   9.833 -1.5746 -1.2264 -1.2947
  155SAPE   C3517303   4.219   1.422   9.716  0.1929 -0.0187 -0.4395
  155SAPE   H5X17304   4.244   1.314   9.716 -0.6229 -0.2432  1.2455
  155SAPE   H5Y17305   4.284   1.461   9.635 -0.6047 -1.3345 -1.7548
  155SAPE   C3617306   4.068   1.431   9.672 -0.1183 -0.1210 -0.1540
  155SAPE   H6X17307   4.049   1.539   9.654 -0.2818 -0.0922  0.1662
  155SAPE   H6Y17308   3.998   1.410   9.756  0.0602  0.9853  0.2955
  155SAPE   C3717309   4.035   1.360   9.540  0.1365 -0.0006 -0.1153
  155SAPE   H7X17310   3.926   1.341   9.529  0.7133 -3.7650 -0.6228
  155SAPE   H7Y17311   4.082   1.259   9.549 -2.3615 -1.5206 -2.5228
  155SAPE   C3817312   4.088   1.430   9.412  0.5715 -0.0995 -0.1828
  155SAPE   H8X17313   4.199   1.427   9.414  0.6416  1.0665 -1.0804
  155SAPE   H8Y17314   4.054   1.536   9.415 -1.8251 -0.7547 -1.4328
  155SAPE   C3917315   4.028   1.372   9.281 -0.3600 -1.1209 -0.1251
  155SAPE   H9X17316   3.927   1.414   9.260  0.8987  1.5676 -1.2168
  155SAPE   H9Y17317   4.025   1.261   9.272 -0.9980 -0.9663 -2.7319
  155SAPE  C31017318   4.104   1.435   9.160 -0.2221  0.2842 -0.2053
  155SAPE  H10X17319   4.206   1.392   9.159 -0.0989  0.5267  1.2180
  155SAPE  H10Y17320   4.102   1.543   9.185 -1.0808  0.4395 -0.8870
  155SAPE  C31117321   4.040   1.407   9.018 -0.3594  0.5575 -0.5378
  155SAPE  H11X17322   4.070   1.313   8.967 -2.4884 -0.7575  0.4851
  155SAPE  H11Y17323   4.090   1.478   8.949 -0.4691  1.4582  0.2855
  155SAPE  C31217324   3.887   1.415   9.000 -0.3489  0.3273 -0.7835
  155SAPE  H12X17325   3.847   1.518   8.996  0.8658  0.8173 -0.8472
  155SAPE  H12Y17326   3.835   1.357   9.078  1.2808  0.2844  0.3304
  155SAPE  C31317327   3.833   1.375   8.860 -0.2703  1.6692 -0.5425
  155SAPE  H13X17328   3.723   1.385   8.872 -0.3957  3.2455 -2.5487
  155SAPE  H13Y17329   3.855   1.266   8.854 -1.5134  1.3700  0.0092
  155SAPE  C31417330   3.886   1.458   8.739 -0.1292  0.2462  0.1075
  155SAPE  H14X17331   3.843   1.404   8.652  0.0286 -2.1881  1.4421
  155SAPE  H14Y17332   3.997   1.459   8.733 -0.1389 -1.0748 -0.5855
  155SAPE  C31517333   3.832   1.606   8.730  0.1377 -0.1599  0.6348
  155SAPE  H15X17334   3.877   1.670   8.809 -1.7771 -0.0604  1.6968
  155SAPE  H15Y17335   3.722   1.612   8.740 -0.0327  0.9488 -1.4836
  155SAPE  C31617336   3.855   1.669   8.590 -0.6303 -0.7082 -0.6460
  155SAPE  H16X17337   3.811   1.596   8.518 -2.9566 -0.9019  0.8641
  155SAPE  H16Y17338   3.964   1.686   8.575 -0.1807 -2.6879  0.0906
  155SAPE  C31717339   3.765   1.793   8.575 -0.1326 -0.4245 -0.1660
  155SAPE  H17X17340   3.797   1.866   8.652 -1.5951  0.8357 -0.7192
  155SAPE  H17Y17341   3.657   1.785   8.599 -0.3733 -1.4065 -1.4497
  155SAPE  C31817342   3.783   1.853   8.436 -0.1654 -1.3927  0.3877
  155SAPE  H18X17343   3.697   1.921   8.421  1.9931  1.2827 -0.6545
  155SAPE  H18Y17344   3.770   1.779   8.354 -0.0516 -0.8610 -0.1198
  155SAPE  H18Z17345   3.874   1.912   8.413 -1.8276  1.0688 -0.2836
  156SAPE     N17346   2.331   6.396  10.629  0.1867 -0.1109  0.3801
  156SAPE   HN117347   2.404   6.357  10.566  1.1197 -0.3466  1.5740
  156SAPE   HN217348   2.362   6.492  10.653 -3.2405  1.4885 -0.8718
  156SAPE   HN317349   2.316   6.331  10.709  0.0717 -0.3727  0.1481
  156SAPE   C1217350   2.210   6.404  10.547  0.3630 -0.0733  0.0115
  156SAPE  H12A17351   2.234   6.453  10.450 -0.9474 -0.0675 -0.3341
  156SAPE  H12B17352   2.140   6.467  10.605  2.7547  0.8860  2.0270
  156SAPE   C1117353   2.139   6.268  10.545 -0.2201 -0.1095 -0.1902
  156SAPE  H11A17354   2.206   6.208  10.479 -0.1352  0.1490 -0.3382
  156SAPE  H11B17355   2.039   6.289  10.501 -1.7555 -0.3493  2.9433
  156SAPE     P17356   2.033   6.087  10.698 -0.0350  0.4338  0.0350
  156SAPE   O1317357   2.114   5.974  10.751 -0.2086 -0.4308 -0.2220
  156SAPE   O1417358   1.923   6.141  10.776 -0.3932  0.4081 -0.0151
  156SAPE   O1217359   2.136   6.200  10.668  0.2889 -0.4465  0.4966
  156SAPE   O1117360   1.976   6.047  10.552 -0.0794  0.5669  0.2012
  156SAPE    C117361   1.957   5.906  10.532  0.2914 -0.0183 -0.2267
  156SAPE    HA17362   2.016   5.842  10.600  1.8782 -1.2105 -2.5832
  156SAPE    HB17363   1.849   5.888  10.549  0.4489 -0.2521  0.5708
  156SAPE    C217364   2.001   5.844  10.393  0.3276 -0.0025 -0.0779
  156SAPE    HS17365   2.111   5.852  10.402  0.0992  1.7546  2.1942
  156SAPE   O2117366   1.945   5.929  10.286 -0.3440  0.0352 -0.4880
  156SAPE   C2117367   2.022   6.025  10.250 -0.3026  0.4603  0.4121
  156SAPE   O2217368   2.134   6.055  10.295  0.7535  0.0313 -0.4119
  156SAPE   C2217369   1.943   6.100  10.140  0.6033  0.5024  0.3118
  156SAPE   H2R17370   1.933   6.041  10.046  0.2181  1.1259 -0.0477
  156SAPE   H2S17371   1.840   6.101  10.182 -0.0676  0.5345 -1.2684
  156SAPE    C317372   1.951   5.702  10.353 -0.1930  0.1868 -0.6129
  156SAPE    HX17373   1.841   5.711  10.367 -0.0159 -0.2585  1.4783
  156SAPE    HY17374   1.992   5.631  10.429  1.1377  1.6799  0.1382
  156SAPE   O3117375   1.976   5.669  10.216 -0.3729  0.0208  0.3027
  156SAPE   C3117376   1.898   5.564  10.168 -1.0854 -0.2837  0.2477
  156SAPE   O3217377   1.822   5.506  10.243  0.2669  0.1997  0.0684
  156SAPE   C3217378   1.929   5.542  10.022  0.3316  0.0803 -0.1707
  156SAPE   H2X17379   1.830   5.504   9.989 -0.3652 -0.7075  2.5633
  156SAPE   H2Y17380   2.005   5.462  10.011 -0.2291 -0.7558  1.6730
  156SAPE   C2317381   1.994   6.240  10.108  0.2809 -0.2304  0.2766
  156SAPE   H3R17382   2.091   6.214  10.061 -1.3622 -3.2575 -1.8350
  156SAPE   H3S17383   1.997   6.315  10.190  2.3897  1.7171 -1.4399
  156SAPE   C2417384   1.913   6.304   9.995 -0.5237 -0.2172 -0.1408
  156SAPE   H4R17385   1.813   6.337  10.030  0.0028  1.8757 -0.4741
  156SAPE   H4S17386   1.888   6.228   9.918  0.5516 -2.3215  1.4675
  156SAPE   C2517387   1.975   6.433   9.957 -0.4023 -1.3322 -0.1295
  156SAPE   H5R17388   2.004   6.504  10.036  0.2497 -0.3908 -1.1893
  156SAPE   C2617389   2.014   6.452   9.828 -0.6482 -0.3551  0.9806
  156SAPE   H6R17390   2.044   6.549   9.787 -3.2234  0.5546  1.0648
  156SAPE   C2717391   1.988   6.350   9.710 -0.1217 -1.0486  0.2670
  156SAPE   H7R17392   1.987   6.241   9.728  0.4070 -1.0027  0.6014
  156SAPE   H7S17393   2.084   6.349   9.653 -0.9836  0.9881 -1.3658
  156SAPE   C2817394   1.872   6.389   9.620  0.7142  0.5908 -0.1305
  156SAPE   H8R17395   1.773   6.401   9.668  0.4859  1.6844 -0.8366
  156SAPE   C2917396   1.869   6.431   9.494 -0.1983  0.9084  0.1928
  156SAPE   H9R17397   1.770   6.437   9.446 -0.8905  1.5256  1.6531
  156SAPE  C21017398   1.984   6.436   9.406 -0.4992  0.3070 -0.4143
  156SAPE  H10R17399   2.024   6.333   9.405 -0.6092  0.2604 -0.0802
  156SAPE  H10S17400   2.070   6.492   9.449 -0.2906  0.4864 -1.0546
  156SAPE  C21117401   1.964   6.487   9.263  0.5515 -0.1825 -0.2685
  156SAPE  H11R17402   1.896   6.420   9.209 -0.4537  0.5755  0.0327
  156SAPE  C21217403   2.025   6.597   9.214  0.0933 -0.3864  1.0127
  156SAPE  H12R17404   1.981   6.638   9.121  0.9331  1.2704  1.3139
  156SAPE  C21317405   2.119   6.696   9.280  0.4005  0.4308 -0.9147
  156SAPE  H13R17406   2.143   6.658   9.382 -0.2260  1.1626 -0.4780
  156SAPE  H13S17407   2.053   6.776   9.320 -2.0208 -1.8277 -0.1241
  156SAPE  C21417408   2.232   6.749   9.205 -0.7377  0.4064  0.6499
  156SAPE  H14R17409   2.210   6.850   9.167 -2.7384  0.9577  2.9739
  156SAPE  C21517410   2.356   6.703   9.186  0.8053 -0.7046 -0.0205
  156SAPE  H15R17411   2.425   6.758   9.121  0.4661 -3.0995 -2.6042
  156SAPE  C21617412   2.413   6.593   9.268 -0.3147 -0.3334  0.2323
  156SAPE  H16R17413   2.492   6.534   9.215  1.5439  1.5713  0.7417
  156SAPE  H16S17414   2.336   6.525   9.310 -0.9860  0.7667  0.7995
  156SAPE  C21717415   2.475   6.665   9.392 -0.3333 -0.0621 -0.1477
  156SAPE  H17R17416   2.406   6.741   9.434 -1.3509  0.9969 -3.3897
  156SAPE  H17S17417   2.570   6.709   9.356 -1.5472  1.6178 -1.5090
  156SAPE  C21817418   2.503   6.563   9.503 -0.4104 -0.0389  0.6199
  156SAPE  H18R17419   2.571   6.486   9.460  2.0862  0.2479  3.6697
  156SAPE  H18S17420   2.410   6.514   9.537 -1.1820  1.5556  0.8861
  156SAPE  C21917421   2.568   6.617   9.633 -0.2372 -0.7880 -0.2775
  156SAPE  H19R17422   2.513   6.712   9.654 -2.4415 -1.2953 -3.0688
  156SAPE  H19S17423   2.675   6.644   9.617 -0.0854 -1.2795 -0.1056
  156SAPE  C22017424   2.559   6.516   9.749 -0.7211 -0.3097  0.3905
  156SAPE  H20R17425   2.581   6.567   9.844 -1.2729  1.0008 -0.1636
  156SAPE  H20S17426   2.638   6.438   9.740 -1.1410 -0.8053  0.8896
  156SAPE  H20T17427   2.460   6.464   9.752 -1.1020  0.2386 -1.4318
  156SAPE   C3317428   1.953   5.676   9.942 -0.1802 -0.2092 -0.9625
  156SAPE   H3X17429   2.062   5.700   9.942 -0.4833  1.6633  1.7459
  156SAPE   H3Y17430   1.901   5.765   9.983  0.2376  0.6180 -2.1850
  156SAPE   C3417431   1.907   5.669   9.799  0.2194  0.0862  0.2169
  156SAPE   H4X17432   1.798   5.672   9.783  0.2874  0.8558 -0.1442
  156SAPE   H4Y17433   1.956   5.573   9.771  0.4610 -0.5477  2.6288
  156SAPE   C3517434   1.977   5.774   9.717 -0.5964 -0.0225  0.2405
  156SAPE   H5X17435   2.084   5.783   9.745  0.2089 -1.6803 -1.9528
  156SAPE   H5Y17436   1.931   5.873   9.740  0.8342  1.0193 -1.2426
  156SAPE   C3617437   1.960   5.743   9.563  0.3362  0.4008 -0.3294
  156SAPE   H6X17438   1.855   5.713   9.542 -0.5012  3.4167 -0.9585
  156SAPE   H6Y17439   2.026   5.655   9.551  1.7899  1.1335  1.6871
  156SAPE   C3717440   2.008   5.858   9.479 -0.4486 -0.0893  0.1606
  156SAPE   H7X17441   2.101   5.907   9.516  0.6629 -1.7737 -0.3096
  156SAPE   H7Y17442   1.927   5.934   9.484 -0.5651 -0.0468 -1.8021
  156SAPE   C3817443   2.028   5.803   9.337 -0.2233 -0.7949 -0.4376
  156SAPE   H8X17444   1.935   5.743   9.325 -0.9090  0.2384 -0.4565
  156SAPE   H8Y17445   2.107   5.725   9.332  0.4219 -0.0812 -1.9782
  156SAPE   C3917446   2.030   5.918   9.244  0.6091 -0.6296  0.6872
  156SAPE   H9X17447   2.108   5.988   9.280  0.3672  1.5197 -2.5759
  156SAPE   H9Y17448   1.932   5.969   9.246  0.5213 -0.8090  1.1332
  156SAPE  C31017449   2.044   5.882   9.097  0.0632  0.2194  0.2103
  156SAPE  H10X17450   2.142   5.836   9.071 -0.4483  0.6742 -2.9659
  156SAPE  H10Y17451   2.049   5.975   9.037 -2.9288  1.7633  2.1393
  156SAPE  C31117452   1.942   5.791   9.040  0.3584  0.1996 -0.2170
  156SAPE  H11X17453   1.850   5.854   9.044 -0.7493 -1.2139 -2.0488
  156SAPE  H11Y17454   1.917   5.702   9.101  0.4776  1.4025  1.6627
  156SAPE  C31217455   1.954   5.736   8.896 -0.0919 -0.2590  0.6437
  156SAPE  H12X17456   2.029   5.654   8.888  0.4367  0.4120 -2.2006
  156SAPE  H12Y17457   1.976   5.825   8.835 -0.0131  0.3039  1.4748
  156SAPE  C31317458   1.824   5.678   8.842  0.5582  0.8464 -0.2253
  156SAPE  H13X17459   1.749   5.759   8.831 -1.8304 -1.3985 -2.2306
  156SAPE  H13Y17460   1.777   5.599   8.905  2.0561 -1.0033 -1.2907
  156SAPE  C31417461   1.836   5.620   8.699 -0.8128  0.1342  0.3472
  156SAPE  H14X17462   1.913   5.540   8.707  1.5465  2.0372 -1.7811
  156SAPE  H14Y17463   1.873   5.697   8.628  1.5756  1.0199  2.3856
  156SAPE  C31517464   1.708   5.559   8.645 -0.1055 -0.0939 -0.0810
  156SAPE  H15X17465   1.630   5.636   8.625  0.5189  0.1827 -1.6784
  156SAPE  H15Y17466   1.679   5.478   8.715  1.6503 -0.2731  0.4829
  156SAPE  C31617467   1.725   5.497   8.498  0.5917 -0.2498 -0.2702
  156SAPE  H16X17468   1.778   5.580   8.447 -0.4823  1.6859  1.5741
  156SAPE  H16Y17469   1.625   5.468   8.459 -0.1791  1.8128  0.0520
  156SAPE  C31717470   1.793   5.361   8.500 -0.9033 -0.1234 -0.3894
  156SAPE  H17X17471   1.726   5.288   8.549 -0.7142  0.7956  1.3307
  156SAPE  H17Y17472   1.882   5.371   8.565 -2.0331 -0.3083  1.2368
  156SAPE  C31817473   1.837   5.323   8.355 -0.0145 -0.5742  0.3386
  156SAPE  H18X17474   1.882   5.222   8.341  1.0518  0.0269 -0.7516
  156SAPE  H18Y17475   1.911   5.400   8.324 -1.4709  1.5132  1.7663
  156SAPE  H18Z17476   1.748   5.343   8.292  1.6505  3.0658 -1.1546
  157SAPE     N17477   2.368   0.292  10.657 -0.0857  0.4585 -0.3659
  157SAPE   HN117478   2.471   0.274  10.662 -0.0889  0.6353  0.5206
  157SAPE   HN217479   2.337   0.386  10.626  1.3053  1.4367  0.9921
  157SAPE   HN317480   2.352   0.288  10.760 -0.8262 -2.6712 -0.5013
  157SAPE   C1217481   2.306   0.184  10.581 -0.1304  0.0370 -0.0666
  157SAPE  H12A17482   2.340   0.087  10.624  0.6957 -0.8522 -2.5288
  157SAPE  H12B17483   2.337   0.182  10.475  0.8659 -0.1964  0.2191
  157SAPE   C1117484   2.148   0.191  10.594 -0.2734  0.2676  0.4433
  157SAPE  H11A17485   2.125   0.200  10.703 -2.1726  1.8514 -0.0330
  157SAPE  H11B17486   2.107   0.096  10.556  0.1138  0.3227 -0.1279
  157SAPE     P17487   1.954   0.348  10.500  0.0349  0.1336  0.5875
  157SAPE   O1317488   1.894   0.341  10.635  0.5170  0.0235 -0.5510
  157SAPE   O1417489   1.960   0.480  10.436  0.4188 -0.4835 -0.2803
  157SAPE   O1217490   2.107   0.309  10.521  0.1610 -1.0168  0.9078
  157SAPE   O1117491   1.889   0.241  10.399 -0.1681 -0.1910 -0.2042
  157SAPE    C117492   1.972   0.207  10.286 -0.0062 -0.1226 -0.3106
  157SAPE    HA17493   2.072   0.171  10.319 -0.1953  0.1747  0.6143
  157SAPE    HB17494   1.929   0.117  10.236  2.5964 -1.8864  0.4579
  157SAPE    C217495   1.981   0.317  10.168  0.1422 -0.5069 -0.4228
  157SAPE    HS17496   2.032   0.400  10.220 -1.9391  1.7869 -1.8238
  157SAPE   O2117497   1.845   0.361  10.138 -0.1142  0.4059  0.4303
  157SAPE   C2117498   1.840   0.466  10.059  0.9171 -0.2929  0.4070
  157SAPE   O2217499   1.929   0.536  10.021  0.6064  0.0822  0.8925
  157SAPE   C2217500   1.687   0.493  10.020 -0.2771 -0.0198  0.0809
  157SAPE   H2R17501   1.699   0.558   9.930 -0.2248  1.2051  0.9454
  157SAPE   H2S17502   1.644   0.401   9.975 -0.6867  1.0917 -1.9244
  157SAPE    C317503   2.058   0.253  10.053 -0.1323  0.1254 -1.1018
  157SAPE    HX17504   2.158   0.224  10.093 -0.4052  1.5083  0.6841
  157SAPE    HY17505   2.073   0.322   9.966  1.9030  0.2381 -0.7216
  157SAPE   O3117506   1.992   0.135  10.013 -0.4323 -0.1965 -0.2774
  157SAPE   C3117507   1.895   0.141   9.921  0.9863 -0.0882 -0.4766
  157SAPE   O3217508   1.855   0.246   9.873  0.1127 -0.7843  0.4392
  157SAPE   C3217509   1.822   0.006   9.903  0.3230  0.4066 -0.3407
  157SAPE   H2X17510   1.720   0.016   9.946  1.0732  0.6790  1.4848
  157SAPE   H2Y17511   1.871  -0.072   9.966 -1.2545 -1.1220 -0.9415
  157SAPE   C2317512   1.600   0.567  10.127  0.1608  0.7036  0.4286
  157SAPE   H3R17513   1.663   0.650  10.166  0.1626  0.3781  1.1315
  157SAPE   H3S17514   1.562   0.503  10.209 -1.4466  0.5529 -0.3974
  157SAPE   C2417515   1.475   0.638  10.060  0.1292 -0.4902  0.5367
  157SAPE   H4R17516   1.419   0.703  10.130  0.0380  1.7658 -1.5186
  157SAPE   H4S17517   1.418   0.544  10.041  2.3423 -1.7141 -0.5135
  157SAPE   C2517518   1.512   0.711   9.930 -0.0061 -0.2010 -0.2504
  157SAPE   H5R17519   1.566   0.804   9.952 -0.8571  0.1277  0.5514
  157SAPE   C2617520   1.488   0.680   9.797 -0.1516 -0.2705 -0.0095
  157SAPE   H6R17521   1.540   0.725   9.711  0.0888  0.3903  0.4744
  157SAPE   C2717522   1.407   0.560   9.749 -0.1186 -0.2742  0.3368
  157SAPE   H7R17523   1.319   0.585   9.685 -1.6026  1.3695  2.8424
  157SAPE   H7S17524   1.348   0.515   9.831  0.2447 -0.0158  0.7399
  157SAPE   C2817525   1.488   0.444   9.702 -0.2666  0.3992 -0.0430
  157SAPE   H8R17526   1.535   0.382   9.780  2.1463  0.3112 -1.4736
  157SAPE   C2917527   1.506   0.396   9.574  0.2071 -0.2038  0.0009
  157SAPE   H9R17528   1.571   0.308   9.558  2.5003  1.7701 -2.4719
  157SAPE  C21017529   1.459   0.462   9.445 -0.1385 -0.0382 -0.1089
  157SAPE  H10R17530   1.410   0.557   9.474 -1.3622 -0.1848 -1.5629
  157SAPE  H10S17531   1.372   0.409   9.399 -1.8697  1.6115  1.0885
  157SAPE  C21117532   1.582   0.497   9.364 -0.4690  0.3543 -0.8744
  157SAPE  H11R17533   1.664   0.530   9.429 -0.5761 -2.2715  0.7290
  157SAPE  C21217534   1.595   0.494   9.230  0.2829 -0.0300  0.0811
  157SAPE  H12R17535   1.687   0.540   9.191  0.9371 -2.9327 -2.1186
  157SAPE  C21317536   1.485   0.443   9.141  0.4523 -0.3929  0.0180
  157SAPE  H13R17537   1.464   0.516   9.059  2.0733 -1.4401 -1.4197
  157SAPE  H13S17538   1.387   0.430   9.191 -1.3233  1.8558 -2.5793
  157SAPE  C21417539   1.520   0.313   9.067  0.3980 -0.5812 -0.0847
  157SAPE  H14R17540   1.497   0.220   9.120  1.2274  0.0568  1.4542
  157SAPE  C21517541   1.569   0.302   8.934  0.3833  0.5120 -0.6573
  157SAPE  H15R17542   1.590   0.204   8.887  2.2423  0.2571  0.6048
  157SAPE  C21617543   1.612   0.415   8.842 -0.2065  0.0412 -0.1277
  157SAPE  H16R17544   1.717   0.449   8.850 -0.7311  3.0050 -3.5227
  157SAPE  H16S17545   1.543   0.500   8.862 -0.0348 -0.3800  2.6087
  157SAPE  C21717546   1.597   0.381   8.695  0.4527  0.2557  0.3124
  157SAPE  H17R17547   1.656   0.292   8.665 -0.5173 -0.2731 -0.0918
  157SAPE  H17S17548   1.646   0.465   8.642 -0.6751  0.6672 -0.1103
  157SAPE  C21817549   1.449   0.353   8.649  0.0936  0.6264 -0.3756
  157SAPE  H18R17550   1.384   0.437   8.683 -0.3503 -0.9196  3.0817
  157SAPE  H18S17551   1.417   0.267   8.713  0.5564  0.0705 -0.8809
  157SAPE  C21917552   1.450   0.317   8.502  0.0976  0.0859  0.3333
  157SAPE  H19R17553   1.502   0.219   8.494 -1.2245 -0.9145  2.7771
  157SAPE  H19S17554   1.480   0.403   8.440  2.3192 -0.9843 -0.1485
  157SAPE  C22017555   1.310   0.289   8.447 -0.8823 -0.0792 -0.3471
  157SAPE  H20R17556   1.273   0.192   8.487 -1.9499 -0.5409 -2.3037
  157SAPE  H20S17557   1.331   0.281   8.338 -1.9500 -0.1489 -0.5622
  157SAPE  H20T17558   1.239   0.372   8.465 -0.8025 -0.2965  1.0708
  157SAPE   C3317559   1.816  -0.036   9.757 -0.5519  0.1544  0.1489
  157SAPE   H3X17560   1.795  -0.145   9.757 -0.9921  0.2075  1.9801
  157SAPE   H3Y17561   1.917  -0.037   9.711  0.5091  0.0295  2.3569
  157SAPE   C3417562   1.714   0.036   9.670  0.4564 -0.1847 -0.8887
  157SAPE   H4X17563   1.741   0.144   9.671 -2.4549  0.6269 -0.3102
  157SAPE   H4Y17564   1.609   0.027   9.706  0.4492 -0.9249 -1.0809
  157SAPE   C3517565   1.720  -0.018   9.530  0.5964  0.9272  0.1408
  157SAPE   H5X17566   1.695  -0.126   9.523  0.6551  0.8700  0.7798
  157SAPE   H5Y17567   1.828  -0.010   9.505  0.4035  0.1184 -1.0356
  157SAPE   C3617568   1.636   0.055   9.429  0.1625  0.1193  0.3488
  157SAPE   H6X17569   1.666   0.161   9.443  0.8598  0.1391 -1.1234
  157SAPE   H6Y17570   1.526   0.047   9.435  0.1836  0.2118  0.9152
  157SAPE   C3717571   1.681   0.029   9.292 -0.9218  0.5493 -0.1296
  157SAPE   H7X17572   1.791   0.027   9.277 -0.7424  1.0483  0.9886
  157SAPE   H7Y17573   1.643   0.117   9.236  1.2283  2.3156  1.0680
  157SAPE   C3817574   1.630  -0.105   9.225 -0.0275 -0.9447  0.0411
  157SAPE   H8X17575   1.519  -0.101   9.225 -0.0011  0.3949 -0.0677
  157SAPE   H8Y17576   1.668  -0.191   9.284  1.9374 -0.7817 -0.9128
  157SAPE   C3917577   1.674  -0.120   9.078 -0.3665 -0.0538 -0.5578
  157SAPE   H9X17578   1.778  -0.082   9.069 -0.7233  1.5101  1.4196
  157SAPE   H9Y17579   1.608  -0.063   9.009 -3.6391 -2.2916  0.5202
  157SAPE  C31017580   1.689  -0.268   9.030 -0.1425 -0.7867 -0.5454
  157SAPE  H10X17581   1.589  -0.312   9.007 -0.8613 -0.5935  1.9020
  157SAPE  H10Y17582   1.723  -0.332   9.114 -1.1327  0.7077  1.0739
  157SAPE  C31117583   1.776  -0.287   8.903 -0.0225 -0.4741  0.0275
  157SAPE  H11X17584   1.801  -0.393   8.881  0.4066 -0.3688  0.0061
  157SAPE  H11Y17585   1.870  -0.235   8.930 -0.3791  0.0348  0.3061
  157SAPE  C31217586   1.720  -0.211   8.777 -0.0568  0.2091  0.3146
  157SAPE  H12X17587   1.695  -0.103   8.792 -2.5284 -0.1221 -0.8688
  157SAPE  H12Y17588   1.621  -0.260   8.763  0.2589 -0.5718  0.7606
  157SAPE  C31317589   1.815  -0.226   8.658  0.3233  0.5502  0.0602
  157SAPE  H13X17590   1.825  -0.333   8.631  0.7967  0.1097  1.8806
  157SAPE  H13Y17591   1.918  -0.205   8.694 -0.1105  1.3682  0.8522
  157SAPE  C31417592   1.793  -0.139   8.537 -0.4764  0.2998 -0.3507
  157SAPE  H14X17593   1.785  -0.036   8.577 -0.4027  0.3040 -0.3477
  157SAPE  H14Y17594   1.698  -0.168   8.488  1.0366 -2.8718 -1.6894
  157SAPE  C31517595   1.912  -0.149   8.429  0.9368 -0.4411 -0.6748
  157SAPE  H15X17596   1.910  -0.248   8.379  2.4672 -0.2774 -1.1298
  157SAPE  H15Y17597   2.005  -0.150   8.489  0.1680  0.3772  0.5673
  157SAPE  C31617598   1.917  -0.038   8.322 -0.2241 -0.1170  0.0155
  157SAPE  H16X17599   1.811  -0.023   8.294 -0.0954 -0.8270 -0.8813
  157SAPE  H16Y17600   1.974  -0.075   8.235  2.8650  3.8287  0.0675
  157SAPE  C31717601   1.979   0.096   8.362  0.4014 -0.9446  0.1674
  157SAPE  H17X17602   2.074   0.115   8.308  0.9610  0.5501  1.5907
  157SAPE  H17Y17603   2.002   0.095   8.470 -2.5117 -0.1239  0.9048
  157SAPE  C31817604   1.895   0.220   8.333  0.8883 -0.1108 -0.6222
  157SAPE  H18X17605   1.790   0.216   8.369  1.0628 -0.2110 -0.1139
  157SAPE  H18Y17606   1.889   0.230   8.223  0.7467 -1.1134 -0.7157
  157SAPE  H18Z17607   1.937   0.314   8.376 -0.3955 -0.2883  1.1521
  158SAPE     N17608   4.891   5.343  10.555 -0.0532 -0.2923  0.3762
  158SAPE   HN117609   4.909   5.365  10.455  0.6749 -0.0939  0.5497
  158SAPE   HN217610   4.884   5.242  10.579  1.7740  0.1610  3.2271
  158SAPE   HN317611   4.811   5.406  10.576  0.0700  0.4730 -1.2541
  158SAPE   C1217612   4.997   5.379  10.650 -0.1885  0.3738  0.5821
  158SAPE  H12A17613   5.070   5.296  10.646 -1.3636 -0.6484 -1.8873
  158SAPE  H12B17614   4.952   5.368  10.751 -0.2466  0.4758  0.5674
  158SAPE   C1117615   5.054   5.518  10.624  0.1503 -0.7070  0.5942
  158SAPE  H11A17616   5.099   5.512  10.523 -2.4366 -3.2041 -0.5551
  158SAPE  H11B17617   5.136   5.551  10.692  1.0795 -0.3553 -0.6499
  158SAPE     P17618   4.945   5.759  10.566 -0.1322  0.1028 -0.1108
  158SAPE   O1317619   4.809   5.805  10.563  0.5360 -0.1252  0.3268
  158SAPE   O1417620   5.047   5.840  10.642  0.2132 -0.4798 -0.0722
  158SAPE   O1217621   4.937   5.608  10.625 -0.1155  0.1079 -0.3787
  158SAPE   O1117622   4.996   5.730  10.419  0.5284 -0.1170  0.0029
  158SAPE    C117623   4.899   5.707  10.316 -0.0276 -0.4650  0.1417
  158SAPE    HA17624   4.853   5.607  10.332 -0.2324 -1.0716 -3.4506
  158SAPE    HB17625   4.819   5.784  10.321  1.9166  1.6829  0.0372
  158SAPE    C217626   4.962   5.713  10.167  0.4253  0.4128  0.2297
  158SAPE    HS17627   5.056   5.654  10.170  0.4712  0.4912  2.7778
  158SAPE   O2117628   4.982   5.848  10.133  0.4766 -0.0170  0.0724
  158SAPE   C2117629   5.075   5.876  10.044  0.5368 -0.1344 -0.0890
  158SAPE   O2217630   5.153   5.791   9.998  0.2202  0.3442  0.6830
  158SAPE   C2217631   5.084   6.027  10.018 -0.1196 -0.0843 -0.0361
  158SAPE   H2R17632   4.983   6.070  10.002 -0.7672  0.5165  4.2941
  158SAPE   H2S17633   5.140   6.068  10.105  1.2617  0.0391 -0.9537
  158SAPE    C317634   4.879   5.633  10.054 -0.1943 -0.3430 -0.6315
  158SAPE    HX17635   4.787   5.694  10.045  0.6704  1.8774  3.1711
  158SAPE    HY17636   4.846   5.546  10.115 -0.0324  0.3692  0.4963
  158SAPE   O3117637   4.948   5.606   9.926  0.3715  0.1341  0.3931
  158SAPE   C3117638   5.033   5.500   9.928  1.0973  0.5086 -0.0689
  158SAPE   O3217639   5.035   5.415  10.018 -0.1526  0.2392  0.5013
  158SAPE   C3217640   5.136   5.524   9.816 -0.7735 -0.3255  0.3661
  158SAPE   H2X17641   5.237   5.512   9.859  0.0719  3.5302 -0.1408
  158SAPE   H2Y17642   5.122   5.632   9.794 -0.3250 -0.1842  0.7622
  158SAPE   C2317643   5.172   6.074   9.901 -0.0747  0.4376  0.9481
  158SAPE   H3R17644   5.260   6.006   9.905 -0.0331  0.3258 -1.0451
  158SAPE   H3S17645   5.192   6.183   9.894  0.9511  0.1778 -0.5700
  158SAPE   C2417646   5.103   6.041   9.761  0.2407 -0.3085 -0.3255
  158SAPE   H4R17647   5.004   6.090   9.746 -0.5514 -1.9721 -0.7197
  158SAPE   H4S17648   5.079   5.933   9.760 -0.3586 -0.1881 -1.6988
  158SAPE   C2517649   5.195   6.044   9.640 -0.2594 -1.2667  0.1300
  158SAPE   H5R17650   5.272   5.967   9.625  1.3492  0.4720 -0.7289
  158SAPE   C2617651   5.187   6.131   9.532  0.1031  0.5209  0.2617
  158SAPE   H6R17652   5.248   6.109   9.444 -2.2690 -2.4015 -0.8549
  158SAPE   C2717653   5.083   6.242   9.510 -1.7458 -0.4193 -0.8852
  158SAPE   H7R17654   5.116   6.310   9.429 -2.1973  0.9820  0.0788
  158SAPE   H7S17655   5.091   6.305   9.602  1.3649  1.5307 -2.3125
  158SAPE   C2817656   4.942   6.188   9.481 -0.2080  0.4468 -0.0460
  158SAPE   H8R17657   4.934   6.088   9.437 -0.0440  0.6788 -0.6146
  158SAPE   C2917658   4.826   6.251   9.505 -0.2458 -0.1078 -0.2981
  158SAPE   H9R17659   4.734   6.197   9.479  1.1560 -3.6752  1.4736
  158SAPE  C21017660   4.811   6.394   9.571 -0.0426 -0.2809 -0.0966
  158SAPE  H10R17661   4.721   6.440   9.525  0.1422  0.0261 -0.1543
  158SAPE  H10S17662   4.892   6.459   9.530  0.2250 -0.8890 -0.5399
  158SAPE  C21117663   4.799   6.396   9.721 -0.1752 -0.2576 -0.4702
  158SAPE  H11R17664   4.820   6.304   9.778  0.5193 -0.6663 -1.3661
  158SAPE  C21217665   4.757   6.508   9.788 -0.0965 -0.5693  0.4012
  158SAPE  H12R17666   4.756   6.510   9.898  0.9675 -3.0742  0.5409
  158SAPE  C21317667   4.720   6.638   9.722  0.0018 -0.3475  0.3013
  158SAPE  H13R17668   4.609   6.649   9.716  0.1174  0.3274 -1.4042
  158SAPE  H13S17669   4.753   6.640   9.616  0.3361  0.6758  0.4163
  158SAPE  C21417670   4.788   6.751   9.795  0.4487 -0.3389  0.1753
  158SAPE  H14R17671   4.779   6.733   9.904  1.9963 -1.4653  0.1491
  158SAPE  C21517672   4.813   6.876   9.754 -1.0932  0.2023  0.1352
  158SAPE  H15R17673   4.868   6.942   9.823  0.5736 -0.6312 -0.3302
  158SAPE  C21617674   4.805   6.922   9.610  0.5162 -0.0829 -1.2141
  158SAPE  H16R17675   4.723   6.997   9.600 -1.2315 -1.9112 -1.1197
  158SAPE  H16S17676   4.786   6.844   9.534 -2.4873 -0.6257 -0.0237
  158SAPE  C21717677   4.932   7.003   9.580  0.7880 -0.1116  0.2616
  158SAPE  H17R17678   5.006   6.920   9.575  1.7257  0.7544 -0.4580
  158SAPE  H17S17679   4.958   7.072   9.663  0.5001 -0.1564  0.3935
  158SAPE  C21817680   4.922   7.061   9.446  0.1375  0.3371  0.9725
  158SAPE  H18R17681   4.859   7.152   9.454  0.0627  0.2479  1.4290
  158SAPE  H18S17682   4.873   6.984   9.383  2.4074 -0.4840  0.1161
  158SAPE  C21917683   5.058   7.087   9.376  0.2325  0.2870 -0.2511
  158SAPE  H19R17684   5.096   6.996   9.323  0.2295 -0.8922  1.6922
  158SAPE  H19S17685   5.127   7.125   9.454 -0.8600  1.1013  0.3336
  158SAPE  C22017686   5.050   7.200   9.268  0.2592  0.5072  0.6775
  158SAPE  H20R17687   5.007   7.167   9.172  0.3665  0.8954  0.4940
  158SAPE  H20S17688   5.156   7.233   9.256  0.4170 -0.0589  0.4770
  158SAPE  H20T17689   5.009   7.293   9.313  0.0758  1.1935 -0.8513
  158SAPE   C3317690   5.119   5.438   9.695 -0.3722  0.1727  0.0203
  158SAPE   H3X17691   5.020   5.454   9.648 -0.1041 -0.0475 -0.6378
  158SAPE   H3Y17692   5.118   5.329   9.714 -0.6693  0.2109  0.2201
  158SAPE   C3417693   5.224   5.476   9.594 -0.1644 -0.4664 -0.2041
  158SAPE   H4X17694   5.221   5.397   9.516  1.1588 -0.0833 -0.6721
  158SAPE   H4Y17695   5.324   5.486   9.642  0.9127 -1.3540 -2.1674
  158SAPE   C3517696   5.194   5.606   9.516 -0.0795 -0.4067 -0.3464
  158SAPE   H5X17697   5.197   5.688   9.591 -1.8469 -0.4765 -0.1677
  158SAPE   H5Y17698   5.092   5.607   9.473 -0.7831  1.3847  1.1993
  158SAPE   C3617699   5.298   5.640   9.411  0.6093 -0.2296  0.5889
  158SAPE   H6X17700   5.285   5.565   9.331 -0.2151 -1.5959  1.9518
  158SAPE   H6Y17701   5.404   5.640   9.443  0.9299  0.5888 -0.4252
  158SAPE   C3717702   5.271   5.782   9.371 -0.4121 -0.2953 -0.0530
  158SAPE   H7X17703   5.312   5.857   9.441 -1.2559  1.8435 -1.7090
  158SAPE   H7Y17704   5.163   5.807   9.365 -0.7312 -1.8319 -1.6030
  158SAPE   C3817705   5.317   5.814   9.230  0.1604 -0.3491 -0.7114
  158SAPE   H8X17706   5.255   5.750   9.164  0.4385  0.0711 -1.3927
  158SAPE   H8Y17707   5.423   5.784   9.216  0.0127 -1.7669  0.8799
  158SAPE   C3917708   5.291   5.962   9.179 -0.7784  0.4466  0.3822
  158SAPE   H9X17709   5.353   5.975   9.088  4.9401  0.1416  3.7310
  158SAPE   H9Y17710   5.349   6.015   9.258 -1.2271 -0.4282  1.3166
  158SAPE  C31017711   5.145   6.010   9.175  0.3401 -0.4143 -0.1736
  158SAPE  H10X17712   5.151   6.118   9.199  0.5671 -0.9421  2.3628
  158SAPE  H10Y17713   5.082   5.968   9.256 -0.2600 -1.3341 -1.0837
  158SAPE  C31117714   5.069   5.984   9.044 -0.0737 -0.3773  0.4729
  158SAPE  H11X17715   5.051   5.875   9.040 -0.2692 -0.3369  0.2046
  158SAPE  H11Y17716   5.124   6.012   8.951  1.2970 -3.2258  0.3214
  158SAPE  C31217717   4.933   6.066   9.037  0.0976 -0.8277  0.6676
  158SAPE  H12X17718   4.862   6.026   9.112  1.8541  0.1599  2.9905
  158SAPE  H12Y17719   4.894   6.041   8.936 -0.1489 -2.1939  1.0835
  158SAPE  C31317720   4.942   6.216   9.053 -0.5435  0.1563 -0.3718
  158SAPE  H13X17721   5.034   6.260   9.009 -1.2345  1.1149 -0.8976
  158SAPE  H13Y17722   4.961   6.218   9.163  2.1670 -2.4727 -0.6405
  158SAPE  C31417723   4.825   6.301   9.006  0.9305 -0.4037  0.1871
  158SAPE  H14X17724   4.734   6.283   9.067  1.8678  0.2138  1.8413
  158SAPE  H14Y17725   4.797   6.263   8.906 -2.1528  0.4870  0.5783
  158SAPE  C31517726   4.852   6.449   8.998 -0.6486 -0.5094  0.0717
  158SAPE  H15X17727   4.767   6.488   8.939 -0.8240 -1.6106 -0.4181
  158SAPE  H15Y17728   4.948   6.487   8.956 -0.7756  1.0556  1.1194
  158SAPE  C31617729   4.835   6.513   9.132 -0.0436 -0.2363  0.0287
  158SAPE  H16X17730   4.928   6.501   9.190  0.1541 -1.3900 -0.4926
  158SAPE  H16Y17731   4.764   6.452   9.192  1.7695 -2.4255  0.0697
  158SAPE  C31717732   4.800   6.663   9.134  0.6374  0.5513  0.1296
  158SAPE  H17X17733   4.707   6.681   9.076 -0.6246 -5.3257 -0.3198
  158SAPE  H17Y17734   4.871   6.734   9.086  2.2729 -1.7390 -1.0466
  158SAPE  C31817735   4.769   6.700   9.278 -0.1674 -0.2123  0.4746
  158SAPE  H18X17736   4.862   6.688   9.337 -0.2957 -0.4718  0.6248
  158SAPE  H18Y17737   4.698   6.621   9.312  0.6044 -0.8496  0.6343
  158SAPE  H18Z17738   4.740   6.806   9.298 -2.1265 -0.4869 -0.5907
  159SAPE     N17739   6.312   3.218   6.352 -0.0978  0.2440  0.6855
  159SAPE   HN117740   6.234   3.281   6.376 -1.3650 -0.4033 -1.4764
  159SAPE   HN217741   6.380   3.290   6.321 -1.9902  1.8512  0.0760
  159SAPE   HN317742   6.289   3.171   6.262  2.6850  0.3439 -0.1729
  159SAPE   C1217743   6.342   3.117   6.454  0.1983 -0.1882 -0.2402
  159SAPE  H12A17744   6.352   3.020   6.401  1.3404  0.3594 -1.0887
  159SAPE  H12B17745   6.261   3.098   6.527  0.8197 -1.5196  0.1357
  159SAPE   C1117746   6.461   3.168   6.543  0.6862  0.3736  0.0828
  159SAPE  H11A17747   6.481   3.077   6.603 -0.9425 -0.2926 -0.3131
  159SAPE  H11B17748   6.434   3.259   6.601  1.9540  1.4266 -0.9184
  159SAPE     P17749   6.690   3.289   6.507 -0.1144  0.1391 -0.0122
  159SAPE   O1317750   6.770   3.318   6.386  0.2037 -0.2794 -0.4553
  159SAPE   O1417751   6.629   3.408   6.572  0.0594  0.1359 -0.0332
  159SAPE   O1217752   6.571   3.197   6.460  0.2502 -0.3451  0.3638
  159SAPE   O1117753   6.769   3.205   6.615 -0.7692  0.1208  0.5764
  159SAPE    C117754   6.810   3.071   6.579  0.2258  0.4799  0.3567
  159SAPE    HA17755   6.718   3.011   6.558 -0.9835  2.2121  0.4215
  159SAPE    HB17756   6.868   3.072   6.484 -1.5765 -1.8846 -0.8766
  159SAPE    C217757   6.897   3.011   6.690  0.5353 -0.7637 -0.6369
  159SAPE    HS17758   6.914   2.902   6.676  0.8109 -0.4825 -3.0392
  159SAPE   O2117759   6.850   3.040   6.825 -0.1681  0.3312  0.2787
  159SAPE   C2117760   6.740   2.976   6.851 -1.0054 -0.1163 -0.7803
  159SAPE   O2217761   6.679   2.898   6.780  0.2988 -0.1300 -0.3944
  159SAPE   C2217762   6.700   3.011   7.000 -0.0578  0.2238 -0.0494
  159SAPE   H2R17763   6.778   3.060   7.061 -0.4781 -0.7284  1.2921
  159SAPE   H2S17764   6.614   3.082   7.000  0.5150  0.9506 -1.4121
  159SAPE    C317765   7.038   3.066   6.685 -0.8274 -0.1603 -0.2450
  159SAPE    HX17766   7.079   3.038   6.586  0.2266 -2.7362  0.8321
  159SAPE    HY17767   7.106   3.012   6.754  0.7886  0.0428 -1.6335
  159SAPE   O3117768   7.046   3.204   6.708  0.4924  0.5476 -0.0326
  159SAPE   C3117769   7.054   3.275   6.600  0.0226  0.1952 -0.2719
  159SAPE   O3217770   7.058   3.238   6.482 -0.6377  0.3262 -0.3036
  159SAPE   C3217771   7.049   3.422   6.640 -0.7427 -0.1580  0.3621
  159SAPE   H2X17772   6.952   3.441   6.689 -0.3322  1.4384  0.5919
  159SAPE   H2Y17773   7.052   3.492   6.554 -0.3217  1.3464  1.5565
  159SAPE   C2317774   6.646   2.882   7.082  1.2900 -0.2989  0.1613
  159SAPE   H3R17775   6.568   2.834   7.020  1.0427 -0.3312  0.4957
  159SAPE   H3S17776   6.604   2.911   7.180 -1.0527 -0.0135 -0.8640
  159SAPE   C2417777   6.762   2.780   7.103  0.1282 -0.2208 -0.5633
  159SAPE   H4R17778   6.845   2.820   7.164  0.8304 -1.4309 -0.6964
  159SAPE   H4S17779   6.803   2.765   7.000  0.8004  0.0270 -0.3346
  159SAPE   C2517780   6.709   2.649   7.153 -0.3898 -0.5634  0.6799
  159SAPE   H5R17781   6.631   2.597   7.095 -0.2407 -1.4488  1.2594
  159SAPE   C2617782   6.740   2.591   7.266 -0.3787  0.8435 -0.4654
  159SAPE   H6R17783   6.699   2.492   7.289 -1.0863  1.1502 -0.3926
  159SAPE   C2717784   6.843   2.648   7.360  0.7500 -0.1659 -0.1340
  159SAPE   H7R17785   6.928   2.701   7.311 -0.1770 -0.0053 -1.6273
  159SAPE   H7S17786   6.887   2.563   7.417  2.2544  0.5148 -0.2227
  159SAPE   C2817787   6.774   2.751   7.443 -0.0337 -0.3008 -0.1079
  159SAPE   H8R17788   6.701   2.823   7.403 -0.2848 -0.5877 -0.1701
  159SAPE   C2917789   6.793   2.763   7.573 -0.4798  0.1708 -0.3522
  159SAPE   H9R17790   6.736   2.838   7.630  0.0832  1.4646 -1.4422
  159SAPE  C21017791   6.877   2.687   7.662 -0.4758  0.2886 -0.1324
  159SAPE  H10R17792   6.900   2.745   7.754 -1.5501 -1.3672  1.2423
  159SAPE  H10S17793   6.974   2.665   7.613 -0.6536 -1.4266  0.2034
  159SAPE  C21117794   6.826   2.548   7.697  0.2452 -0.0704  0.2454
  159SAPE  H11R17795   6.788   2.498   7.607  0.2170  0.5584 -0.0996
  159SAPE  C21217796   6.822   2.484   7.815 -0.3015 -0.6103  0.4768
  159SAPE  H12R17797   6.792   2.378   7.817  1.7692 -1.2736 -0.5899
  159SAPE  C21317798   6.863   2.537   7.951 -0.8423 -0.1359 -0.1151
  159SAPE  H13R17799   6.935   2.621   7.960 -0.6257 -0.3704  0.3782
  159SAPE  H13S17800   6.909   2.453   8.007 -1.9070 -1.8678 -1.7324
  159SAPE  C21417801   6.735   2.573   8.019  0.7395 -0.0486 -0.5409
  159SAPE  H14R17802   6.637   2.544   7.979  0.7592 -1.5116  0.4143
  159SAPE  C21517803   6.738   2.655   8.128  0.0258 -0.8979 -0.7941
  159SAPE  H15R17804   6.646   2.697   8.172  1.9435  1.3263  1.4101
  159SAPE  C21617805   6.862   2.709   8.191 -0.1732 -0.5745 -0.2885
  159SAPE  H16R17806   6.959   2.683   8.141  0.7394  2.7325 -0.5056
  159SAPE  H16S17807   6.870   2.667   8.293 -2.3138 -0.5296 -0.0701
  159SAPE  C21717808   6.867   2.861   8.203  0.4995 -0.1320  0.1606
  159SAPE  H17R17809   6.837   2.911   8.108 -0.0805 -0.2205  0.2954
  159SAPE  H17S17810   6.965   2.911   8.221 -0.4657  1.1193  2.2110
  159SAPE  C21817811   6.768   2.914   8.306 -0.0684 -0.1494  0.3939
  159SAPE  H18R17812   6.663   2.892   8.278 -0.8403  1.2779  1.9798
  159SAPE  H18S17813   6.760   3.024   8.294 -3.1191 -0.4661 -1.3154
  159SAPE  C21917814   6.796   2.885   8.452  0.0565  0.0602 -0.4640
  159SAPE  H19R17815   6.893   2.931   8.480 -0.0808  0.7457 -1.0905
  159SAPE  H19S17816   6.791   2.775   8.466  0.5811 -0.0516 -1.1340
  159SAPE  C22017817   6.682   2.926   8.554  0.2930  0.6438 -0.5130
  159SAPE  H20R17818   6.594   2.859   8.547  1.4341 -1.0272  0.3273
  159SAPE  H20S17819   6.653   3.032   8.542 -0.0080  0.5654 -0.4879
  159SAPE  H20T17820   6.717   2.899   8.657  0.8678 -2.8981 -1.4859
  159SAPE   C3317821   7.155   3.457   6.753 -0.6097  0.1690 -0.2693
  159SAPE   H3X17822   7.256   3.415   6.732 -0.4414 -0.3384  1.4424
  159SAPE   H3Y17823   7.115   3.418   6.849  2.1825  1.2915  1.4913
  159SAPE   C3417824   7.162   3.609   6.775  1.1653  0.7742  0.2413
  159SAPE   H4X17825   7.060   3.652   6.787  0.6937 -0.5585  1.2781
  159SAPE   H4Y17826   7.214   3.651   6.687  1.7690  0.5066  0.4634
  159SAPE   C3517827   7.242   3.656   6.902  0.0290  0.2728 -0.4652
  159SAPE   H5X17828   7.228   3.765   6.917  1.8101  0.2836  1.4863
  159SAPE   H5Y17829   7.349   3.630   6.892  0.3049  1.2208 -0.0758
  159SAPE   C3617830   7.196   3.590   7.028  0.3385  0.2708  0.4290
  159SAPE   H6X17831   7.218   3.482   7.014 -0.2028  0.3140 -0.9183
  159SAPE   H6Y17832   7.088   3.604   7.050  0.2658  1.9168 -0.8516
  159SAPE   C3717833   7.273   3.646   7.145  0.1355  0.3269  0.0656
  159SAPE   H7X17834   7.265   3.756   7.152 -1.0385  0.1726  1.6556
  159SAPE   H7Y17835   7.381   3.620   7.136  0.0090  0.1379 -0.9917
  159SAPE   C3817836   7.239   3.574   7.282 -0.8412  0.9361 -0.1899
  159SAPE   H8X17837   7.257   3.464   7.273 -3.7879  0.4342 -0.8304
  159SAPE   H8Y17838   7.130   3.581   7.302 -0.7126 -1.7640  2.0815
  159SAPE   C3917839   7.328   3.632   7.399  0.3697  0.0717 -0.0936
  159SAPE   H9X17840   7.258   3.692   7.461 -0.6733  0.0734 -1.2145
  159SAPE   H9Y17841   7.407   3.706   7.374  0.8774  0.4015  2.2803
  159SAPE  C31017842   7.393   3.519   7.477 -0.1936  0.2413 -0.7872
  159SAPE  H10X17843   7.485   3.485   7.424  0.4051  0.0931  0.3198
  159SAPE  H10Y17844   7.333   3.425   7.480  1.7563 -1.0318  0.5490
  159SAPE  C31117845   7.414   3.553   7.624  0.3467 -0.1691 -0.2373
  159SAPE  H11X17846   7.428   3.663   7.634 -0.6415 -0.2286  2.7688
  159SAPE  H11Y17847   7.510   3.505   7.652  0.2192 -0.4108 -0.2154
  159SAPE  C31217848   7.305   3.495   7.710 -0.7266  0.3198 -0.7318
  159SAPE  H12X17849   7.310   3.386   7.690  2.5064  0.3477 -0.5834
  159SAPE  H12Y17850   7.209   3.547   7.688 -1.7319  0.0982  2.6526
  159SAPE  C31317851   7.313   3.520   7.867 -0.2074  0.1344  0.3778
  159SAPE  H13X17852   7.224   3.471   7.910  0.8616 -1.1235  1.2421
  159SAPE  H13Y17853   7.304   3.629   7.886 -4.4503 -0.1649  0.9076
  159SAPE  C31417854   7.437   3.452   7.926 -0.5020  0.1277  0.2521
  159SAPE  H14X17855   7.538   3.486   7.896  0.4270 -1.5051  1.3877
  159SAPE  H14Y17856   7.438   3.347   7.890 -0.2086  0.8284 -1.9331
  159SAPE  C31517857   7.436   3.453   8.081 -0.1843  0.0703  0.0737
  159SAPE  H15X17858   7.331   3.431   8.112 -0.8142  0.6942 -1.5069
  159SAPE  H15Y17859   7.451   3.558   8.115  0.5644  0.0614 -0.2162
  159SAPE  C31617860   7.546   3.367   8.138 -0.0171  0.4620 -0.3768
  159SAPE  H16X17861   7.637   3.413   8.092 -0.4703  1.6462 -0.1419
  159SAPE  H16Y17862   7.546   3.262   8.101  1.1293 -0.1114  1.1689
  159SAPE  C31717863   7.560   3.387   8.287  0.5222  0.2470  0.2800
  159SAPE  H17X17864   7.560   3.496   8.311  0.9912  0.7457 -1.7894
  159SAPE  H17Y17865   7.655   3.348   8.329 -0.3743  1.1368  3.4331
  159SAPE  C31817866   7.453   3.318   8.371  0.1803 -0.8498  0.0693
  159SAPE  H18X17867   7.464   3.348   8.478 -1.8884  0.3105 -0.0052
  159SAPE  H18Y17868   7.455   3.207   8.373  0.9792 -0.8503  2.2754
  159SAPE  H18Z17869   7.358   3.351   8.325  0.1418  2.9808  2.4375
  160SAPE     N17870   6.162   4.878   6.044  0.7802 -0.0080 -0.3792
  160SAPE   HN117871   6.166   4.978   6.017  0.7028  0.1241  0.0982
  160SAPE   HN217872   6.170   4.823   5.956  0.7379  0.8996 -0.9640
  160SAPE   HN317873   6.072   4.856   6.091  1.8999 -1.1114  1.3632
  160SAPE   C1217874   6.280   4.841   6.130  0.3875 -0.2136 -0.3831
  160SAPE  H12A17875   6.366   4.848   6.060 -0.0131 -0.1051 -0.8711
  160SAPE  H12B17876   6.263   4.736   6.163 -1.8813  0.4612  0.7554
  160SAPE   C1117877   6.297   4.932   6.251 -1.0242 -0.4635  0.2981
  160SAPE  H11A17878   6.331   4.864   6.333 -0.1212 -0.7104 -0.2717
  160SAPE  H11B17879   6.202   4.972   6.292 -0.6998 -0.5685  1.1966
  160SAPE     P17880   6.369   5.180   6.205  0.2697  0.0160 -0.1444
  160SAPE   O1317881   6.493   5.256   6.167  0.3158 -0.8233  0.5149
  160SAPE   O1417882   6.246   5.197   6.127  0.1627 -0.2500  0.0197
  160SAPE   O1217883   6.398   5.029   6.221 -0.1971  0.0034  0.1265
  160SAPE   O1117884   6.321   5.199   6.357  0.1509  0.5068  0.4567
  160SAPE    C117885   6.414   5.165   6.462  0.7109 -0.1338  0.0373
  160SAPE    HA17886   6.399   5.059   6.492  0.8496  0.2681  1.5775
  160SAPE    HB17887   6.522   5.181   6.442  0.6685  2.4745  1.5530
  160SAPE    C217888   6.388   5.248   6.595 -0.1185  0.3322 -0.5535
  160SAPE    HS17889   6.278   5.239   6.608 -0.0890 -1.2190 -1.2076
  160SAPE   O2117890   6.435   5.384   6.578 -0.2787  0.1360 -0.0280
  160SAPE   C2117891   6.356   5.481   6.626  0.1350  0.3512  0.4349
  160SAPE   O2217892   6.256   5.466   6.696 -0.0065  0.2148 -0.7455
  160SAPE   C2217893   6.405   5.618   6.581  0.0835 -0.3260 -0.6011
  160SAPE   H2R17894   6.515   5.623   6.564  0.2051  2.1478  0.4512
  160SAPE   H2S17895   6.360   5.632   6.480 -3.2961  1.0948  0.9735
  160SAPE    C317896   6.448   5.180   6.725 -0.0581  0.8239 -0.0792
  160SAPE    HX17897   6.559   5.183   6.712 -0.1579  1.1397 -0.8781
  160SAPE    HY17898   6.426   5.071   6.728  0.7190  0.6552 -0.1399
  160SAPE   O3117899   6.399   5.241   6.850  0.2296 -0.5055  0.0338
  160SAPE   C3117900   6.263   5.226   6.868 -0.4384  0.5902 -0.0065
  160SAPE   O3217901   6.198   5.141   6.810  0.0722  0.1240 -0.2854
  160SAPE   C3217902   6.200   5.324   6.963 -1.0752  0.4233  0.2386
  160SAPE   H2X17903   6.092   5.322   6.936 -0.4609 -1.9930 -2.5836
  160SAPE   H2Y17904   6.242   5.422   6.933  1.8177 -1.3620 -2.2624
  160SAPE   C2317905   6.362   5.727   6.683 -0.4563  0.4922  0.5872
  160SAPE   H3R17906   6.258   5.704   6.714  0.0471  0.0216  1.9727
  160SAPE   H3S17907   6.357   5.819   6.620  0.3100  1.8130  2.3565
  160SAPE   C2417908   6.460   5.743   6.795  0.6391 -0.6939 -0.5763
  160SAPE   H4R17909   6.558   5.765   6.749  0.8072  0.4703  0.2885
  160SAPE   H4S17910   6.465   5.652   6.859  1.6004 -1.0306 -1.1088
  160SAPE   C2517911   6.429   5.864   6.883  0.0664 -0.5901 -0.2114
  160SAPE   H5R17912   6.463   5.959   6.839  0.3916 -1.5304 -2.1010
  160SAPE   C2617913   6.355   5.863   6.996 -0.0792 -0.1811  0.2404
  160SAPE   H6R17914   6.360   5.960   7.048 -0.4546  0.4905 -0.9424
  160SAPE   C2717915   6.284   5.741   7.056 -0.0941 -0.3680 -0.4260
  160SAPE   H7R17916   6.262   5.760   7.163 -1.3923  0.1921 -0.7765
  160SAPE   H7S17917   6.354   5.656   7.044  0.0275 -0.3748  0.3074
  160SAPE   C2817918   6.154   5.706   6.991 -1.2358 -0.0609 -0.1361
  160SAPE   H8R17919   6.168   5.719   6.883  1.3438  0.0426  0.1516
  160SAPE   C2917920   6.036   5.666   7.038 -0.2410 -0.0627 -0.3165
  160SAPE   H9R17921   5.955   5.636   6.970 -0.5425 -1.4573  0.6040
  160SAPE  C21017922   5.987   5.657   7.190 -0.2751  0.1652  0.1991
  160SAPE  H10R17923   6.053   5.579   7.232  0.3950 -0.7079 -2.2864
  160SAPE  H10S17924   5.888   5.609   7.204 -0.2946  0.7047  2.2856
  160SAPE  C21117925   6.005   5.788   7.271  0.1192 -0.1157  0.0587
  160SAPE  H11R17926   5.955   5.875   7.228  0.9790 -0.4666 -1.7494
  160SAPE  C21217927   6.071   5.805   7.385 -0.1605  0.6144 -0.2108
  160SAPE  H12R17928   6.063   5.900   7.440  0.0679  1.6422 -1.8991
  160SAPE  C21317929   6.150   5.700   7.470  0.2901 -0.2626  0.5008
  160SAPE  H13R17930   6.256   5.733   7.474  0.3538 -0.5547  2.2359
  160SAPE  H13S17931   6.159   5.603   7.416  1.4049  0.3952 -0.5353
  160SAPE  C21417932   6.104   5.674   7.612  1.1281  0.4108 -0.0036
  160SAPE  H14R17933   6.071   5.571   7.634  0.9202 -0.1026 -2.4093
  160SAPE  C21517934   6.088   5.765   7.714 -0.1730 -0.2326  0.4705
  160SAPE  H15R17935   6.060   5.729   7.814  0.3584  2.8006  1.8326
  160SAPE  C21617936   6.111   5.916   7.716 -0.1438  0.0665  0.5978
  160SAPE  H16R17937   6.013   5.966   7.730  0.9355  1.8264  2.5977
  160SAPE  H16S17938   6.154   5.940   7.616  1.8110 -2.9034  0.5836
  160SAPE  C21717939   6.204   5.983   7.823  0.4774 -0.5332  0.3963
  160SAPE  H17R17940   6.245   6.075   7.775 -1.0246 -0.2460 -0.4412
  160SAPE  H17S17941   6.287   5.910   7.832  0.7097 -0.2743  0.3599
  160SAPE  C21817942   6.142   5.997   7.964  0.3689 -0.3029  0.2180
  160SAPE  H18R17943   6.140   5.895   8.007 -0.1189 -1.0237 -1.4414
  160SAPE  H18S17944   6.038   6.035   7.951  0.6627  0.8888  1.1246
  160SAPE  C21917945   6.229   6.084   8.053  0.1288 -0.2213  0.7883
  160SAPE  H19R17946   6.249   6.184   8.008  0.0079  0.5755  2.4303
  160SAPE  H19S17947   6.332   6.041   8.052  0.6429  0.9680  0.6539
  160SAPE  C22017948   6.182   6.106   8.193  0.1980 -0.8988 -0.4073
  160SAPE  H20R17949   6.247   6.180   8.244 -2.6304  1.3845  0.1196
  160SAPE  H20S17950   6.182   6.007   8.245  0.4743 -0.7576 -0.1408
  160SAPE  H20T17951   6.076   6.135   8.205  0.0739 -1.7814  0.8250
  160SAPE   C3317952   6.216   5.300   7.115 -0.6174  0.3056  0.4795
  160SAPE   H3X17953   6.209   5.191   7.133  1.3292 -0.0843 -0.8500
  160SAPE   H3Y17954   6.138   5.363   7.163  0.8612  3.1269 -0.5400
  160SAPE   C3417955   6.361   5.333   7.167 -0.4294 -0.2362  0.0556
  160SAPE   H4X17956   6.391   5.425   7.113 -2.9787 -0.7946 -2.5549
  160SAPE   H4Y17957   6.437   5.255   7.142  0.4530  0.3842  0.7310
  160SAPE   C3517958   6.355   5.348   7.317 -0.0943 -0.0173  0.1249
  160SAPE   H5X17959   6.312   5.448   7.339 -1.4009 -0.4294 -0.4615
  160SAPE   H5Y17960   6.463   5.353   7.346 -0.0152  1.4290 -0.3132
  160SAPE   C3617961   6.272   5.230   7.386 -0.5354  0.3089 -0.2113
  160SAPE   H6X17962   6.332   5.137   7.377 -0.4418  0.1528  1.7293
  160SAPE   H6Y17963   6.175   5.216   7.334  0.0755 -0.8417 -1.1076
  160SAPE   C3717964   6.265   5.261   7.538 -0.6324  0.4483  0.1895
  160SAPE   H7X17965   6.211   5.172   7.578 -0.9202  0.4067 -0.2841
  160SAPE   H7Y17966   6.216   5.360   7.545  0.0376  1.0535 -2.5530
  160SAPE   C3817967   6.393   5.267   7.622 -0.5986 -0.7088  0.6975
  160SAPE   H8X17968   6.463   5.347   7.589 -0.8234 -0.8591 -0.1784
  160SAPE   H8Y17969   6.453   5.173   7.618  1.6956  0.6045  1.9972
  160SAPE   C3917970   6.367   5.293   7.770  0.6387 -0.2987 -0.1598
  160SAPE   H9X17971   6.325   5.395   7.774  1.2047 -0.0614 -0.2207
  160SAPE   H9Y17972   6.470   5.302   7.811  0.7972  2.4063 -0.9467
  160SAPE  C31017973   6.279   5.182   7.836  0.3318  0.3506 -0.4593
  160SAPE  H10X17974   6.317   5.086   7.796 -1.0219 -0.6478  0.5391
  160SAPE  H10Y17975   6.174   5.183   7.801  0.0316 -0.8344  0.3311
  160SAPE  C31117976   6.282   5.157   7.990 -0.3034 -0.5478 -0.8542
  160SAPE  H11X17977   6.387   5.174   8.023 -0.5909 -0.4886  0.0538
  160SAPE  H11Y17978   6.243   5.059   8.026 -3.2166  0.0972 -1.9422
  160SAPE  C31217979   6.196   5.256   8.063 -0.3779 -0.8307  0.3602
  160SAPE  H12X17980   6.088   5.251   8.035 -0.4520 -3.2034  0.9214
  160SAPE  H12Y17981   6.236   5.357   8.039  3.7245 -1.6469  2.7890
  160SAPE  C31317982   6.200   5.243   8.213  0.5217 -0.2541 -0.4098
  160SAPE  H13X17983   6.306   5.238   8.245  0.2302  0.7389  0.8197
  160SAPE  H13Y17984   6.152   5.151   8.254  1.7610 -1.3592 -1.3830
  160SAPE  C31417985   6.145   5.369   8.285  0.1954  0.1408  0.0019
  160SAPE  H14X17986   6.041   5.396   8.255  0.1872  0.0374 -0.0620
  160SAPE  H14Y17987   6.209   5.454   8.255 -0.1347 -0.5566 -2.9089
  160SAPE  C31517988   6.143   5.355   8.441 -0.5396  0.2122  0.2470
  160SAPE  H15X17989   6.249   5.368   8.473 -1.2771  0.6578  2.7976
  160SAPE  H15Y17990   6.115   5.248   8.452  0.3337 -0.1833 -1.2170
  160SAPE  C31617991   6.044   5.438   8.520  0.5473  0.1233 -1.3531
  160SAPE  H16X17992   5.945   5.440   8.470 -0.1618 -0.5981 -0.0374
  160SAPE  H16Y17993   6.073   5.545   8.515 -1.3758  0.9586  2.2430
  160SAPE  C31717994   6.024   5.385   8.666  0.0406  0.1925 -0.0187
  160SAPE  H17X17995   6.123   5.377   8.717 -0.9140  0.7895  2.0684
  160SAPE  H17Y17996   5.989   5.280   8.655 -1.7331  0.7429  0.0137
  160SAPE  C31817997   5.927   5.463   8.747  0.4614  0.1528  0.1575
  160SAPE  H18X17998   5.902   5.427   8.849 -2.4170  0.1209 -0.4860
  160SAPE  H18Y17999   5.827   5.459   8.699  0.8044  2.4253 -0.8727
  160SAPE  H18Z18000   5.958   5.567   8.767 -1.8289  0.6282  1.5890
  161SAPE     N18001   1.183   4.114   6.353  0.5371  0.1134  1.1355
  161SAPE   HN118002   1.119   4.146   6.278 -1.4690  0.6419  2.9581
  161SAPE   HN218003   1.166   4.012   6.368  0.3740 -0.6161 -2.9395
  161SAPE   HN318004   1.155   4.166   6.438  0.1871  0.7892  0.6127
  161SAPE   C1218005   1.323   4.148   6.319  0.2912 -0.4483  0.2230
  161SAPE  H12A18006   1.343   4.258   6.320 -1.9520  0.0023  0.7638
  161SAPE  H12B18007   1.352   4.093   6.227 -0.8679 -1.3108  0.3482
  161SAPE   C1118008   1.391   4.105   6.452  0.1849 -0.3942 -0.1292
  161SAPE  H11A18009   1.390   3.996   6.468 -2.2986 -0.2848  0.9388
  161SAPE  H11B18010   1.340   4.153   6.539 -0.7505  0.8152 -1.2786
  161SAPE     P18011   1.639   4.115   6.356 -0.2515 -0.1723  0.2731
  161SAPE   O1318012   1.609   3.987   6.294  0.0078 -0.1281 -0.4366
  161SAPE   O1418013   1.650   4.232   6.265 -0.3809  0.2023  0.1510
  161SAPE   O1218014   1.532   4.142   6.464  0.3714 -0.0014  0.0315
  161SAPE   O1118015   1.767   4.102   6.440  0.1012 -0.0007 -0.1001
  161SAPE    C118016   1.780   4.035   6.564 -0.4051  0.2560 -0.1263
  161SAPE    HA18017   1.696   4.061   6.633  0.5336  1.3345  0.6547
  161SAPE    HB18018   1.783   3.926   6.545  1.7838  0.4671 -1.2200
  161SAPE    C218019   1.923   4.070   6.622 -0.5067 -0.7200 -0.3316
  161SAPE    HS18020   1.993   4.030   6.545  1.1356  0.4768  0.4735
  161SAPE   O2118021   1.935   3.985   6.739  0.2883  0.0078  0.1053
  161SAPE   C2118022   2.053   3.952   6.766 -0.4248 -0.3168  0.6372
  161SAPE   O2218023   2.153   3.985   6.711 -0.8381  0.0232  0.2639
  161SAPE   C2218024   2.056   3.859   6.895  0.0549  1.1523  0.2597
  161SAPE   H2R18025   1.964   3.878   6.954 -1.6553  0.2755 -1.9751
  161SAPE   H2S18026   2.039   3.755   6.859  0.8995  1.1174 -0.0690
  161SAPE    C318027   1.953   4.221   6.650  0.9901  0.3114 -0.1240
  161SAPE    HX18028   1.877   4.255   6.724  0.6046 -2.3225  0.7717
  161SAPE    HY18029   1.933   4.279   6.557 -1.2205  0.3123  0.3043
  161SAPE   O3118030   2.084   4.252   6.703 -0.1514 -0.4876  0.2260
  161SAPE   C3118031   2.086   4.358   6.786 -0.0463 -0.0082  0.2355
  161SAPE   O3218032   1.988   4.424   6.818 -1.1030  0.1016 -0.3523
  161SAPE   C3218033   2.217   4.381   6.857 -0.2571 -0.2934  0.5353
  161SAPE   H2X18034   2.288   4.417   6.780  1.8780 -0.4743  2.3191
  161SAPE   H2Y18035   2.246   4.277   6.883 -1.2200 -0.4374  1.0959
  161SAPE   C2318036   2.183   3.877   6.979 -0.1455 -0.4603 -0.3981
  161SAPE   H3R18037   2.269   3.893   6.911  0.9598 -0.1174  1.0117
  161SAPE   H3S18038   2.208   3.788   7.041  1.3493 -0.9877 -1.6892
  161SAPE   C2418039   2.178   4.000   7.069 -0.1632  0.3369 -0.4745
  161SAPE   H4R18040   2.156   4.093   7.012 -1.3925  1.6333  1.9426
  161SAPE   H4S18041   2.275   4.007   7.122 -0.8717  0.8752  0.7970
  161SAPE   C2518042   2.067   4.005   7.173 -0.7612  0.2716  1.4422
  161SAPE   H5R18043   1.973   4.036   7.124 -0.0760  0.4625  0.2075
  161SAPE   C2618044   2.078   3.989   7.304  0.1851 -0.1160 -0.9638
  161SAPE   H6R18045   1.984   3.991   7.362  1.8114  1.2208  1.8426
  161SAPE   C2718046   2.198   3.967   7.389 -0.4062 -0.4293 -0.3015
  161SAPE   H7R18047   2.282   3.913   7.338  0.1632 -0.6334  0.8300
  161SAPE   H7S18048   2.165   3.889   7.461  0.3475 -2.2134 -1.7831
  161SAPE   C2818049   2.261   4.092   7.445  0.4560 -0.4327  0.2379
  161SAPE   H8R18050   2.324   4.146   7.372  0.4433 -0.0417  0.5122
  161SAPE   C2918051   2.261   4.141   7.571  0.6109  0.2156 -0.4782
  161SAPE   H9R18052   2.317   4.233   7.593  1.3990 -0.5327  0.7249
  161SAPE  C21018053   2.195   4.078   7.689  0.9492  0.5608 -0.7621
  161SAPE  H10R18054   2.170   3.971   7.673  1.6342  0.0824  1.0728
  161SAPE  H10S18055   2.095   4.119   7.713  0.8628 -0.2420  0.3171
  161SAPE  C21118056   2.290   4.071   7.809  0.4237  0.2716 -0.9776
  161SAPE  H11R18057   2.399   4.075   7.792  0.4172  0.1422 -1.0494
  161SAPE  C21218058   2.255   4.074   7.935 -0.0723 -0.2283  0.1575
  161SAPE  H12R18059   2.338   4.090   8.005  0.9661  2.4409 -1.5552
  161SAPE  C21318060   2.122   4.099   7.991  0.0655  1.0257 -0.0414
  161SAPE  H13R18061   2.116   4.042   8.087  2.9581 -2.4308 -1.6437
  161SAPE  H13S18062   2.040   4.055   7.931 -1.7868  0.8267  2.4962
  161SAPE  C21418063   2.082   4.243   8.009 -0.1245  0.5121  0.3710
  161SAPE  H14R18064   2.123   4.317   7.939 -2.8954  1.5001 -0.3281
  161SAPE  C21518065   2.008   4.290   8.109  0.0312  0.4528  0.2060
  161SAPE  H15R18066   2.012   4.398   8.131 -0.0521  0.1162  2.0766
  161SAPE  C21618067   1.951   4.220   8.223 -0.1365 -0.6331  0.1724
  161SAPE  H16R18068   1.895   4.129   8.192  0.2384 -0.3110 -1.5726
  161SAPE  H16S18069   1.882   4.292   8.271  0.6691 -0.4899  1.1470
  161SAPE  C21718070   2.053   4.193   8.335 -0.2173 -0.4069  0.2815
  161SAPE  H17R18071   2.148   4.150   8.296  0.5845  1.2729  0.2966
  161SAPE  H17S18072   2.004   4.124   8.406 -0.7250  0.9424  1.2897
  161SAPE  C21818073   2.098   4.312   8.415 -0.0108 -0.3277  1.0020
  161SAPE  H18R18074   2.009   4.370   8.446  1.1029  1.9111  0.1951
  161SAPE  H18S18075   2.146   4.385   8.347  2.6905  0.4225  3.4781
  161SAPE  C21918076   2.161   4.274   8.549 -0.2392 -0.3128 -0.0664
  161SAPE  H19R18077   2.272   4.273   8.546 -0.2187 -2.8928 -1.5054
  161SAPE  H19S18078   2.131   4.170   8.577 -0.7264 -0.3956 -0.8499
  161SAPE  C22018079   2.119   4.373   8.663 -0.1650  0.1934 -0.3532
  161SAPE  H20R18080   2.170   4.340   8.756  0.8078  1.1424 -0.5289
  161SAPE  H20S18081   2.009   4.381   8.676 -0.3731 -2.9470  0.6421
  161SAPE  H20T18082   2.145   4.478   8.638  1.4076 -0.1018 -0.0637
  161SAPE   C3318083   2.219   4.475   6.984  0.1746  0.0650  0.8994
  161SAPE   H3X18084   2.188   4.577   6.950  1.1340 -0.8093 -3.1504
  161SAPE   H3Y18085   2.328   4.483   7.006  1.0228  0.4475 -2.7661
  161SAPE   C3418086   2.150   4.426   7.107 -0.3111  0.5339  0.0990
  161SAPE   H4X18087   2.179   4.321   7.132 -0.9045 -0.3846 -2.6742
  161SAPE   H4Y18088   2.041   4.424   7.086 -0.7721  2.2707  1.9834
  161SAPE   C3518089   2.155   4.520   7.228 -0.8003  0.1869  0.2567
  161SAPE   H5X18090   2.080   4.601   7.221 -0.7276  0.3332  1.1017
  161SAPE   H5Y18091   2.252   4.574   7.235 -0.8610  0.0700  3.1534
  161SAPE   C3618092   2.134   4.436   7.359 -0.2189 -0.5478 -0.6025
  161SAPE   H6X18093   2.226   4.376   7.372  2.0958  3.1033  1.8804
  161SAPE   H6Y18094   2.047   4.369   7.343 -0.9065  0.0640  0.4334
  161SAPE   C3718095   2.094   4.523   7.479 -0.6184 -0.1524  0.2585
  161SAPE   H7X18096   2.086   4.628   7.445 -3.2258 -0.1301  0.7471
  161SAPE   H7Y18097   2.169   4.520   7.561 -0.8113  0.4715  0.4631
  161SAPE   C3818098   1.952   4.492   7.529  0.0755  0.0339 -0.0050
  161SAPE   H8X18099   1.909   4.394   7.498  0.0339 -0.1993  0.7521
  161SAPE   H8Y18100   1.891   4.572   7.482  1.0004 -0.8953 -2.9685
  161SAPE   C3918101   1.928   4.500   7.682 -0.2260 -0.1830  0.8441
  161SAPE   H9X18102   1.958   4.602   7.713 -0.6369  0.7214 -1.4715
  161SAPE   H9Y18103   1.993   4.429   7.735 -0.0200 -0.2628  0.4886
  161SAPE  C31018104   1.774   4.483   7.719 -0.3671  0.4932 -0.0888
  161SAPE  H10X18105   1.740   4.392   7.665  1.3478 -0.4307  0.3130
  161SAPE  H10Y18106   1.704   4.561   7.682  0.7039  1.6748  0.3256
  161SAPE  C31118107   1.753   4.470   7.868 -0.0002 -1.2625 -0.8928
  161SAPE  H11X18108   1.757   4.569   7.917 -0.6681 -1.9789  0.7087
  161SAPE  H11Y18109   1.838   4.411   7.908 -0.4107 -3.2793 -2.7722
  161SAPE  C31218110   1.618   4.406   7.913 -0.1370 -0.0796 -0.3471
  161SAPE  H12X18111   1.578   4.334   7.839  0.3880 -1.2120  0.4272
  161SAPE  H12Y18112   1.548   4.492   7.907  2.0259  1.8939  0.7761
  161SAPE  C31318113   1.618   4.348   8.059  0.5046 -0.5028  0.7154
  161SAPE  H13X18114   1.667   4.421   8.126 -0.2294  1.5794 -0.9145
  161SAPE  H13Y18115   1.690   4.263   8.050  0.8679 -0.1342  0.0153
  161SAPE  C31418116   1.471   4.321   8.108 -0.8746 -0.2871 -0.2357
  161SAPE  H14X18117   1.419   4.295   8.013 -0.0305 -0.8794 -0.5550
  161SAPE  H14Y18118   1.424   4.414   8.145 -1.4731  0.0646 -1.7825
  161SAPE  C31518119   1.476   4.200   8.206  0.4131 -0.1356 -0.6060
  161SAPE  H15X18120   1.504   4.113   8.142 -1.0393  0.3939 -2.0287
  161SAPE  H15Y18121   1.374   4.174   8.240  0.3419 -1.4043 -1.7011
  161SAPE  C31618122   1.580   4.193   8.319 -0.2476  0.2617  0.6251
  161SAPE  H16X18123   1.677   4.170   8.269 -2.2735 -0.8845 -3.1406
  161SAPE  H16Y18124   1.549   4.104   8.378 -0.4070 -0.4183 -0.4602
  161SAPE  C31718125   1.592   4.318   8.408  0.1994  0.0718  0.2279
  161SAPE  H17X18126   1.493   4.340   8.454  0.1445  0.2263  0.0392
  161SAPE  H17Y18127   1.622   4.408   8.350 -1.4511  1.2835  1.1475
  161SAPE  C31818128   1.693   4.293   8.520  0.1038  0.8773  0.1185
  161SAPE  H18X18129   1.648   4.221   8.591 -2.5810  0.0374 -2.2526
  161SAPE  H18Y18130   1.719   4.387   8.574  1.7004 -0.0325  0.9987
  161SAPE  H18Z18131   1.793   4.263   8.481 -0.1725  1.8537 -1.4383
  162SAPE     N18132   0.375   5.233   5.861  0.2088 -0.6482  0.2460
  162SAPE   HN118133   0.436   5.280   5.792  2.0715 -0.2551  2.0531
  162SAPE   HN218134   0.355   5.287   5.948  2.9770  1.8545 -0.5249
  162SAPE   HN318135   0.447   5.169   5.901  0.9857  0.9125  1.4758
  162SAPE   C1218136   0.272   5.153   5.794 -0.7250  0.4318 -0.9188
  162SAPE  H12A18137   0.324   5.090   5.719 -1.7430 -0.1697 -1.1385
  162SAPE  H12B18138   0.201   5.217   5.737 -2.7978  0.3706  1.3996
  162SAPE   C1118139   0.193   5.060   5.892 -0.1694  0.6516  0.1794
  162SAPE  H11A18140   0.099   5.024   5.845  0.5240 -0.3207 -0.5004
  162SAPE  H11B18141   0.157   5.130   5.970 -0.9103  0.7091 -0.2079
  162SAPE     P18142   0.226   4.843   6.031  0.0132 -0.0330 -0.1509
  162SAPE   O1318143   0.078   4.831   6.029  0.6297 -0.1537 -0.4488
  162SAPE   O1418144   0.301   4.717   6.015  0.5248  0.4458 -0.1638
  162SAPE   O1218145   0.280   4.948   5.927  0.7044  0.0206 -0.2148
  162SAPE   O1118146   0.266   4.911   6.169 -0.3482 -0.2298  0.3294
  162SAPE    C118147   0.201   5.026   6.224  0.5327 -0.3584  0.5125
  162SAPE    HA18148   0.241   5.117   6.174 -0.0819  0.0439  0.7453
  162SAPE    HB18149   0.090   5.029   6.219  0.5913  1.0183 -1.3836
  162SAPE    C218150   0.239   5.047   6.376 -0.5942  0.0849  0.5720
  162SAPE    HS18151   0.350   5.044   6.369 -0.6349  0.2119 -0.2212
  162SAPE   O2118152   0.173   4.945   6.458 -0.1428  0.5804  0.0833
  162SAPE   C2118153   0.242   4.838   6.470  0.1493  1.4020 -0.0609
  162SAPE   O2218154   0.352   4.820   6.425  0.1571  0.0199  0.3095
  162SAPE   C2218155   0.175   4.740   6.563  0.3455  0.0561  0.0157
  162SAPE   H2R18156   0.125   4.798   6.643  3.0314  2.0435  0.4005
  162SAPE   H2S18157   0.095   4.684   6.511 -1.2615  3.1067 -1.0267
  162SAPE    C318158   0.206   5.194   6.431 -0.2525  0.5733  0.1543
  162SAPE    HX18159   0.109   5.222   6.387 -1.4762  1.7089  3.2762
  162SAPE    HY18160   0.279   5.263   6.383 -0.9618 -0.0635 -1.9030
  162SAPE   O3118161   0.206   5.209   6.576 -0.4369  0.1496 -0.3117
  162SAPE   C3118162   0.100   5.170   6.640  0.3902 -0.1939  0.6337
  162SAPE   O3218163  -0.008   5.138   6.588 -0.5347  0.4961  0.0434
  162SAPE   C3218164   0.121   5.178   6.792  0.5973  0.1429  0.3753
  162SAPE   H2X18165   0.065   5.266   6.830 -0.4569  0.0708 -0.9352
  162SAPE   H2Y18166   0.230   5.194   6.805  1.3383 -2.2647 -1.8746
  162SAPE   C2318167   0.272   4.639   6.637  0.3163 -0.2729  0.0219
  162SAPE   H3R18168   0.359   4.700   6.669  0.7982 -0.4421 -0.9359
  162SAPE   H3S18169   0.309   4.563   6.565 -0.5568  1.3413 -2.2419
  162SAPE   C2418170   0.197   4.581   6.758  0.1230  0.0044 -0.1386
  162SAPE   H4R18171   0.109   4.528   6.715  0.4508 -1.1154  0.5393
  162SAPE   H4S18172   0.168   4.668   6.821  0.3435 -0.7439  1.0102
  162SAPE   C2518173   0.290   4.496   6.833  0.4777 -0.0789 -0.7560
  162SAPE   H5R18174   0.369   4.445   6.776  0.4375  0.5414 -1.3703
  162SAPE   C2618175   0.295   4.482   6.968  0.5551  0.2290 -0.2286
  162SAPE   H6R18176   0.370   4.408   7.001  0.2796 -0.4493 -1.0751
  162SAPE   C2718177   0.205   4.548   7.069  0.4583 -0.1191  0.0451
  162SAPE   H7R18178   0.121   4.601   7.019 -0.0849 -2.8186 -2.1375
  162SAPE   H7S18179   0.268   4.613   7.133  3.3015 -1.7982 -0.8736
  162SAPE   C2818180   0.138   4.437   7.149  0.6242 -0.0758 -0.2440
  162SAPE   H8R18181   0.111   4.345   7.096 -0.2039 -0.7741  1.3169
  162SAPE   C2918182   0.136   4.417   7.280  0.2027 -0.0271 -0.3665
  162SAPE   H9R18183   0.071   4.337   7.318 -2.0709  1.3352 -1.2522
  162SAPE  C21018184   0.188   4.511   7.382  1.2059  0.2945  0.1615
  162SAPE  H10R18185   0.184   4.613   7.339 -3.5484 -1.2369 -4.0215
  162SAPE  H10S18186   0.291   4.478   7.407  0.0243 -2.2516  2.1046
  162SAPE  C21118187   0.102   4.519   7.504 -0.4864 -0.1157 -0.0980
  162SAPE  H11R18188  -0.001   4.483   7.492 -0.0135 -2.5462  2.1350
  162SAPE  C21218189   0.148   4.559   7.619 -0.5716 -0.0555  0.1078
  162SAPE  H12R18190   0.077   4.569   7.703  1.0515 -0.5581  1.5952
  162SAPE  C21318191   0.288   4.595   7.665  0.1274  0.8975  0.7232
  162SAPE  H13R18192   0.288   4.702   7.697 -3.1261  0.7770  1.3750
  162SAPE  H13S18193   0.359   4.595   7.579 -0.4592  0.5125  0.2263
  162SAPE  C21418194   0.331   4.500   7.768  0.0470 -0.4138 -0.3796
  162SAPE  H14R18195   0.272   4.407   7.769 -1.2554  0.3809 -0.1802
  162SAPE  C21518196   0.417   4.518   7.865 -1.0722  0.0228 -0.2030
  162SAPE  H15R18197   0.438   4.445   7.945 -1.7125  0.6012  0.5012
  162SAPE  C21618198   0.503   4.636   7.875 -0.0130 -0.4827 -0.4833
  162SAPE  H16R18199   0.481   4.697   7.784 -0.5261 -0.6989 -0.5086
  162SAPE  H16S18200   0.612   4.616   7.873  0.0424 -0.2386 -0.0304
  162SAPE  C21718201   0.477   4.729   7.997  0.0732  0.2772 -0.4074
  162SAPE  H17R18202   0.564   4.798   7.998  0.5570 -0.1425 -3.4765
  162SAPE  H17S18203   0.479   4.676   8.095 -0.0548  0.7409 -0.1507
  162SAPE  C21818204   0.346   4.797   7.990  0.0327 -0.2065  0.3758
  162SAPE  H18R18205   0.270   4.716   7.989 -1.3726  1.0468 -1.4202
  162SAPE  H18S18206   0.334   4.846   7.891  0.9780 -0.5193  0.0936
  162SAPE  C21918207   0.306   4.883   8.107  0.4894 -0.0189 -0.0557
  162SAPE  H19R18208   0.221   4.947   8.074  0.9037 -0.2549 -1.6682
  162SAPE  H19S18209   0.381   4.953   8.150  0.9580  0.8288 -2.1436
  162SAPE  C22018210   0.244   4.805   8.220 -0.1024 -0.1426 -0.7077
  162SAPE  H20R18211   0.239   4.875   8.306  2.5987  0.5096 -0.9795
  162SAPE  H20S18212   0.312   4.722   8.252  0.2575  0.4704  0.1553
  162SAPE  H20T18213   0.138   4.774   8.213 -0.0958 -1.1947  2.1737
  162SAPE   C3318214   0.078   5.053   6.877  0.0475 -0.1571 -0.3305
  162SAPE   H3X18215   0.118   4.955   6.842  1.0593  0.5029 -1.1109
  162SAPE   H3Y18216  -0.032   5.043   6.870 -0.3318  1.3013  2.3886
  162SAPE   C3418217   0.114   5.090   7.016  0.5101 -0.0061 -0.2835
  162SAPE   H4X18218   0.065   5.188   7.028  1.4684  0.6403 -1.4197
  162SAPE   H4Y18219   0.223   5.111   7.016  0.1970  1.7502 -0.6468
  162SAPE   C3518220   0.079   4.983   7.125 -0.3714  0.5132  0.3069
  162SAPE   H5X18221   0.109   4.879   7.099 -0.1713  0.4705  0.7060
  162SAPE   H5Y18222  -0.031   4.983   7.134 -0.3504 -0.1800  0.6252
  162SAPE   C3618223   0.111   5.030   7.269 -0.7823  0.1622  0.6887
  162SAPE   H6X18224   0.051   5.119   7.299  0.4500  1.2087  0.1471
  162SAPE   H6Y18225   0.216   5.061   7.251 -1.1104 -0.3592 -2.8090
  162SAPE   C3718226   0.095   4.915   7.374  0.5641 -0.1913  0.3624
  162SAPE   H7X18227   0.155   4.823   7.355  0.7218  0.0447 -0.3114
  162SAPE   H7Y18228  -0.010   4.881   7.380 -0.5893  3.1461  1.2315
  162SAPE   C3818229   0.129   4.958   7.515 -0.1601  0.2479  0.4867
  162SAPE   H8X18230   0.178   5.058   7.508  1.1372 -0.1122  3.1032
  162SAPE   H8Y18231   0.210   4.894   7.556  0.6563  0.4187 -0.7946
  162SAPE   C3918232   0.008   4.968   7.604  0.3592  0.1714 -0.1953
  162SAPE   H9X18233  -0.035   4.866   7.611  1.8289 -0.3779  2.0973
  162SAPE   H9Y18234  -0.072   5.037   7.570 -1.3581 -1.2884  0.7001
  162SAPE  C31018235   0.041   4.995   7.755  0.0809 -0.1858  0.0116
  162SAPE  H10X18236   0.089   5.095   7.768  0.6044 -0.7960  3.6202
  162SAPE  H10Y18237   0.106   4.920   7.804  3.6863  1.9269 -1.1283
  162SAPE  C31118238  -0.089   4.999   7.846 -0.6423  0.0968 -0.6875
  162SAPE  H11X18239  -0.145   4.904   7.834 -1.3259  0.1743  1.3984
  162SAPE  H11Y18240  -0.153   5.086   7.818 -2.5644 -0.6807  1.0348
  162SAPE  C31218241  -0.044   5.024   7.988 -0.6485 -0.5805 -0.4630
  162SAPE  H12X18242   0.027   5.108   7.996  0.7183 -1.7374 -0.1199
  162SAPE  H12Y18243   0.017   4.939   8.026  2.2025  1.7501  0.5156
  162SAPE  C31318244  -0.161   5.044   8.089 -0.0327 -0.4626 -0.4758
  162SAPE  H13X18245  -0.237   4.969   8.059  1.8208 -0.9756 -4.6809
  162SAPE  H13Y18246  -0.206   5.141   8.060  1.1938  0.0172 -0.8809
  162SAPE  C31418247  -0.121   5.027   8.234  0.3973 -0.5536  0.1577
  162SAPE  H14X18248  -0.031   5.087   8.258  0.2206  0.7400 -2.0801
  162SAPE  H14Y18249  -0.095   4.920   8.242  0.5003 -0.5328  0.0984
  162SAPE  C31518250  -0.239   5.056   8.332  0.5235 -0.0286 -0.1172
  162SAPE  H15X18251  -0.204   5.021   8.432 -1.4131  1.1457  1.0323
  162SAPE  H15Y18252  -0.332   4.998   8.313  1.0420 -0.9901  0.1777
  162SAPE  C31618253  -0.273   5.206   8.364  0.5261  0.2673 -0.0144
  162SAPE  H16X18254  -0.360   5.213   8.433  0.1442  1.1216 -0.5676
  162SAPE  H16Y18255  -0.298   5.256   8.269 -0.5463  1.7433  0.9965
  162SAPE  C31718256  -0.154   5.279   8.438  0.0356 -1.1001  0.0364
  162SAPE  H17X18257  -0.062   5.272   8.376 -0.1681  0.2164 -0.4468
  162SAPE  H17Y18258  -0.130   5.228   8.534  0.0172  0.0275  0.6573
  162SAPE  C31818259  -0.177   5.433   8.457  0.1605  0.0174 -0.1838
  162SAPE  H18X18260  -0.196   5.484   8.361  0.7855  0.0485 -0.2948
  162SAPE  H18Y18261  -0.093   5.493   8.499  0.5925 -1.0829  0.5838
  162SAPE  H18Z18262  -0.271   5.453   8.512  0.1470 -1.8796  0.5777
  163SAPE     N18263   4.748   3.233   6.567  0.0294  0.4143 -0.3123
  163SAPE   HN118264   4.817   3.158   6.545  0.5811  0.2534  1.7515
  163SAPE   HN218265   4.671   3.175   6.604  1.6903 -3.1773 -1.9237
  163SAPE   HN318266   4.705   3.267   6.478 -0.6397 -2.3435 -1.1201
  163SAPE   C1218267   4.804   3.348   6.647  0.8880  0.4051  0.3063
  163SAPE  H12A18268   4.905   3.320   6.682  0.6497  0.1587  0.8049
  163SAPE  H12B18269   4.736   3.361   6.734  0.3366 -0.1891 -0.0300
  163SAPE   C1118270   4.807   3.474   6.556  0.3211  0.3894  0.1765
  163SAPE  H11A18271   4.837   3.567   6.608  0.6906  1.0000 -1.1052
  163SAPE  H11B18272   4.708   3.503   6.516  0.9477  2.9119  0.2988
  163SAPE     P18273   4.999   3.548   6.387  0.0352  0.2530  0.1271
  163SAPE   O1318274   5.128   3.536   6.464  0.7151 -0.3067  0.0501
  163SAPE   O1418275   5.007   3.526   6.241  0.3727 -0.0963 -0.5357
  163SAPE   O1218276   4.889   3.445   6.441 -0.2671 -0.4474  1.0387
  163SAPE   O1118277   4.945   3.688   6.420  0.0319  0.6510 -0.2207
  163SAPE    C118278   4.827   3.741   6.356  0.1650 -0.1902 -0.1222
  163SAPE    HA18279   4.850   3.792   6.260 -0.1050  0.3897  0.1173
  163SAPE    HB18280   4.751   3.662   6.339 -1.5961  1.9164 -2.9674
  163SAPE    C218281   4.766   3.847   6.438  0.7056 -0.4292 -0.2250
  163SAPE    HS18282   4.843   3.926   6.455 -0.7919  1.1431 -0.5356
  163SAPE   O2118283   4.712   3.782   6.552 -0.8228  0.5731  0.0002
  163SAPE   C2118284   4.761   3.823   6.672 -0.1700 -0.0711 -0.7360
  163SAPE   O2218285   4.841   3.917   6.689  0.0380  0.9976 -0.4604
  163SAPE   C2218286   4.704   3.728   6.779  0.4067  0.4623  0.7755
  163SAPE   H2R18287   4.617   3.677   6.732 -1.1402  2.1323  1.7137
  163SAPE   H2S18288   4.787   3.663   6.812  2.4387  2.5384 -0.0151
  163SAPE    C318289   4.657   3.917   6.355  0.1411  0.3917  0.3052
  163SAPE    HX18290   4.566   3.854   6.350  0.0289  0.5649  0.1889
  163SAPE    HY18291   4.679   3.933   6.247 -1.4233  1.1874  0.0755
  163SAPE   O3118292   4.613   4.044   6.412  0.2479 -0.0044 -0.2893
  163SAPE   C3118293   4.695   4.140   6.394  0.1942  0.3669  0.3237
  163SAPE   O3218294   4.797   4.135   6.325 -0.2287  0.1419 -0.1210
  163SAPE   C3218295   4.633   4.272   6.450  0.4534  0.4018 -0.1933
  163SAPE   H2X18296   4.523   4.261   6.461  0.4455  2.0121  1.9784
  163SAPE   H2Y18297   4.647   4.351   6.373 -2.2551  1.1344 -0.0163
  163SAPE   C2318298   4.654   3.808   6.899 -0.5205  0.6910 -0.0596
  163SAPE   H3R18299   4.592   3.892   6.861 -0.3083  0.2039 -1.5463
  163SAPE   H3S18300   4.744   3.848   6.950  0.7185 -2.4941  0.4912
  163SAPE   C2418301   4.572   3.726   6.996 -0.2601 -0.8511 -0.1515
  163SAPE   H4R18302   4.487   3.679   6.942 -0.0805  0.3018 -1.5061
  163SAPE   H4S18303   4.518   3.794   7.065 -1.7422 -1.2331 -0.8898
  163SAPE   C2518304   4.652   3.612   7.058  0.1081 -0.4394 -0.4071
  163SAPE   H5R18305   4.737   3.570   7.002 -0.1525 -1.1794 -0.2511
  163SAPE   C2618306   4.620   3.557   7.176 -0.3915 -0.5138  0.5912
  163SAPE   H6R18307   4.674   3.469   7.215 -1.7890 -1.4217  0.5578
  163SAPE   C2718308   4.499   3.587   7.258  0.2889 -0.5713  0.1004
  163SAPE   H7R18309   4.473   3.503   7.326  0.4713 -0.4263  0.3521
  163SAPE   H7S18310   4.413   3.614   7.193  0.1769  1.6443  1.0821
  163SAPE   C2818311   4.516   3.708   7.339 -0.1191 -0.1488  0.2958
  163SAPE   H8R18312   4.571   3.791   7.291 -0.6156  0.5124  0.8549
  163SAPE   C2918313   4.491   3.724   7.466 -0.4809  0.4745  0.3685
  163SAPE   H9R18314   4.513   3.822   7.510 -0.5161  0.0897  1.2532
  163SAPE  C21018315   4.431   3.636   7.572 -1.2033 -0.6820 -0.0797
  163SAPE  H10R18316   4.435   3.529   7.541 -0.5609 -0.9167  0.7789
  163SAPE  H10S18317   4.330   3.677   7.595  0.0670  1.6275  1.8045
  163SAPE  C21118318   4.511   3.635   7.707 -0.2523 -0.5702  0.2080
  163SAPE  H11R18319   4.620   3.627   7.695 -0.2608  0.3062 -0.6877
  163SAPE  C21218320   4.470   3.660   7.831 -0.1166  0.2993 -0.6495
  163SAPE  H12R18321   4.547   3.636   7.905  1.7256  0.1245 -2.5173
  163SAPE  C21318322   4.320   3.693   7.865  0.2118  0.5973  0.6466
  163SAPE  H13R18323   4.270   3.596   7.885 -0.9256  1.1704  0.6504
  163SAPE  H13S18324   4.258   3.744   7.789 -0.8429  0.4730  1.4070
  163SAPE  C21418325   4.336   3.775   7.993 -0.4506  0.0547  0.3142
  163SAPE  H14R18326   4.433   3.814   8.025  0.1709 -1.3323  0.1910
  163SAPE  C21518327   4.241   3.817   8.075 -0.0981 -0.2829 -1.0563
  163SAPE  H15R18328   4.273   3.879   8.160 -1.8805 -1.4716  0.5537
  163SAPE  C21618329   4.091   3.786   8.080  0.1556  0.2053 -0.4540
  163SAPE  H16R18330   4.044   3.772   7.981  0.4428 -2.0239 -0.3474
  163SAPE  H16S18331   4.034   3.874   8.115 -0.6628 -0.3087 -0.4712
  163SAPE  C21718332   4.048   3.658   8.156  0.0512 -0.1007  0.5034
  163SAPE  H17R18333   4.116   3.573   8.135 -1.8061 -1.4980 -0.1368
  163SAPE  H17S18334   3.955   3.627   8.104 -0.4245  1.8903  0.1156
  163SAPE  C21818335   4.034   3.679   8.307 -0.5306 -0.6126 -0.2686
  163SAPE  H18R18336   4.002   3.779   8.340  2.8540  0.4766  0.0688
  163SAPE  H18S18337   4.133   3.669   8.356 -1.8826  1.5696  3.2067
  163SAPE  C21918338   3.951   3.569   8.375 -0.7763  0.9863 -0.0232
  163SAPE  H19R18339   3.846   3.570   8.341 -0.2573 -0.0518 -1.8221
  163SAPE  H19S18340   3.952   3.602   8.481  2.7016  0.9745  0.0777
  163SAPE  C22018341   3.994   3.422   8.356  0.1786 -0.2376  0.0063
  163SAPE  H20R18342   4.004   3.395   8.249 -1.1182  1.0896 -0.4867
  163SAPE  H20S18343   3.927   3.350   8.408  0.5145 -1.0020 -0.5986
  163SAPE  H20T18344   4.096   3.414   8.400 -0.1334 -1.3908  0.5769
  163SAPE   C3318345   4.706   4.332   6.577  0.8892 -0.2296  0.3990
  163SAPE   H3X18346   4.664   4.434   6.589 -2.0834 -0.5415 -4.6068
  163SAPE   H3Y18347   4.814   4.331   6.552  0.6000  0.0617 -0.9452
  163SAPE   C3418348   4.675   4.248   6.703 -0.2575 -0.4995  0.1240
  163SAPE   H4X18349   4.710   4.146   6.676  0.2178 -0.6646  1.3376
  163SAPE   H4Y18350   4.565   4.234   6.704 -0.2941 -0.7655 -2.0104
  163SAPE   C3518351   4.736   4.303   6.832 -0.3771 -0.1531 -0.0138
  163SAPE   H5X18352   4.713   4.412   6.830  0.1408 -0.0588 -1.4076
  163SAPE   H5Y18353   4.845   4.288   6.838 -0.1327  1.8432  3.0557
  163SAPE   C3618354   4.678   4.271   6.971  0.7472  0.7009 -0.0603
  163SAPE   H6X18355   4.568   4.282   6.973  0.5669 -0.9364  0.5901
  163SAPE   H6Y18356   4.718   4.346   7.042 -2.5454  1.8223  0.7880
  163SAPE   C3718357   4.713   4.138   7.024  0.3990  0.1609 -0.2079
  163SAPE   H7X18358   4.823   4.134   7.037  0.5825 -0.4824 -1.6952
  163SAPE   H7Y18359   4.684   4.057   6.954  1.3861  0.6221 -1.1915
  163SAPE   C3818360   4.645   4.088   7.152 -0.3268 -0.2512 -0.2494
  163SAPE   H8X18361   4.683   3.984   7.165  1.9344  0.5398 -0.1895
  163SAPE   H8Y18362   4.535   4.080   7.138 -0.8256  0.2583  2.7352
  163SAPE   C3918363   4.659   4.184   7.273 -0.2176  0.5901  0.2997
  163SAPE   H9X18364   4.607   4.281   7.260 -0.3070  0.4170 -0.7483
  163SAPE   H9Y18365   4.764   4.208   7.302  0.0602 -0.3064  0.0790
  163SAPE  C31018366   4.589   4.113   7.385 -0.0682 -0.3986  0.0069
  163SAPE  H10X18367   4.649   4.025   7.417 -2.2543 -1.6669  0.8775
  163SAPE  H10Y18368   4.486   4.082   7.358 -0.9229  1.3849  1.0527
  163SAPE  C31118369   4.583   4.200   7.511 -1.0750 -0.8109 -0.4739
  163SAPE  H11X18370   4.495   4.266   7.491  0.3354  1.3533  0.1049
  163SAPE  H11Y18371   4.671   4.267   7.515  0.2419 -2.5425  1.1944
  163SAPE  C31218372   4.549   4.130   7.648 -0.8528  0.1395 -0.5464
  163SAPE  H12X18373   4.633   4.061   7.671 -1.1529  0.0733  0.3935
  163SAPE  H12Y18374   4.472   4.051   7.630 -0.4979 -0.7206  1.4381
  163SAPE  C31318375   4.540   4.219   7.767 -0.1043 -0.6260  0.1498
  163SAPE  H13X18376   4.455   4.288   7.755  1.2917  0.7292 -3.0289
  163SAPE  H13Y18377   4.631   4.282   7.780 -1.9193  2.4871 -1.1268
  163SAPE  C31418378   4.512   4.144   7.900 -0.1097  0.2627  0.5177
  163SAPE  H14X18379   4.588   4.066   7.924  1.1140  1.1710 -0.2551
  163SAPE  H14Y18380   4.415   4.093   7.882 -0.7931  1.5112  0.5116
  163SAPE  C31518381   4.496   4.242   8.022 -0.4360  0.0953 -0.1967
  163SAPE  H15X18382   4.398   4.289   7.999 -1.0650 -1.0375  0.0760
  163SAPE  H15Y18383   4.576   4.318   8.017 -1.2614  0.9396 -1.1377
  163SAPE  C31618384   4.492   4.170   8.162  0.3995 -1.1086 -0.5680
  163SAPE  H16X18385   4.589   4.148   8.211  0.7106  1.5295  0.1843
  163SAPE  H16Y18386   4.436   4.076   8.146  0.7541 -1.1587 -1.5927
  163SAPE  C31718387   4.398   4.240   8.264 -0.2483  0.1184 -0.6277
  163SAPE  H17X18388   4.300   4.262   8.217 -1.2694 -0.1121  1.3161
  163SAPE  H17Y18389   4.454   4.332   8.290  2.6696 -1.3908 -1.0763
  163SAPE  C31818390   4.352   4.147   8.377  0.0051  0.0398  1.2045
  163SAPE  H18X18391   4.308   4.050   8.345 -1.1358  0.8995  0.0501
  163SAPE  H18Y18392   4.275   4.190   8.443 -3.0651 -0.9884 -1.4385
  163SAPE  H18Z18393   4.440   4.127   8.442  0.8030  2.5697  1.0029
  164SAPE     N18394   2.683   0.497   5.746 -0.1909 -0.5984  0.5627
  164SAPE   HN118395   2.673   0.441   5.658  0.5782 -1.7672  1.1878
  164SAPE   HN218396   2.606   0.567   5.746  1.4804  1.3804 -0.8856
  164SAPE   HN318397   2.771   0.550   5.726 -0.3428 -0.7602 -0.6093
  164SAPE   C1218398   2.683   0.414   5.872  0.1875  0.2423  0.4256
  164SAPE  H12A18399   2.697   0.490   5.952  1.6253  2.4602 -1.7769
  164SAPE  H12B18400   2.780   0.360   5.870 -0.2202 -0.5022 -1.9122
  164SAPE   C1118401   2.559   0.334   5.883 -0.2738  0.2807 -0.0756
  164SAPE  H11A18402   2.554   0.284   5.982  0.9298 -0.8171 -0.5345
  164SAPE  H11B18403   2.566   0.250   5.810 -2.4320 -0.4217  0.4594
  164SAPE     P18404   2.401   0.512   5.970  0.2463  0.2012 -0.0387
  164SAPE   O1318405   2.492   0.623   5.957  0.0300 -0.2315 -0.0814
  164SAPE   O1418406   2.258   0.546   5.963  0.2899 -0.2953  0.1118
  164SAPE   O1218407   2.441   0.409   5.859  0.4283  0.4279  0.9724
  164SAPE   O1118408   2.432   0.429   6.106 -0.1851 -0.2471  0.1997
  164SAPE    C118409   2.333   0.331   6.149 -0.6412  0.2709  0.1163
  164SAPE    HA18410   2.272   0.277   6.073  0.0040 -0.5744  0.1789
  164SAPE    HB18411   2.383   0.239   6.186 -0.4388 -0.5568 -2.0219
  164SAPE    C218412   2.232   0.379   6.255  0.3291 -0.0566 -0.2129
  164SAPE    HS18413   2.164   0.457   6.213 -0.1778 -0.6515 -0.5082
  164SAPE   O2118414   2.306   0.447   6.358 -0.5626  0.2686  0.5006
  164SAPE   C2118415   2.223   0.502   6.448 -0.2687  0.5222  0.4402
  164SAPE   O2218416   2.100   0.514   6.440  0.3545 -0.9042  0.0741
  164SAPE   C2218417   2.298   0.527   6.577  0.5015 -0.0024 -0.5867
  164SAPE   H2R18418   2.337   0.428   6.610 -0.8777 -0.4714 -0.2678
  164SAPE   H2S18419   2.385   0.590   6.550  1.1210 -0.2007  0.8774
  164SAPE    C318420   2.150   0.254   6.308 -0.1068 -0.8046  0.2561
  164SAPE    HX18421   2.123   0.192   6.221  2.3315 -0.5855 -0.7462
  164SAPE    HY18422   2.053   0.281   6.355 -1.5289 -1.3030 -2.2786
  164SAPE   O3118423   2.220   0.185   6.408 -0.3770 -0.6972  0.2878
  164SAPE   C3118424   2.167   0.063   6.435 -0.4678  0.0963 -0.0892
  164SAPE   O3218425   2.072   0.014   6.381  0.5891 -0.1111  0.0835
  164SAPE   C3218426   2.255  -0.008   6.532  0.9315  0.5405 -0.1499
  164SAPE   H2X18427   2.351   0.047   6.541  0.9167  0.4371  0.7769
  164SAPE   H2Y18428   2.273  -0.116   6.511  2.3413 -0.0668  3.4401
  164SAPE   C2318429   2.202   0.570   6.694  0.0830 -0.4205 -0.4439
  164SAPE   H3R18430   2.123   0.493   6.705  0.7646 -1.2295 -1.0562
  164SAPE   H3S18431   2.163   0.670   6.667 -0.3173 -0.7503 -1.0927
  164SAPE   C2418432   2.274   0.587   6.829 -0.3024  0.0493  1.0719
  164SAPE   H4R18433   2.197   0.646   6.884  1.0318  1.9359  1.0039
  164SAPE   H4S18434   2.364   0.652   6.825  0.2812 -0.6640  2.1670
  164SAPE   C2518435   2.306   0.452   6.894  0.0670 -0.2874 -0.1469
  164SAPE   H5R18436   2.376   0.397   6.829  1.8153  1.8098 -0.1762
  164SAPE   C2618437   2.284   0.402   7.022  0.1991  0.4784  0.3730
  164SAPE   H6R18438   2.322   0.301   7.045 -0.4113 -0.6028 -2.8235
  164SAPE   C2718439   2.203   0.459   7.133  0.8937 -0.5751  0.9468
  164SAPE   H7R18440   2.149   0.392   7.203 -0.8997 -0.6642 -0.4519
  164SAPE   H7S18441   2.124   0.532   7.105  1.1271 -0.3433  0.8762
  164SAPE   C2818442   2.288   0.546   7.218  0.3117 -0.2263  0.3346
  164SAPE   H8R18443   2.385   0.565   7.171 -0.5738  0.2419 -1.3778
  164SAPE   C2918444   2.264   0.601   7.343  0.7928 -0.2906 -0.2124
  164SAPE   H9R18445   2.332   0.671   7.394 -1.0267  2.1733 -1.0010
  164SAPE  C21018446   2.135   0.578   7.422  0.8973 -0.0390 -0.2275
  164SAPE  H10R18447   2.156   0.534   7.521  0.9702  0.4180 -0.0383
  164SAPE  H10S18448   2.083   0.497   7.365  2.4628 -0.4115 -1.1842
  164SAPE  C21118449   2.045   0.703   7.435  0.1274  0.3667  0.1179
  164SAPE  H11R18450   2.108   0.791   7.453  0.9457 -0.2438  0.2791
  164SAPE  C21218451   1.912   0.706   7.426 -0.1682 -0.2114  0.3968
  164SAPE  H12R18452   1.869   0.803   7.454  0.6769 -0.1933  1.7341
  164SAPE  C21318453   1.817   0.598   7.387 -0.2167  0.0640  0.2100
  164SAPE  H13R18454   1.829   0.513   7.457  1.6011  0.3056  0.2332
  164SAPE  H13S18455   1.848   0.550   7.291 -2.2512 -1.4334  0.2304
  164SAPE  C21418456   1.673   0.640   7.374  0.1441 -0.1197  0.0261
  164SAPE  H14R18457   1.624   0.621   7.277 -0.2489 -0.4849  0.2906
  164SAPE  C21518458   1.589   0.675   7.473 -0.0661  0.0590 -0.0925
  164SAPE  H15R18459   1.488   0.709   7.445  0.5134  1.7545 -0.1888
  164SAPE  C21618460   1.623   0.684   7.618  0.2184  0.1640 -0.3076
  164SAPE  H16R18461   1.726   0.644   7.625 -0.0038 -0.2302  0.8326
  164SAPE  H16S18462   1.556   0.629   7.688 -1.9168  1.0524 -1.5264
  164SAPE  C21718463   1.632   0.828   7.659  0.0899  0.0294 -0.4871
  164SAPE  H17R18464   1.531   0.874   7.644  0.5979  1.1928 -0.4601
  164SAPE  H17S18465   1.702   0.878   7.589  1.8256 -0.1985  1.0201
  164SAPE  C21818466   1.679   0.851   7.807  0.2745  0.5003  0.1496
  164SAPE  H18R18467   1.691   0.958   7.836  0.3773  0.4226  0.3881
  164SAPE  H18S18468   1.776   0.801   7.826 -0.2456 -1.2545 -1.4602
  164SAPE  C21918469   1.589   0.790   7.914 -1.3489 -0.4924 -0.0974
  164SAPE  H19R18470   1.593   0.682   7.891 -2.9498 -0.6745  0.4037
  164SAPE  H19S18471   1.490   0.834   7.889 -1.5708  1.2125  3.2884
  164SAPE  C22018472   1.618   0.812   8.062 -0.1007 -0.3679 -0.3342
  164SAPE  H20R18473   1.548   0.748   8.119 -1.1527  2.9319  2.4340
  164SAPE  H20S18474   1.593   0.917   8.090  1.2328  0.2609 -1.3506
  164SAPE  H20T18475   1.724   0.781   8.079  0.5087  1.5038 -0.4335
  164SAPE   C3318476   2.183  -0.004   6.669 -0.1503 -0.8340 -0.2063
  164SAPE   H3X18477   2.111  -0.089   6.677 -4.1350  2.2277 -0.3371
  164SAPE   H3Y18478   2.123   0.089   6.678 -0.7958 -0.9360 -2.6015
  164SAPE   C3418479   2.276  -0.009   6.797 -0.6584  0.4405  0.0813
  164SAPE   H4X18480   2.366   0.056   6.792  1.4895 -2.2453  1.2048
  164SAPE   H4Y18481   2.330  -0.106   6.793  1.0484  1.3489  0.2097
  164SAPE   C3518482   2.205   0.004   6.930  0.6986  0.2911 -1.1365
  164SAPE   H5X18483   2.121  -0.069   6.938 -0.1732  1.1414 -2.2305
  164SAPE   H5Y18484   2.166   0.107   6.943  1.1372  0.1547  1.9250
  164SAPE   C3618485   2.286  -0.007   7.062  0.1910 -0.2733 -0.2546
  164SAPE   H6X18486   2.369   0.065   7.050  1.4380 -1.3580  1.4603
  164SAPE   H6Y18487   2.328  -0.110   7.068 -1.9407 -1.1612  0.2948
  164SAPE   C3718488   2.212   0.026   7.192 -0.3189  0.2159 -0.2304
  164SAPE   H7X18489   2.163   0.125   7.175 -0.1014  0.5366  0.8834
  164SAPE   H7Y18490   2.292   0.038   7.269  0.1902 -1.0977 -0.5384
  164SAPE   C3818491   2.110  -0.081   7.237  0.2078 -0.4592  0.2094
  164SAPE   H8X18492   2.163  -0.178   7.226 -1.0176 -1.1134 -0.2533
  164SAPE   H8Y18493   2.031  -0.085   7.158  0.0861 -0.6858  0.3425
  164SAPE   C3918494   2.056  -0.048   7.375 -0.4756 -0.3037  0.0146
  164SAPE   H9X18495   2.136  -0.075   7.448  0.9248 -1.1811 -1.7598
  164SAPE   H9Y18496   1.969  -0.114   7.397  0.9692 -1.9033  1.1728
  164SAPE  C31018497   2.013   0.087   7.409 -0.3978 -0.4883  0.5005
  164SAPE  H10X18498   1.931   0.109   7.338  1.2415 -0.1560 -1.3548
  164SAPE  H10Y18499   2.090   0.163   7.385  0.1525 -1.3360 -0.5028
  164SAPE  C31118500   1.977   0.101   7.560  0.2340  0.1283 -0.1383
  164SAPE  H11X18501   2.059   0.061   7.622 -0.6833 -0.2479  0.8666
  164SAPE  H11Y18502   1.893   0.029   7.572  0.6714 -0.5474 -1.0042
  164SAPE  C31218503   1.949   0.244   7.607  0.2047 -0.1858  0.2891
  164SAPE  H12X18504   1.907   0.301   7.522 -0.0177  1.7334  1.6266
  164SAPE  H12Y18505   2.053   0.281   7.620 -0.6141  2.9486 -1.2424
  164SAPE  C31318506   1.865   0.255   7.728  0.0798  0.0562  0.2841
  164SAPE  H13X18507   1.900   0.196   7.816 -1.6283 -0.0066  0.9504
  164SAPE  H13Y18508   1.761   0.224   7.707  0.2302 -0.5433  0.4170
  164SAPE  C31418509   1.871   0.404   7.782 -0.0784  0.6951 -0.2334
  164SAPE  H14X18510   1.787   0.403   7.854 -0.0438  0.4982 -0.1973
  164SAPE  H14Y18511   1.842   0.471   7.698 -0.0814  1.4375  0.3461
  164SAPE  C31518512   2.005   0.443   7.848  0.1067 -0.3992 -0.6401
  164SAPE  H15X18513   2.092   0.393   7.800  1.3243  1.3193 -0.3213
  164SAPE  H15Y18514   2.008   0.406   7.952 -1.7490  2.7402  0.6555
  164SAPE  C31618515   2.043   0.595   7.841 -0.2254  0.2942 -0.2509
  164SAPE  H16X18516   1.988   0.638   7.927  0.1508 -0.5994  0.4523
  164SAPE  H16Y18517   1.998   0.647   7.753 -0.5326  0.7494  0.1690
  164SAPE  C31718518   2.187   0.643   7.859 -0.1073 -0.0439  0.0426
  164SAPE  H17X18519   2.222   0.573   7.938 -0.9117  0.3955  0.8151
  164SAPE  H17Y18520   2.187   0.741   7.910  0.2339 -0.7443  1.4472
  164SAPE  C31818521   2.276   0.650   7.737 -0.1097  0.0937  0.0888
  164SAPE  H18X18522   2.230   0.714   7.659 -2.7458 -1.2589  0.4165
  164SAPE  H18Y18523   2.282   0.542   7.708  0.4241 -1.1035  4.0449
  164SAPE  H18Z18524   2.380   0.679   7.763  0.8028 -2.2793 -0.6050
  165SAPE     N18525   2.822   4.371   6.033  0.2641 -0.1561 -0.0540
  165SAPE   HN118526   2.783   4.464   6.008  1.2111  0.2477 -0.0943
  165SAPE   HN218527   2.903   4.394   6.095  1.0778 -1.3772 -0.6293
  165SAPE   HN318528   2.856   4.332   5.943  1.3209 -1.0432  0.6976
  165SAPE   C1218529   2.717   4.292   6.107 -0.9667 -0.2873 -0.8061
  165SAPE  H12A18530   2.745   4.185   6.090  0.7562  0.2001 -1.2737
  165SAPE  H12B18531   2.628   4.296   6.041 -1.0497 -1.3229 -0.7846
  165SAPE   C1118532   2.712   4.336   6.246  0.7829  0.0248 -0.3631
  165SAPE  H11A18533   2.621   4.292   6.293  1.5080 -0.9913  0.1173
  165SAPE  H11B18534   2.695   4.445   6.258  1.0554  0.1157 -0.7764
  165SAPE     P18535   2.832   4.156   6.390 -0.3550  0.0009  0.1751
  165SAPE   O1318536   2.703   4.089   6.377  0.0901  0.1437  0.4842
  165SAPE   O1418537   2.945   4.074   6.332  0.0480 -0.2679  0.8041
  165SAPE   O1218538   2.832   4.291   6.310 -0.4062  0.1157  0.0233
  165SAPE   O1118539   2.859   4.181   6.542  0.4726  0.9438 -0.0535
  165SAPE    C118540   2.937   4.293   6.578  0.1685 -0.2904  0.0105
  165SAPE    HA18541   2.900   4.383   6.525 -1.3642 -0.4709  0.7294
  165SAPE    HB18542   2.923   4.307   6.688 -4.0850 -1.3415 -0.2582
  165SAPE    C218543   3.090   4.265   6.567  0.4113 -0.2257  0.2128
  165SAPE    HS18544   3.118   4.266   6.460  0.9833  0.9588  0.3625
  165SAPE   O2118545   3.118   4.140   6.634 -0.0651  0.6559 -0.1129
  165SAPE   C2118546   3.203   4.061   6.584  0.2308 -0.7418 -0.8451
  165SAPE   O2218547   3.261   4.067   6.482  0.5565 -0.5423  0.7412
  165SAPE   C2218548   3.206   3.936   6.677  0.0886  0.2488 -0.0153
  165SAPE   H2R18549   3.157   3.949   6.775 -2.4201 -2.4751 -0.7890
  165SAPE   H2S18550   3.146   3.858   6.625 -0.0683 -2.0697  3.3814
  165SAPE    C318551   3.172   4.376   6.638  0.0709  0.0944  0.2796
  165SAPE    HX18552   3.134   4.471   6.593 -1.5008  0.5302  2.3627
  165SAPE    HY18553   3.279   4.384   6.609  0.4815  1.5267  2.0452
  165SAPE   O3118554   3.152   4.376   6.784 -0.1194 -0.3895  0.5303
  165SAPE   C3118555   3.255   4.350   6.853  0.1407 -0.4217  0.5800
  165SAPE   O3218556   3.367   4.326   6.804  0.2250 -0.0285  0.4336
  165SAPE   C3218557   3.209   4.349   6.999 -0.6820 -0.0616 -0.2736
  165SAPE   H2X18558   3.110   4.301   7.015 -1.1984  1.2750  0.7648
  165SAPE   H2Y18559   3.196   4.456   7.023 -0.7072 -0.1690  0.1978
  165SAPE   C2318560   3.351   3.890   6.700  0.4719  0.4022 -0.9253
  165SAPE   H3R18561   3.403   3.970   6.757 -0.6435  0.9435 -0.6274
  165SAPE   H3S18562   3.404   3.874   6.604 -2.7414 -0.1579 -2.7652
  165SAPE   C2418563   3.338   3.753   6.786 -0.3819  0.1240  0.4417
  165SAPE   H4R18564   3.310   3.671   6.717 -0.4023  1.6156 -1.4257
  165SAPE   H4S18565   3.262   3.771   6.866  0.3681 -2.9906  2.0197
  165SAPE   C2518566   3.476   3.722   6.845 -0.2786  0.0955 -0.4033
  165SAPE   H5R18567   3.543   3.668   6.776  0.7976  1.8780 -0.8063
  165SAPE   C2618568   3.510   3.748   6.969 -0.4306 -0.1810 -0.0963
  165SAPE   H6R18569   3.608   3.728   7.016 -0.2530  0.8119 -0.0086
  165SAPE   C2718570   3.426   3.825   7.062  0.0256  0.7180  0.7093
  165SAPE   H7R18571   3.328   3.776   7.082 -0.5086  1.6130  0.3778
  165SAPE   H7S18572   3.398   3.924   7.019  0.1165 -0.1437 -1.4822
  165SAPE   C2818573   3.506   3.854   7.190 -0.6675  0.7313  0.5071
  165SAPE   H8R18574   3.613   3.870   7.167 -1.2217  1.7907 -1.6314
  165SAPE   C2918575   3.451   3.890   7.306  0.0763  0.1390  0.0313
  165SAPE   H9R18576   3.524   3.917   7.384 -1.3515  0.7226  1.2170
  165SAPE  C21018577   3.309   3.905   7.337 -0.3324 -0.0179 -0.1198
  165SAPE  H10R18578   3.243   3.818   7.317 -3.7897  2.4272 -0.2951
  165SAPE  H10S18579   3.271   3.986   7.270 -1.8569 -0.6281 -0.0481
  165SAPE  C21118580   3.292   3.965   7.476 -1.1813  0.8598 -0.1452
  165SAPE  H11R18581   3.315   4.072   7.488 -0.3696  0.5729  1.0429
  165SAPE  C21218582   3.263   3.897   7.587  0.6631 -0.0356 -0.0580
  165SAPE  H12R18583   3.275   3.948   7.684  2.7745  0.2799 -0.4352
  165SAPE  C21318584   3.228   3.749   7.606  0.4321 -0.3623 -0.2560
  165SAPE  H13R18585   3.304   3.702   7.673 -1.2140 -0.7460  1.4136
  165SAPE  H13S18586   3.223   3.687   7.515 -2.9923 -1.8561  0.7980
  165SAPE  C21418587   3.088   3.735   7.660  0.1279  0.8108  0.2895
  165SAPE  H14R18588   3.014   3.749   7.580 -0.4151  1.2724  0.8587
  165SAPE  C21518589   3.048   3.728   7.793  0.2434  0.7908  1.0716
  165SAPE  H15R18590   2.942   3.712   7.816  0.3279  1.3151  1.8737
  165SAPE  C21618591   3.142   3.728   7.902  0.0831  0.2748 -0.0321
  165SAPE  H16R18592   3.155   3.826   7.952 -0.3931 -1.1853  3.2189
  165SAPE  H16S18593   3.242   3.689   7.877 -0.4469  0.1278 -2.0719
  165SAPE  C21718594   3.079   3.643   8.018  0.8992  0.1917 -0.2972
  165SAPE  H17R18595   3.018   3.556   7.986 -0.3009  0.8619  0.1426
  165SAPE  H17S18596   3.007   3.713   8.066  0.7550  0.2233 -0.5593
  165SAPE  C21818597   3.183   3.599   8.116  1.0096 -0.2248  0.3216
  165SAPE  H18R18598   3.242   3.689   8.146 -0.2488  1.6778 -2.4216
  165SAPE  H18S18599   3.250   3.527   8.066  0.0023 -1.8685  1.2532
  165SAPE  C21918600   3.117   3.533   8.242 -0.5969  0.4255 -0.0213
  165SAPE  H19R18601   3.192   3.539   8.324  2.0651  1.3491 -2.3623
  165SAPE  H19S18602   3.087   3.428   8.219  1.2592  0.2329 -1.7580
  165SAPE  C22018603   2.991   3.601   8.303  0.3814 -0.6346  0.0210
  165SAPE  H20R18604   3.000   3.712   8.304 -1.4578 -0.4398 -0.1692
  165SAPE  H20S18605   2.963   3.574   8.407  1.0743 -1.0848  0.0937
  165SAPE  H20T18606   2.903   3.575   8.240  0.6353  0.7468 -0.9590
  165SAPE   C3318607   3.307   4.286   7.109 -0.2631  0.2408 -0.0302
  165SAPE   H3X18608   3.410   4.321   7.088 -0.4200  1.0441  0.5272
  165SAPE   H3Y18609   3.281   4.178   7.121 -2.1873  0.6385 -0.2693
  165SAPE   C3418610   3.279   4.356   7.238 -0.2368  0.0071 -0.6337
  165SAPE   H4X18611   3.174   4.392   7.233  0.0634  1.3516  1.4976
  165SAPE   H4Y18612   3.336   4.451   7.248 -1.3981  0.6982 -0.3468
  165SAPE   C3518613   3.294   4.284   7.371  0.7153 -0.4251 -0.3015
  165SAPE   H5X18614   3.394   4.236   7.382  0.5734 -0.9154 -1.0325
  165SAPE   H5Y18615   3.211   4.210   7.367 -1.0463  1.4773 -3.1581
  165SAPE   C3618616   3.266   4.365   7.506  0.0201  0.7271 -0.0692
  165SAPE   H6X18617   3.342   4.445   7.521 -0.4497  0.9605  1.2280
  165SAPE   H6Y18618   3.273   4.289   7.587  2.1547  0.2017 -0.6946
  165SAPE   C3718619   3.131   4.427   7.496 -0.0167 -0.5174 -0.1295
  165SAPE   H7X18620   3.059   4.343   7.482 -0.1445 -0.2486 -1.1857
  165SAPE   H7Y18621   3.148   4.495   7.410  1.9160 -0.8420 -0.0321
  165SAPE   C3818622   3.084   4.510   7.622  0.7168  0.2400  0.4055
  165SAPE   H8X18623   2.997   4.576   7.600  0.7544 -0.2287 -1.2738
  165SAPE   H8Y18624   3.170   4.576   7.647  0.4844 -0.0575  2.0532
  165SAPE   C3918625   3.068   4.413   7.739  0.1194 -0.0952  0.3594
  165SAPE   H9X18626   3.160   4.392   7.797  0.0304 -1.0839  0.1726
  165SAPE   H9Y18627   3.048   4.309   7.704 -2.1396  0.0538  1.1053
  165SAPE  C31018628   2.959   4.452   7.847 -0.3199  1.1374  0.2832
  165SAPE  H10X18629   2.931   4.365   7.910  1.0503  0.7605  0.4002
  165SAPE  H10Y18630   2.863   4.480   7.797  0.0202 -0.3195 -1.2865
  165SAPE  C31118631   3.011   4.566   7.932 -0.5229  0.3816 -0.1982
  165SAPE  H11X18632   3.037   4.652   7.867 -1.1480 -0.0956 -1.0929
  165SAPE  H11Y18633   3.103   4.532   7.985 -0.4885  1.6433  0.6065
  165SAPE  C31218634   2.915   4.608   8.038 -0.2745 -0.6616  0.3101
  165SAPE  H12X18635   2.875   4.525   8.099 -0.1989  1.4827  3.5085
  165SAPE  H12Y18636   2.839   4.661   7.976  0.6245  1.1538  0.6881
  165SAPE  C31318637   2.963   4.728   8.120 -0.4442  0.5493  0.2238
  165SAPE  H13X18638   2.992   4.803   8.043 -3.3910  0.1421 -1.4381
  165SAPE  H13Y18639   3.049   4.703   8.185  0.2894  2.2289 -0.0478
  165SAPE  C31418640   2.859   4.796   8.212 -0.4147  0.0498 -0.1044
  165SAPE  H14X18641   2.822   4.734   8.297 -2.8923 -1.0150 -1.8427
  165SAPE  H14Y18642   2.769   4.821   8.153 -1.8164 -1.0033  1.4754
  165SAPE  C31518643   2.908   4.928   8.262 -0.5484  0.4778 -0.8249
  165SAPE  H15X18644   2.892   5.011   8.190  0.8633  0.5135 -1.1343
  165SAPE  H15Y18645   3.012   4.914   8.300 -0.0466  2.2271 -1.4826
  165SAPE  C31618646   2.836   4.975   8.382 -0.1882 -0.4128 -0.3528
  165SAPE  H16X18647   2.854   4.912   8.472  0.5123 -0.7371 -0.7053
  165SAPE  H16Y18648   2.728   4.958   8.363 -0.1305 -1.8421  0.4969
  165SAPE  C31718649   2.860   5.123   8.407 -0.0772  0.1114 -0.2903
  165SAPE  H17X18650   2.782   5.153   8.480  1.0186  0.3867  0.8076
  165SAPE  H17Y18651   2.846   5.174   8.309  1.6027 -2.1794 -1.8286
  165SAPE  C31818652   2.997   5.152   8.467 -0.3222  0.0621 -0.2668
  165SAPE  H18X18653   2.999   5.097   8.564 -2.2542  0.5747  0.1172
  165SAPE  H18Y18654   2.994   5.262   8.484 -0.3802  0.3028 -1.7172
  165SAPE  H18Z18655   3.071   5.129   8.388 -1.0678  0.3421 -1.0580
  166SAPE     N18656   6.636   0.332   6.264  0.1191  0.3751  0.0182
  166SAPE   HN118657   6.574   0.378   6.195  1.3239  1.6658 -0.2537
  166SAPE   HN218658   6.631   0.228   6.253  2.1444  0.0685  1.3913
  166SAPE   HN318659   6.620   0.361   6.362  0.5937 -1.2172  0.6037
  166SAPE   C1218660   6.778   0.367   6.227 -0.5439 -0.0165  0.3153
  166SAPE  H12A18661   6.802   0.327   6.126 -0.3248  1.4961 -0.2507
  166SAPE  H12B18662   6.844   0.300   6.287 -0.9924 -1.4881 -0.7453
  166SAPE   C1118663   6.818   0.507   6.265  0.2437  0.5112 -0.2440
  166SAPE  H11A18664   6.928   0.515   6.283  0.5325 -0.5867 -1.4223
  166SAPE  H11B18665   6.780   0.531   6.367 -0.9367 -0.6602 -0.3971
  166SAPE     P18666   6.871   0.711   6.100 -0.1583  0.2117  0.2906
  166SAPE   O1318667   6.992   0.647   6.045  0.0456 -0.2267  0.1939
  166SAPE   O1418668   6.789   0.790   6.002 -0.3119  0.9042 -0.3192
  166SAPE   O1218669   6.772   0.598   6.162 -0.1191 -0.7106 -0.6627
  166SAPE   O1118670   6.914   0.795   6.220 -0.2860  0.5923  0.1075
  166SAPE    C118671   6.817   0.830   6.320 -0.2404  0.1215 -0.4220
  166SAPE    HA18672   6.776   0.931   6.303 -1.0835 -0.1432 -0.0450
  166SAPE    HB18673   6.729   0.762   6.333  0.5517 -0.7024  0.8978
  166SAPE    C218674   6.880   0.825   6.459 -0.7008 -0.4603 -0.1306
  166SAPE    HS18675   6.960   0.901   6.444 -0.7499 -0.2565  0.5847
  166SAPE   O2118676   6.948   0.694   6.479 -0.6370  0.1262  0.7152
  166SAPE   C2118677   7.071   0.689   6.537 -0.9699  0.1435  0.1992
  166SAPE   O2218678   7.133   0.785   6.574 -0.0196  0.4800 -0.2533
  166SAPE   C2218679   7.108   0.535   6.566 -0.3108 -0.1371  0.3108
  166SAPE   H2R18680   7.006   0.490   6.564 -0.7171  0.7810  0.0367
  166SAPE   H2S18681   7.155   0.493   6.474 -0.6475 -0.8370  0.4555
  166SAPE    C318682   6.783   0.862   6.577  0.0324 -0.1446  0.3929
  166SAPE    HX18683   6.682   0.818   6.563  0.5683 -1.4025  0.3545
  166SAPE    HY18684   6.763   0.971   6.563  0.1630  0.0151  1.3489
  166SAPE   O3118685   6.834   0.841   6.711  0.0747 -0.5627 -0.9075
  166SAPE   C3118686   6.930   0.923   6.750 -0.3035 -0.1278 -1.0255
  166SAPE   O3218687   6.979   1.012   6.682 -0.1080 -0.5548  0.1488
  166SAPE   C3218688   6.967   0.908   6.893 -0.1288  0.0244  0.3050
  166SAPE   H2X18689   6.874   0.893   6.951  0.8566  0.9269  2.2155
  166SAPE   H2Y18690   7.018   1.001   6.926 -0.7243  0.3270  0.3664
  166SAPE   C2318691   7.202   0.512   6.687 -0.2053  0.0079 -0.2606
  166SAPE   H3R18692   7.215   0.609   6.740  1.6531 -0.4901  0.2677
  166SAPE   H3S18693   7.300   0.477   6.647 -0.2310 -0.3048 -0.0481
  166SAPE   C2418694   7.148   0.414   6.791  0.0585  0.0344  0.9435
  166SAPE   H4R18695   7.054   0.453   6.835 -0.3874 -0.6866  0.6546
  166SAPE   H4S18696   7.225   0.395   6.868  3.0238 -0.0635 -1.8587
  166SAPE   C2518697   7.109   0.278   6.734 -0.3600  0.5104 -0.2934
  166SAPE   H5R18698   7.133   0.258   6.629  1.1613 -2.7395  0.5278
  166SAPE   C2618699   7.062   0.173   6.800  0.3018 -0.4688 -0.4709
  166SAPE   H6R18700   7.041   0.080   6.744 -0.6392 -0.9191  0.6017
  166SAPE   C2718701   7.024   0.166   6.948 -0.6305 -0.0817  0.3332
  166SAPE   H7R18702   6.914   0.151   6.954 -1.2282  2.3846 -2.0957
  166SAPE   H7S18703   7.045   0.263   6.999 -0.9414  0.9787 -1.4409
  166SAPE   C2818704   7.091   0.044   7.006  0.7821  0.4532 -1.1289
  166SAPE   H8R18705   7.061  -0.047   6.953  0.7357 -0.3488  0.2308
  166SAPE   C2918706   7.189   0.045   7.094 -0.1481 -0.2288 -0.2850
  166SAPE   H9R18707   7.235  -0.045   7.137  0.3363  1.6278  3.4773
  166SAPE  C21018708   7.252   0.167   7.157  0.1615  0.4672 -0.1143
  166SAPE  H10R18709   7.257   0.253   7.087  1.8619  1.3477  1.0156
  166SAPE  H10S18710   7.360   0.150   7.176  0.3868  2.6164  0.7799
  166SAPE  C21118711   7.184   0.208   7.286 -0.7897  0.6126  0.3712
  166SAPE  H11R18712   7.110   0.288   7.272 -1.7477 -0.3594 -0.2199
  166SAPE  C21218713   7.207   0.156   7.409  0.0769 -0.5620  0.2590
  166SAPE  H12R18714   7.144   0.198   7.488 -1.2648  0.2877 -1.1947
  166SAPE  C21318715   7.300   0.040   7.442  0.3586 -0.2019  0.1218
  166SAPE  H13R18716   7.403   0.078   7.459 -0.3707  1.3391  1.4421
  166SAPE  H13S18717   7.306  -0.023   7.351  0.4649  1.6311 -1.2099
  166SAPE  C21418718   7.251  -0.039   7.560 -0.5442  0.6940 -0.5157
  166SAPE  H14R18719   7.208  -0.138   7.536  0.4569  0.8118 -3.2010
  166SAPE  C21518720   7.240   0.011   7.685 -0.5822 -0.8336  0.1522
  166SAPE  H15R18721   7.196  -0.048   7.767 -0.7403  3.1289  3.2681
  166SAPE  C21618722   7.280   0.150   7.732 -0.0949  0.1098 -0.0599
  166SAPE  H16R18723   7.204   0.223   7.695 -0.4874 -0.6681 -0.8204
  166SAPE  H16S18724   7.377   0.182   7.687  0.4478 -2.3850 -0.7930
  166SAPE  C21718725   7.268   0.152   7.888  0.1997 -0.4910  0.4317
  166SAPE  H17R18726   7.330   0.072   7.933  1.2251 -0.1496 -0.3338
  166SAPE  H17S18727   7.160   0.141   7.911 -0.3307 -1.6557 -2.2852
  166SAPE  C21818728   7.319   0.294   7.930 -1.1028  0.8605 -0.1859
  166SAPE  H18R18729   7.247   0.376   7.912 -0.3207  1.1936 -2.0023
  166SAPE  H18S18730   7.414   0.320   7.878  0.2720 -0.1852  1.6468
  166SAPE  C21918731   7.350   0.300   8.083 -0.3980  0.0579  0.6561
  166SAPE  H19R18732   7.423   0.220   8.108  0.0054 -0.3509 -1.6683
  166SAPE  H19S18733   7.260   0.275   8.144  0.0837 -0.6047  1.1081
  166SAPE  C22018734   7.381   0.439   8.121 -0.5020  0.5300 -0.3640
  166SAPE  H20R18735   7.373   0.451   8.232 -0.4101 -0.2020 -0.2705
  166SAPE  H20S18736   7.299   0.501   8.081 -0.9370 -0.5093 -1.1321
  166SAPE  H20T18737   7.474   0.475   8.072 -1.1363  0.2500 -1.8185
  166SAPE   C3318738   7.054   0.787   6.928 -0.1269 -0.0816  0.2786
  166SAPE   H3X18739   7.159   0.803   6.894 -0.4779  1.5603 -0.1446
  166SAPE   H3Y18740   7.017   0.706   6.862 -2.4362  2.9461 -2.4964
  166SAPE   C3418741   7.048   0.762   7.076 -0.0187  0.4388 -0.5406
  166SAPE   H4X18742   6.943   0.747   7.110  0.5056 -1.2072  0.4641
  166SAPE   H4Y18743   7.095   0.840   7.140  0.3969 -0.5097  0.3287
  166SAPE   C3518744   7.128   0.630   7.093 -0.3047 -0.5084 -0.2109
  166SAPE   H5X18745   7.106   0.565   7.006 -0.1799  2.6562 -2.8263
  166SAPE   H5Y18746   7.088   0.582   7.185  1.9519  0.0794  1.1366
  166SAPE   C3618747   7.282   0.655   7.104 -0.5307  0.7839 -0.2932
  166SAPE   H6X18748   7.319   0.736   7.170  2.6281 -0.3693 -0.4977
  166SAPE   H6Y18749   7.313   0.677   7.000 -0.2703  1.5502 -0.0639
  166SAPE   C3718750   7.353   0.522   7.145 -0.1353 -0.4283 -0.5282
  166SAPE   H7X18751   7.337   0.439   7.072 -2.4388 -0.1970 -0.3664
  166SAPE   H7Y18752   7.325   0.495   7.250  1.3166 -1.5205 -0.3836
  166SAPE   C3818753   7.501   0.553   7.165 -0.9970  0.4834 -0.1721
  166SAPE   H8X18754   7.520   0.634   7.239 -3.3877 -0.8643  2.1075
  166SAPE   H8Y18755   7.545   0.583   7.068  1.4356 -1.6090  0.1767
  166SAPE   C3918756   7.579   0.425   7.203 -0.1899  0.3432  0.1719
  166SAPE   H9X18757   7.684   0.440   7.171  0.2472 -0.8031  0.9704
  166SAPE   H9Y18758   7.548   0.338   7.142  0.8237 -0.2546  0.4893
  166SAPE  C31018759   7.595   0.399   7.352 -0.2453 -0.2001  0.2828
  166SAPE  H10X18760   7.490   0.393   7.387  0.3467  0.1653  2.2476
  166SAPE  H10Y18761   7.633   0.488   7.406 -0.9712 -1.3423  2.8667
  166SAPE  C31118762   7.671   0.272   7.391  0.0355  0.4585 -0.4790
  166SAPE  H11X18763   7.781   0.288   7.382  0.0508 -0.0157 -1.1462
  166SAPE  H11Y18764   7.649   0.198   7.312  0.7084  0.0372 -0.2891
  166SAPE  C31218765   7.633   0.227   7.537 -0.2929 -0.1969 -0.1442
  166SAPE  H12X18766   7.523   0.237   7.544 -0.4944 -0.4466 -2.2660
  166SAPE  H12Y18767   7.664   0.304   7.610  0.9574 -0.7185 -0.1022
  166SAPE  C31318768   7.693   0.090   7.593 -0.5309 -0.3529  1.2186
  166SAPE  H13X18769   7.803   0.090   7.580 -0.7218  1.0776 -0.7786
  166SAPE  H13Y18770   7.664   0.006   7.526  2.9180 -2.5592  2.1920
  166SAPE  C31418771   7.667   0.057   7.742 -1.0224  0.0165  0.6244
  166SAPE  H14X18772   7.709  -0.045   7.754 -1.0745 -0.2849 -1.3294
  166SAPE  H14Y18773   7.556   0.059   7.751 -1.7127 -1.9908 -3.9919
  166SAPE  C31518774   7.732   0.155   7.837 -0.6214  0.0445 -0.1586
  166SAPE  H15X18775   7.698   0.130   7.939 -0.4916 -1.0802 -0.3772
  166SAPE  H15Y18776   7.719   0.262   7.807 -0.7087 -0.1780 -0.9389
  166SAPE  C31618777   7.890   0.137   7.844 -0.0414 -1.0992 -0.6657
  166SAPE  H16X18778   7.943   0.195   7.766  0.3442 -0.2045  0.2256
  166SAPE  H16Y18779   7.914   0.029   7.842  2.0400 -0.7328  1.0552
  166SAPE  C31718780   7.952   0.195   7.973  0.6951  0.1949 -0.5283
  166SAPE  H17X18781   7.914   0.131   8.055  2.0636  0.5501  0.4219
  166SAPE  H17Y18782   7.922   0.301   7.985  1.9010  0.4952 -0.0734
  166SAPE  C31818783   8.105   0.190   7.976  0.3516 -0.1406 -0.0260
  166SAPE  H18X18784   8.140   0.282   7.925  2.4091 -0.2106  1.1499
  166SAPE  H18Y18785   8.154   0.102   7.931  0.8370  0.6859 -1.1537
  166SAPE  H18Z18786   8.142   0.205   8.080 -0.5757  0.0224  0.2902
  167SAPE     N18787   3.272   0.726   6.440 -0.4425 -0.7817  0.0532
  167SAPE   HN118788   3.282   0.819   6.486  2.6091 -1.1288  0.2973
  167SAPE   HN218789   3.181   0.690   6.477 -0.2573 -0.1164  1.2157
  167SAPE   HN318790   3.357   0.672   6.462  0.9631  1.0548 -0.6218
  167SAPE   C1218791   3.249   0.732   6.290  0.2703  0.1309  0.0548
  167SAPE  H12A18792   3.294   0.826   6.250  1.0415 -0.9422 -1.6710
  167SAPE  H12B18793   3.140   0.733   6.266 -0.2870 -1.7506  2.2061
  167SAPE   C1118794   3.316   0.624   6.205 -0.2761  0.3000 -0.1393
  167SAPE  H11A18795   3.420   0.661   6.192 -1.0939  2.6816 -0.4701
  167SAPE  H11B18796   3.266   0.620   6.106  1.0892 -0.6299 -0.8177
  167SAPE     P18797   3.321   0.367   6.179  0.3092 -0.0065 -0.2491
  167SAPE   O1318798   3.219   0.368   6.077  0.0452  0.5062  0.3315
  167SAPE   O1418799   3.459   0.345   6.128  0.4480 -0.1161  0.0343
  167SAPE   O1218800   3.315   0.495   6.261  0.7624 -0.3970  0.4008
  167SAPE   O1118801   3.292   0.257   6.287 -0.4780  0.1716  0.1021
  167SAPE    C118802   3.159   0.254   6.351 -0.0884  0.3855  0.3729
  167SAPE    HA18803   3.075   0.298   6.293  0.4623  0.4764 -0.3738
  167SAPE    HB18804   3.132   0.148   6.373 -1.0213  0.1914 -1.5430
  167SAPE    C218805   3.161   0.332   6.483  0.3704 -0.4227  0.5500
  167SAPE    HS18806   3.147   0.436   6.447 -1.4419 -1.2993 -1.4890
  167SAPE   O2118807   3.287   0.304   6.553 -0.8440  0.2178  0.1952
  167SAPE   C2118808   3.318   0.400   6.627 -0.1229 -1.0458 -0.7186
  167SAPE   O2218809   3.266   0.510   6.642 -0.0600 -0.1782  0.3053
  167SAPE   C2218810   3.449   0.368   6.697  0.5110  0.5543 -0.0367
  167SAPE   H2R18811   3.533   0.365   6.625  0.5976  0.7986  0.0530
  167SAPE   H2S18812   3.453   0.451   6.771 -1.3453 -1.4594  2.5049
  167SAPE    C318813   3.038   0.317   6.580  0.0125 -0.5338 -0.8908
  167SAPE    HX18814   3.021   0.207   6.582 -0.2249 -0.4862 -0.0153
  167SAPE    HY18815   2.945   0.365   6.544  0.3009  1.1353  0.4285
  167SAPE   O3118816   3.061   0.361   6.723  0.3596  0.0847  0.5158
  167SAPE   C3118817   2.994   0.471   6.769 -0.5877  0.4529 -0.5680
  167SAPE   O3218818   2.915   0.540   6.706 -0.5642 -0.0602  0.7472
  167SAPE   C3218819   3.040   0.507   6.914  0.7398  0.4317 -0.0552
  167SAPE   H2X18820   2.948   0.532   6.971  0.5665  0.6682 -0.4285
  167SAPE   H2Y18821   3.092   0.606   6.914  0.7944  0.4029  0.5178
  167SAPE   C2318822   3.451   0.226   6.769 -0.0453 -0.2518  0.1115
  167SAPE   H3R18823   3.460   0.148   6.691 -0.5974  2.2422 -2.6169
  167SAPE   H3S18824   3.349   0.210   6.811 -0.3384 -0.4821 -0.6782
  167SAPE   C2418825   3.565   0.230   6.875 -0.0051  0.7443 -0.4703
  167SAPE   H4R18826   3.557   0.322   6.937 -0.0778 -0.4765  1.4228
  167SAPE   H4S18827   3.663   0.235   6.824  0.5842 -0.8840  0.4195
  167SAPE   C2518828   3.554   0.103   6.957  0.0029 -0.6405  0.0949
  167SAPE   H5R18829   3.573   0.014   6.894 -0.1706  1.3845 -3.0052
  167SAPE   C2618830   3.543   0.094   7.092  0.1640  0.4203 -0.4237
  167SAPE   H6R18831   3.531  -0.008   7.131  0.3677  1.6738  3.3408
  167SAPE   C2718832   3.545   0.201   7.200  0.4109  0.2437  0.2243
  167SAPE   H7R18833   3.569   0.303   7.164 -1.9536  0.2532 -1.4787
  167SAPE   H7S18834   3.621   0.171   7.276 -1.7697  0.3159  2.5525
  167SAPE   C2818835   3.417   0.208   7.278  0.2797 -0.3119  0.0210
  167SAPE   H8R18836   3.325   0.170   7.233 -0.6334  1.7342  0.0369
  167SAPE   C2918837   3.410   0.256   7.406  0.2554 -0.3626  0.4428
  167SAPE   H9R18838   3.316   0.235   7.458 -1.0197  2.7387 -0.4170
  167SAPE  C21018839   3.533   0.310   7.483  0.8312  0.1583 -0.4084
  167SAPE  H10R18840   3.504   0.409   7.525 -0.9535 -0.4279 -0.1608
  167SAPE  H10S18841   3.613   0.331   7.409  0.2198 -0.1207 -1.1632
  167SAPE  C21118842   3.598   0.218   7.581 -0.8343  0.3270  0.2550
  167SAPE  H11R18843   3.636   0.128   7.532  0.7735  0.4555  1.1977
  167SAPE  C21218844   3.613   0.234   7.712 -0.0007  0.1121 -0.2434
  167SAPE  H12R18845   3.681   0.161   7.760  1.3819  0.5170 -1.5098
  167SAPE  C21318846   3.570   0.364   7.779  0.0084  0.0348 -0.3925
  167SAPE  H13R18847   3.545   0.445   7.707 -2.6047 -0.4617 -0.1515
  167SAPE  H13S18848   3.656   0.395   7.841  0.3988  2.7641 -2.1388
  167SAPE  C21418849   3.451   0.329   7.858 -0.4850 -0.0979 -0.0256
  167SAPE  H14R18850   3.372   0.285   7.796  1.8049 -2.7718 -1.2549
  167SAPE  C21518851   3.434   0.336   7.995 -0.1006 -0.3103 -0.3679
  167SAPE  H15R18852   3.340   0.309   8.046  1.0082 -0.8755  1.4947
  167SAPE  C21618853   3.544   0.381   8.093  0.0808  0.2795  0.4363
  167SAPE  H16R18854   3.549   0.491   8.105  0.7676  0.3847 -0.6327
  167SAPE  H16S18855   3.641   0.344   8.053 -1.3606 -2.0438 -1.2374
  167SAPE  C21718856   3.525   0.308   8.226  0.3965  0.7316  0.5751
  167SAPE  H17R18857   3.417   0.311   8.253 -0.9321 -2.3080 -3.3133
  167SAPE  H17S18858   3.576   0.349   8.316 -0.9790  0.7533  1.3748
  167SAPE  C21818859   3.570   0.163   8.219  0.0457 -0.0802  0.2398
  167SAPE  H18R18860   3.668   0.157   8.167  0.1382 -1.7487  0.5450
  167SAPE  H18S18861   3.505   0.104   8.150  0.8631  0.7039 -1.2681
  167SAPE  C21918862   3.589   0.091   8.354 -0.5893  0.6049  0.3590
  167SAPE  H19R18863   3.599  -0.018   8.333 -1.7146  0.6155 -0.2584
  167SAPE  H19S18864   3.493   0.105   8.408 -1.4156 -1.9142 -0.3168
  167SAPE  C22018865   3.706   0.146   8.441  0.2371 -0.0601  0.0286
  167SAPE  H20R18866   3.799   0.142   8.381  0.2833 -2.3522  0.1841
  167SAPE  H20S18867   3.721   0.084   8.532 -1.7487 -0.0058  0.4400
  167SAPE  H20T18868   3.677   0.248   8.476 -0.5595 -0.6301  1.0911
  167SAPE   C3318869   3.122   0.405   6.985 -0.6333 -0.0765 -0.3194
  167SAPE   H3X18870   3.214   0.384   6.926 -0.3178 -0.6209  0.3489
  167SAPE   H3Y18871   3.066   0.309   6.979  0.5020 -0.6799 -2.1844
  167SAPE   C3418872   3.154   0.438   7.132  0.6660 -0.3576 -0.7516
  167SAPE   H4X18873   3.208   0.535   7.140  1.1399 -0.5747 -1.2344
  167SAPE   H4Y18874   3.209   0.354   7.181  0.4189 -1.8964 -2.9647
  167SAPE   C3518875   3.029   0.440   7.219  0.2914 -0.2022  0.2370
  167SAPE   H5X18876   2.960   0.354   7.205 -1.5019  1.1182  0.6583
  167SAPE   H5Y18877   2.965   0.523   7.183  0.7987 -0.4519 -1.3017
  167SAPE   C3618878   3.059   0.446   7.365  0.5469  0.9247  0.1177
  167SAPE   H6X18879   3.121   0.534   7.391 -0.0217  0.8789  1.7949
  167SAPE   H6Y18880   3.110   0.351   7.391 -0.6238 -0.5620 -2.5948
  167SAPE   C3718881   2.936   0.452   7.447  0.3950  0.3022 -0.6511
  167SAPE   H7X18882   2.859   0.382   7.409 -1.4646  0.5193  2.4094
  167SAPE   H7Y18883   2.902   0.558   7.442  0.6218  0.4166  0.2093
  167SAPE   C3818884   2.958   0.433   7.595 -0.4367  0.0039  0.1141
  167SAPE   H8X18885   2.984   0.327   7.615 -0.7066 -0.0835  0.0059
  167SAPE   H8Y18886   2.853   0.445   7.629 -0.4454  0.1791  0.0294
  167SAPE   C3918887   3.048   0.528   7.666  0.0013  0.8470  0.3518
  167SAPE   H9X18888   3.009   0.626   7.633 -1.8175 -0.5380 -1.8707
  167SAPE   H9Y18889   3.152   0.511   7.629 -0.3126  1.8252 -1.0716
  167SAPE  C31018890   3.057   0.520   7.816  0.4333  0.5747  0.2244
  167SAPE  H10X18891   3.093   0.416   7.832  1.4971  1.2452  2.6321
  167SAPE  H10Y18892   2.958   0.504   7.864  0.7844 -2.0445  0.2325
  167SAPE  C31118893   3.151   0.623   7.881 -0.1393  0.3593  1.2258
  167SAPE  H11X18894   3.106   0.722   7.856 -1.1626 -0.2059  0.7488
  167SAPE  H11Y18895   3.251   0.611   7.834  0.2473  0.3625  2.0456
  167SAPE  C31218896   3.166   0.592   8.027  0.4884 -0.1041 -0.8301
  167SAPE  H12X18897   3.189   0.484   8.041 -0.8066 -0.0601  2.5893
  167SAPE  H12Y18898   3.065   0.611   8.071  0.5701  2.8426 -1.6845
  167SAPE  C31318899   3.267   0.680   8.107 -0.3481 -0.0377  0.2853
  167SAPE  H13X18900   3.239   0.788   8.104 -1.5566 -0.3494 -1.5102
  167SAPE  H13Y18901   3.372   0.662   8.078 -0.0470 -0.3409  1.5137
  167SAPE  C31418902   3.265   0.644   8.259  0.1479 -0.0069 -0.5083
  167SAPE  H14X18903   3.270   0.533   8.269 -0.2821  0.0654  0.5727
  167SAPE  H14Y18904   3.177   0.670   8.321 -1.4197 -3.7825 -0.8685
  167SAPE  C31518905   3.391   0.681   8.333 -0.1557  0.2464  0.5068
  167SAPE  H15X18906   3.406   0.791   8.330 -0.1922  0.2228 -1.7814
  167SAPE  H15Y18907   3.482   0.642   8.284 -0.0333  0.7249  0.3423
  167SAPE  C31618908   3.385   0.623   8.480  0.6251 -0.1480 -0.1121
  167SAPE  H16X18909   3.341   0.522   8.477 -0.9530  0.4887  0.6335
  167SAPE  H16Y18910   3.333   0.697   8.545  0.8766  0.5988 -0.7372
  167SAPE  C31718911   3.526   0.585   8.536 -0.4987  0.8906 -0.1081
  167SAPE  H17X18912   3.580   0.679   8.563  2.0137 -0.6691  0.5754
  167SAPE  H17Y18913   3.583   0.533   8.457  2.4645  1.2007  1.6574
  167SAPE  C31818914   3.508   0.490   8.658  0.4148  0.2014 -0.4165
  167SAPE  H18X18915   3.448   0.403   8.625  0.7904  0.3767 -1.6120
  167SAPE  H18Y18916   3.451   0.543   8.738 -0.9078 -0.1037 -1.1347
  167SAPE  H18Z18917   3.603   0.459   8.707 -0.4111  0.4449  1.4245
  168SAPE     N18918   3.861   0.167   6.335  0.7412  0.3913 -0.0460
  168SAPE   HN118919   3.894   0.206   6.244 -0.0024  1.6286  0.1905
  168SAPE   HN218920   3.785   0.105   6.301  1.0675  0.2585 -0.5535
  168SAPE   HN318921   3.830   0.248   6.393  2.5774  0.6645  0.6349
  168SAPE   C1218922   3.952   0.100   6.428 -0.5796  0.0018 -0.1204
  168SAPE  H12A18923   3.898   0.062   6.518 -0.8958 -0.9300 -0.6879
  168SAPE  H12B18924   4.031   0.174   6.451  0.9217 -1.4409 -0.4191
  168SAPE   C1118925   4.011  -0.024   6.355 -0.1632 -0.3506  0.3952
  168SAPE  H11A18926   3.929  -0.080   6.304 -0.9557  1.8057 -0.8278
  168SAPE  H11B18927   4.053  -0.092   6.432 -0.0550  0.1611  0.7859
  168SAPE     P18928   4.255   0.003   6.251  0.0311  0.4293 -0.0054
  168SAPE   O1318929   4.286  -0.128   6.189 -0.3435 -0.4135 -0.0980
  168SAPE   O1418930   4.325   0.119   6.188  0.8028  0.0381 -0.6541
  168SAPE   O1218931   4.097   0.021   6.254 -0.0974 -0.6106 -0.5551
  168SAPE   O1118932   4.300   0.002   6.401  0.5217 -0.1129  0.5991
  168SAPE    C118933   4.331   0.124   6.460 -0.1902 -0.0137 -0.3383
  168SAPE    HA18934   4.420   0.171   6.414 -0.8563  1.0754 -0.5496
  168SAPE    HB18935   4.244   0.192   6.445 -1.3132 -0.9888  1.3810
  168SAPE    C218936   4.357   0.105   6.611 -0.0366 -0.3310  0.2217
  168SAPE    HS18937   4.431   0.023   6.617  1.8635  1.3055  0.1343
  168SAPE   O2118938   4.229   0.075   6.669  0.5271 -0.1533 -0.3429
  168SAPE   C2118939   4.223  -0.009   6.763  0.7045  0.1106  0.0730
  168SAPE   O2218940   4.320  -0.064   6.814  0.4007 -0.1551 -0.0946
  168SAPE   C2218941   4.075  -0.037   6.803 -0.0697  0.1914 -0.1215
  168SAPE   H2R18942   4.020   0.056   6.830 -3.4857 -2.2380  2.0979
  168SAPE   H2S18943   4.026  -0.059   6.706 -1.0105  0.8668  0.1849
  168SAPE    C318944   4.423   0.230   6.682 -0.1167  0.3785 -0.5413
  168SAPE    HX18945   4.368   0.323   6.653 -0.0106  0.7302  0.3528
  168SAPE    HY18946   4.525   0.235   6.639  0.0014  3.8560 -0.1549
  168SAPE   O3118947   4.439   0.222   6.827 -0.5129  0.0248  0.0749
  168SAPE   C3118948   4.343   0.267   6.908 -0.5414  0.6419 -0.0307
  168SAPE   O3218949   4.241   0.318   6.869  0.7986 -0.2153  0.0526
  168SAPE   C3218950   4.386   0.261   7.049 -0.5463  0.4264 -0.1664
  168SAPE   H2X18951   4.305   0.316   7.103 -1.0702 -1.1861  0.7437
  168SAPE   H2Y18952   4.485   0.310   7.058 -0.4226  0.1091  0.1740
  168SAPE   C2318953   4.059  -0.138   6.918  0.3407 -0.0086 -0.0825
  168SAPE   H3R18954   4.130  -0.129   7.003 -1.5261  0.1719  1.5349
  168SAPE   H3S18955   4.072  -0.240   6.876 -0.7878 -0.1169 -0.1902
  168SAPE   C2418956   3.914  -0.130   6.974 -0.8443  0.1577 -0.8023
  168SAPE   H4R18957   3.859  -0.142   6.878  0.9197  1.7375 -2.0985
  168SAPE   H4S18958   3.925  -0.027   7.014 -0.5143 -0.3654  0.5001
  168SAPE   C2518959   3.886  -0.238   7.078 -0.3624 -0.0828  0.1946
  168SAPE   H5R18960   3.897  -0.333   7.023  0.4529  1.1542 -1.8904
  168SAPE   C2618961   3.872  -0.228   7.210  0.3332 -0.4155 -0.7682
  168SAPE   H6R18962   3.856  -0.317   7.273  0.3916  1.3599  1.9527
  168SAPE   C2718963   3.873  -0.093   7.281  0.0204  0.1928 -0.0884
  168SAPE   H7R18964   3.776  -0.084   7.333 -0.8239 -1.7202 -1.2031
  168SAPE   H7S18965   3.877  -0.004   7.214  1.9929  0.9222  0.9288
  168SAPE   C2818966   3.990  -0.077   7.377  0.5717  0.1971  0.1822
  168SAPE   H8R18967   4.085  -0.053   7.326  0.7106 -0.1506  0.2794
  168SAPE   C2918968   3.990  -0.109   7.508 -0.2034  0.0674 -0.3448
  168SAPE   H9R18969   4.076  -0.086   7.572 -2.3796  1.0338  2.3982
  168SAPE  C21018970   3.870  -0.158   7.589  0.5229  0.4161  0.6162
  168SAPE  H10R18971   3.813  -0.221   7.518  0.9690  1.1014 -0.3652
  168SAPE  H10S18972   3.809  -0.071   7.624  0.9924  0.5692  1.0631
  168SAPE  C21118973   3.909  -0.230   7.713  0.2172  1.0450  0.3596
  168SAPE  H11R18974   3.908  -0.340   7.714 -0.9165  1.0138 -1.2806
  168SAPE  C21218975   3.942  -0.183   7.840 -0.1708  0.0766 -0.1334
  168SAPE  H12R18976   3.970  -0.266   7.906  0.1349 -0.8277 -1.3679
  168SAPE  C21318977   3.954  -0.047   7.904 -0.0871 -0.6862  0.3831
  168SAPE  H13R18978   3.941   0.029   7.823  0.7536 -1.7381 -0.7909
  168SAPE  H13S18979   4.058  -0.035   7.941  0.6583  2.4134 -2.2850
  168SAPE  C21418980   3.851  -0.026   8.007  0.2764 -0.4132 -0.0080
  168SAPE  H14R18981   3.753   0.014   7.979 -0.3844 -0.4551  2.0577
  168SAPE  C21518982   3.859  -0.074   8.127 -0.3953  0.1082 -0.3959
  168SAPE  H15R18983   3.767  -0.070   8.188  0.2068 -0.1443  0.5462
  168SAPE  C21618984   3.977  -0.153   8.181 -0.0086  0.3450  0.3599
  168SAPE  H16R18985   4.044  -0.193   8.102  1.2429 -1.2060  2.1177
  168SAPE  H16S18986   3.928  -0.237   8.233  1.8325 -1.6562 -0.9439
  168SAPE  C21718987   4.057  -0.072   8.294 -0.4588  0.2272 -0.1007
  168SAPE  H17R18988   3.982  -0.025   8.362 -0.2027  0.1664  0.2238
  168SAPE  H17S18989   4.107   0.002   8.227  0.8115 -1.1609 -0.7448
  168SAPE  C21818990   4.159  -0.148   8.373  0.1708 -0.6619  0.4982
  168SAPE  H18R18991   4.235  -0.084   8.423 -0.2092  1.9429 -1.9939
  168SAPE  H18S18992   4.220  -0.203   8.298  0.1284 -1.1891  0.8435
  168SAPE  C21918993   4.107  -0.253   8.476  0.2189 -0.0641  0.0759
  168SAPE  H19R18994   4.032  -0.312   8.420  0.2376 -0.8796  0.8959
  168SAPE  H19S18995   4.051  -0.202   8.558  0.9024 -1.3808  1.4129
  168SAPE  C22018996   4.218  -0.341   8.526  0.4815  0.6333  0.2336
  168SAPE  H20R18997   4.288  -0.278   8.584 -1.3137 -0.4217  3.8459
  168SAPE  H20S18998   4.272  -0.393   8.444  1.0307  1.8914 -0.2335
  168SAPE  H20T18999   4.173  -0.409   8.601  1.5261  0.0705  0.3715
  168SAPE   C3319000   4.390   0.112   7.111 -0.0185 -0.4213 -0.4049
  168SAPE   H3X19001   4.458   0.044   7.056  0.2807 -1.5945  1.3380
  168SAPE   H3Y19002   4.290   0.064   7.106  0.0741 -0.7030  0.3093
  168SAPE   C3419003   4.435   0.127   7.259 -0.2152 -0.1116  0.3834
  168SAPE   H4X19004   4.512   0.204   7.279 -0.1922 -0.2227  0.7293
  168SAPE   H4Y19005   4.477   0.030   7.295 -1.4955 -1.5340 -1.7030
  168SAPE   C3519006   4.311   0.172   7.342 -0.3848 -0.0910  0.0994
  168SAPE   H5X19007   4.221   0.111   7.319 -0.6355  0.2272  0.2275
  168SAPE   H5Y19008   4.289   0.277   7.313 -0.3958 -0.2770 -0.5724
  168SAPE   C3619009   4.341   0.177   7.491 -0.0399 -0.2662  0.2535
  168SAPE   H6X19010   4.262   0.238   7.538 -0.5113 -0.9448  0.3478
  168SAPE   H6Y19011   4.437   0.232   7.501 -0.8193  1.8760 -2.7894
  168SAPE   C3719012   4.345   0.038   7.552 -0.2282 -0.2687 -0.4158
  168SAPE   H7X19013   4.447  -0.005   7.556 -0.6019 -1.6535 -3.2286
  168SAPE   H7Y19014   4.280  -0.029   7.490 -0.5133  0.1429 -0.5648
  168SAPE   C3819015   4.292   0.019   7.699  0.1006 -0.2683 -0.0449
  168SAPE   H8X19016   4.327  -0.083   7.728  0.3267 -0.5130 -1.1128
  168SAPE   H8Y19017   4.182   0.015   7.712 -0.3310  0.5426 -2.8094
  168SAPE   C3919018   4.351   0.119   7.799  0.5376 -0.6020  0.2284
  168SAPE   H9X19019   4.297   0.215   7.783  1.3704 -0.2162 -0.3232
  168SAPE   H9Y19020   4.459   0.133   7.778  0.9984 -1.8926  1.5574
  168SAPE  C31019021   4.347   0.069   7.947 -0.0856 -0.3966 -0.2366
  168SAPE  H10X19022   4.406  -0.024   7.962 -1.5158 -1.4221 -0.6993
  168SAPE  H10Y19023   4.239   0.056   7.971 -1.6580  4.5400 -3.0882
  168SAPE  C31119024   4.416   0.172   8.046 -0.1175  0.0590  0.9661
  168SAPE  H11X19025   4.363   0.269   8.056 -0.9827 -0.4366  1.3705
  168SAPE  H11Y19026   4.519   0.204   8.020 -0.6258  0.9379 -0.0584
  168SAPE  C31219027   4.436   0.115   8.184  0.2773  0.2758 -0.2305
  168SAPE  H12X19028   4.483   0.015   8.171  0.3796  0.3136 -0.1499
  168SAPE  H12Y19029   4.338   0.093   8.233  1.0144  0.5163  1.4081
  168SAPE  C31319030   4.516   0.200   8.278 -0.8888  0.0220  0.1145
  168SAPE  H13X19031   4.476   0.303   8.266 -2.0265 -0.6870 -3.2772
  168SAPE  H13Y19032   4.616   0.206   8.229 -0.2405  2.1778  1.5744
  168SAPE  C31419033   4.522   0.136   8.413 -0.1672 -0.4880 -0.0985
  168SAPE  H14X19034   4.542   0.027   8.406 -0.0148 -0.4590 -0.1214
  168SAPE  H14Y19035   4.431   0.162   8.472 -0.0733  2.6313 -1.1255
  168SAPE  C31519036   4.628   0.204   8.508 -0.5515 -0.2603 -0.2910
  168SAPE  H15X19037   4.608   0.313   8.503 -0.5710 -0.3207 -2.2337
  168SAPE  H15Y19038   4.731   0.192   8.468 -1.9897 -1.1053 -4.2194
  168SAPE  C31619039   4.618   0.152   8.650  0.1035  1.7796 -0.0277
  168SAPE  H16X19040   4.631   0.042   8.653 -2.6444  1.3889  0.2228
  168SAPE  H16Y19041   4.515   0.172   8.687 -0.2734  2.3051 -1.2811
  168SAPE  C31719042   4.719   0.220   8.737  0.1328  0.4002 -0.2623
  168SAPE  H17X19043   4.712   0.331   8.740 -2.0050  0.3569 -1.2200
  168SAPE  H17Y19044   4.817   0.203   8.689 -0.0449  1.5133 -1.0742
  168SAPE  C31819045   4.726   0.168   8.880 -0.5539 -0.0021  0.3590
  168SAPE  H18X19046   4.702   0.060   8.881 -1.0908  0.0785 -1.2621
  168SAPE  H18Y19047   4.652   0.211   8.951 -1.3360 -2.2081  0.9389
  168SAPE  H18Z19048   4.825   0.197   8.923  0.1359  0.7190 -1.5886
  169SAPE     N19049   0.986   3.472   6.368 -0.4261 -0.0976 -0.1801
  169SAPE   HN119050   0.931   3.556   6.395  1.3570  1.0329  0.1249
  169SAPE   HN219051   1.085   3.504   6.368 -0.4070 -0.1527 -0.4068
  169SAPE   HN319052   0.958   3.431   6.277  0.2751  0.8625 -0.8480
  169SAPE   C1219053   0.990   3.381   6.487  0.2983  0.2313 -0.3644
  169SAPE  H12A19054   0.942   3.435   6.571  0.1498 -0.4958  0.0243
  169SAPE  H12B19055   1.099   3.378   6.512  0.0735 -0.0329  0.6463
  169SAPE   C1119056   0.940   3.239   6.444 -0.4213  0.0424 -0.1985
  169SAPE  H11A19057   0.843   3.240   6.390 -1.0662  0.1078  0.9230
  169SAPE  H11B19058   0.923   3.174   6.533 -2.4698 -0.1987 -0.7165
  169SAPE     P19059   1.101   3.036   6.396  0.1189  0.1266 -0.2275
  169SAPE   O1319060   1.203   3.011   6.296  0.1835 -0.0245  0.3985
  169SAPE   O1419061   1.148   3.038   6.536 -0.2430 -0.4422 -0.1522
  169SAPE   O1219062   1.032   3.166   6.355  0.4916 -0.2962  0.3022
  169SAPE   O1119063   0.998   2.923   6.384  0.2669 -0.6195  0.1679
  169SAPE    C119064   1.023   2.784   6.436 -0.1786 -0.6067 -0.7695
  169SAPE    HA19065   1.030   2.712   6.352  1.8987 -2.0417  0.5174
  169SAPE    HB19066   1.114   2.772   6.499  0.0617  0.9846 -0.7885
  169SAPE    C219067   0.895   2.730   6.512 -0.0516 -0.1696 -0.8799
  169SAPE    HS19068   0.808   2.720   6.443 -0.9232  1.0883 -0.0101
  169SAPE   O2119069   0.875   2.823   6.624 -0.2950  0.5841  0.1729
  169SAPE   C2119070   0.768   2.892   6.620  0.3254  0.2722  0.1187
  169SAPE   O2219071   0.689   2.895   6.524 -0.3490  0.4852 -0.2011
  169SAPE   C2219072   0.759   2.983   6.745  0.5191  0.7599 -0.0221
  169SAPE   H2R19073   0.787   2.920   6.832  0.1709 -0.6487 -0.9012
  169SAPE   H2S19074   0.849   3.049   6.744 -0.2712  1.8617 -0.0916
  169SAPE    C319075   0.922   2.586   6.571 -0.2562  0.2602  0.0891
  169SAPE    HX19076   0.949   2.517   6.488  0.2067 -2.7522  2.5685
  169SAPE    HY19077   0.829   2.543   6.614 -2.5532  2.3367 -2.4471
  169SAPE   O3119078   1.032   2.579   6.663  0.1026  0.3533 -0.2716
  169SAPE   C3119079   1.064   2.445   6.700  0.3315 -0.5412  0.0888
  169SAPE   O3219080   1.007   2.351   6.645 -0.1054  0.3608  0.2213
  169SAPE   C3219081   1.153   2.447   6.813  0.2884 -0.0381 -0.0270
  169SAPE   H2X19082   1.210   2.543   6.813  1.4557 -0.7120 -0.1235
  169SAPE   H2Y19083   1.223   2.362   6.799 -0.2174 -0.6873  1.2131
  169SAPE   C2319084   0.630   3.055   6.770  0.0692 -0.2883 -0.1263
  169SAPE   H3R19085   0.546   2.984   6.757  0.5644 -0.7647 -0.8059
  169SAPE   H3S19086   0.622   3.136   6.694 -0.7741 -0.3810 -0.1431
  169SAPE   C2419087   0.635   3.124   6.906  0.3642  0.1681  0.4712
  169SAPE   H4R19088   0.729   3.182   6.900  0.0365  0.6794  0.2061
  169SAPE   H4S19089   0.653   3.050   6.987 -1.5570  1.0904  1.8383
  169SAPE   C2519090   0.526   3.220   6.941  0.3940 -0.3091 -0.8593
  169SAPE   H5R19091   0.542   3.328   6.929  1.4047 -0.1642  1.2151
  169SAPE   C2619092   0.422   3.173   7.014 -0.6438 -0.0779 -0.2470
  169SAPE   H6R19093   0.351   3.244   7.059 -0.6928 -0.0159 -0.4213
  169SAPE   C2719094   0.412   3.026   7.058  0.0018 -0.3924  0.4667
  169SAPE   H7R19095   0.503   3.001   7.118  0.1184 -2.6199 -0.5392
  169SAPE   H7S19096   0.415   2.968   6.963  1.0312  2.1269 -1.1707
  169SAPE   C2819097   0.283   2.995   7.131 -0.7886 -0.3508  0.0579
  169SAPE   H8R19098   0.196   3.014   7.066 -0.1527  3.1207  0.0538
  169SAPE   C2919099   0.280   2.954   7.262  0.1811 -0.2906  0.0147
  169SAPE   H9R19100   0.179   2.936   7.301 -1.6945  0.9352 -3.8496
  169SAPE  C21019101   0.401   2.945   7.346  0.3320  0.0778  0.0777
  169SAPE  H10R19102   0.490   2.906   7.292 -0.2619 -0.2438 -0.6759
  169SAPE  H10S19103   0.384   2.869   7.425 -1.5176  0.9924  0.6347
  169SAPE  C21119104   0.435   3.073   7.414  0.4582  0.1191 -0.7723
  169SAPE  H11R19105   0.484   3.152   7.355 -0.4398  0.8885 -0.5100
  169SAPE  C21219106   0.415   3.105   7.544  0.7972  0.3846  0.0015
  169SAPE  H12R19107   0.459   3.200   7.575  1.4336  0.5821 -1.4274
  169SAPE  C21319108   0.357   3.019   7.652 -0.4421  0.3729 -0.3520
  169SAPE  H13R19109   0.420   2.928   7.665 -1.0494  0.1064  0.8309
  169SAPE  H13S19110   0.257   2.978   7.625  0.1451 -0.3920 -1.4688
  169SAPE  C21419111   0.344   3.100   7.781 -0.4584 -0.1379 -0.1271
  169SAPE  H14R19112   0.256   3.166   7.786 -2.5862 -2.9097  1.9970
  169SAPE  C21519113   0.429   3.108   7.882  0.1993 -0.7065 -0.3619
  169SAPE  H15R19114   0.392   3.171   7.964  2.6312  3.2919 -2.0630
  169SAPE  C21619115   0.565   3.043   7.897 -0.0590  0.4024  1.2822
  169SAPE  H16R19116   0.644   3.117   7.923 -0.8463  2.2130 -1.1793
  169SAPE  H16S19117   0.596   2.994   7.802 -1.0425 -0.6094  1.4575
  169SAPE  C21719118   0.558   2.930   8.006  0.4128 -0.1723  0.0886
  169SAPE  H17R19119   0.654   2.874   8.010  0.2922 -0.3375  0.8511
  169SAPE  H17S19120   0.472   2.866   7.978 -0.2468  0.8998 -0.4064
  169SAPE  C21819121   0.528   2.986   8.142 -0.5004 -0.7075 -0.0234
  169SAPE  H18R19122   0.432   3.041   8.148  1.1390  2.6846 -1.9991
  169SAPE  H18S19123   0.607   3.059   8.171 -2.0996  0.9205  0.4100
  169SAPE  C21919124   0.542   2.872   8.247  0.1841  0.0693  0.0300
  169SAPE  H19R19125   0.640   2.823   8.226 -0.5512 -0.9962 -1.1444
  169SAPE  H19S19126   0.461   2.803   8.216 -1.8176  3.0652 -1.9236
  169SAPE  C22019127   0.540   2.906   8.395  0.1500 -0.9168  0.3003
  169SAPE  H20R19128   0.438   2.946   8.415  0.9210  1.5133 -0.2619
  169SAPE  H20S19129   0.611   2.987   8.421  0.3774 -1.0333  0.0489
  169SAPE  H20T19130   0.571   2.821   8.459  2.5186 -0.8254 -0.6417
  169SAPE   C3319131   1.081   2.410   6.949 -1.0070  0.2882  0.1029
  169SAPE   H3X19132   1.030   2.312   6.942  2.5101 -1.6468 -0.5796
  169SAPE   H3Y19133   0.999   2.484   6.959  0.9584  2.6752 -0.2470
  169SAPE   C3419134   1.170   2.420   7.072  0.3199 -0.0243 -0.4349
  169SAPE   H4X19135   1.204   2.525   7.068 -1.5856  0.9414  3.4683
  169SAPE   H4Y19136   1.260   2.355   7.066 -0.1042 -0.4816 -3.0165
  169SAPE   C3519137   1.089   2.400   7.206  0.7448 -0.7306 -0.6778
  169SAPE   H5X19138   1.034   2.304   7.206 -3.2899  1.3470 -0.8479
  169SAPE   H5Y19139   1.020   2.487   7.213 -0.0151 -1.4042  0.8031
  169SAPE   C3619140   1.182   2.407   7.328  0.4281 -0.8277  0.0001
  169SAPE   H6X19141   1.236   2.504   7.325 -1.5883  0.3570  0.6624
  169SAPE   H6Y19142   1.265   2.335   7.312  1.9404  1.2685 -2.5244
  169SAPE   C3719143   1.109   2.394   7.464  0.0160 -0.4401 -0.6023
  169SAPE   H7X19144   1.030   2.315   7.462  0.7610 -1.3632  2.0169
  169SAPE   H7Y19145   1.061   2.493   7.477 -0.5175 -0.5442 -1.6999
  169SAPE   C3819146   1.192   2.356   7.589 -0.1587  0.8489 -0.0211
  169SAPE   H8X19147   1.140   2.392   7.681  0.9639 -1.6875  1.7425
  169SAPE   H8Y19148   1.275   2.429   7.582 -0.1350  0.6732 -2.2835
  169SAPE   C3919149   1.240   2.209   7.606 -0.3723  0.6056 -0.3000
  169SAPE   H9X19150   1.313   2.172   7.531 -0.0870  1.3882 -0.4219
  169SAPE   H9Y19151   1.154   2.141   7.592 -1.2596  1.7565 -0.5736
  169SAPE  C31019152   1.310   2.197   7.732  0.0448  0.2869  0.0194
  169SAPE  H10X19153   1.269   2.258   7.815 -0.8280  0.0357 -0.2155
  169SAPE  H10Y19154   1.409   2.247   7.721 -0.2379  0.6072 -1.1385
  169SAPE  C31119155   1.325   2.051   7.770  0.6925  0.1178 -0.1871
  169SAPE  H11X19156   1.386   1.999   7.692  0.0568 -0.2309 -0.4687
  169SAPE  H11Y19157   1.220   2.018   7.758  0.5453  1.3926 -3.4729
  169SAPE  C31219158   1.378   2.023   7.912 -0.3687 -0.0425  0.5334
  169SAPE  H12X19159   1.473   2.078   7.927  0.7955 -1.3821 -1.4329
  169SAPE  H12Y19160   1.391   1.916   7.941 -2.2726 -0.5396 -0.3068
  169SAPE  C31319161   1.291   2.082   8.025 -0.4173  0.1496  0.6458
  169SAPE  H13X19162   1.186   2.070   7.989 -0.0867 -1.5382  0.1895
  169SAPE  H13Y19163   1.325   2.188   8.028 -2.0330  0.7226  0.0069
  169SAPE  C31419164   1.328   2.009   8.157  0.1331  0.0003  0.2713
  169SAPE  H14X19165   1.430   2.037   8.191 -0.6369 -0.1401  2.9459
  169SAPE  H14Y19166   1.317   1.899   8.157 -1.8159  0.1375 -1.9084
  169SAPE  C31519167   1.228   2.043   8.265  0.2834 -0.6333 -0.0144
  169SAPE  H15X19168   1.132   2.024   8.213 -0.2378 -1.7772  1.2891
  169SAPE  H15Y19169   1.247   2.151   8.285 -0.5050 -0.0333 -2.2427
  169SAPE  C31619170   1.247   1.961   8.390 -0.5020  0.3934  0.2103
  169SAPE  H16X19171   1.201   1.864   8.363  3.1063 -1.3243 -0.3094
  169SAPE  H16Y19172   1.172   1.990   8.467 -0.5394 -0.9269  0.6982
  169SAPE  C31719173   1.383   1.936   8.448  0.1283 -0.3565 -0.4588
  169SAPE  H17X19174   1.424   2.033   8.411 -3.6270  1.0241 -1.4889
  169SAPE  H17Y19175   1.433   1.857   8.388  1.1595  1.8544 -2.7095
  169SAPE  C31819176   1.383   1.917   8.604 -0.1225  0.1329 -0.4168
  169SAPE  H18X19177   1.318   1.832   8.637  0.3055  0.1225  0.4128
  169SAPE  H18Y19178   1.352   2.007   8.660  0.0202  0.0245 -0.1597
  169SAPE  H18Z19179   1.485   1.894   8.641  0.2935  1.1049 -0.9600
  170SAPE     N19180   4.252   6.405   6.304 -0.7676 -0.0215  0.1955
  170SAPE   HN119181   4.300   6.442   6.388  0.4402  1.7216 -1.1926
  170SAPE   HN219182   4.319   6.335   6.265 -2.2606 -0.9128 -0.8876
  170SAPE   HN319183   4.234   6.487   6.243  0.3721  0.2316  0.1694
  170SAPE   C1219184   4.119   6.326   6.336  0.1681 -0.3640  0.3295
  170SAPE  H12A19185   4.046   6.404   6.365 -0.7691 -1.7222  1.7630
  170SAPE  H12B19186   4.134   6.256   6.421  2.8373  0.9543  1.0662
  170SAPE   C1119187   4.083   6.241   6.212  0.6170 -0.0355  0.3092
  170SAPE  H11A19188   4.077   6.314   6.127  0.8359  1.8918  1.8722
  170SAPE  H11B19189   3.987   6.187   6.222  1.2938 -1.2254  0.5930
  170SAPE     P19190   4.209   6.005   6.234 -0.0274 -0.1225 -0.3928
  170SAPE   O1319191   4.086   5.954   6.287  0.0374 -0.2939 -0.3763
  170SAPE   O1419192   4.274   5.930   6.131  0.2920 -0.3495  0.2410
  170SAPE   O1219193   4.187   6.150   6.177 -0.3672 -0.4057 -0.0485
  170SAPE   O1119194   4.310   6.037   6.351 -0.4230  0.3150 -0.4157
  170SAPE    C119195   4.363   5.929   6.427 -0.2963  0.1043 -1.0788
  170SAPE    HA19196   4.302   5.836   6.422  2.0110 -1.4799 -1.9558
  170SAPE    HB19197   4.462   5.907   6.381  1.3232  2.4748  0.9971
  170SAPE    C219198   4.384   5.971   6.576  0.0890  0.1947  0.9188
  170SAPE    HS19199   4.417   5.876   6.622  0.1706 -0.8382 -1.1456
  170SAPE   O2119200   4.261   6.030   6.622  0.5986 -0.0204 -0.2408
  170SAPE   C2119201   4.180   5.936   6.657 -0.2630 -0.2503 -0.0677
  170SAPE   O2219202   4.208   5.819   6.676 -0.1404 -0.1846  0.1813
  170SAPE   C2219203   4.037   5.993   6.669  0.3989 -0.7079  0.0150
  170SAPE   H2R19204   4.044   6.099   6.700 -1.3958 -0.2943 -0.9102
  170SAPE   H2S19205   3.982   5.967   6.576 -0.2206  1.7850 -0.3727
  170SAPE    C319206   4.498   6.077   6.594  0.5082 -0.6705  0.3995
  170SAPE    HX19207   4.475   6.166   6.532 -1.0688  1.9850  4.4118
  170SAPE    HY19208   4.591   6.026   6.561 -0.2611 -1.0123 -1.3482
  170SAPE   O3119209   4.501   6.104   6.736  0.0883 -0.0081  0.5177
  170SAPE   C3119210   4.441   6.206   6.773 -0.7095  0.5611  0.5043
  170SAPE   O3219211   4.390   6.296   6.708  0.4904 -0.2511  0.1871
  170SAPE   C3219212   4.439   6.194   6.927  0.1206  0.1977  0.0559
  170SAPE   H2X19213   4.538   6.230   6.963 -0.0483  0.0755  0.6584
  170SAPE   H2Y19214   4.429   6.090   6.966 -0.7379 -0.2458 -1.2775
  170SAPE   C2319215   3.955   5.914   6.767  0.4252  0.2181  0.3846
  170SAPE   H3R19216   3.986   5.809   6.751 -1.4041 -0.1452 -1.3250
  170SAPE   H3S19217   3.847   5.920   6.741  0.0229 -1.8397  1.4544
  170SAPE   C2419218   3.966   5.945   6.922 -0.0479 -0.0872 -0.2762
  170SAPE   H4R19219   4.075   5.956   6.935 -0.1275 -0.0931  0.4819
  170SAPE   H4S19220   3.923   5.859   6.979 -1.1569  0.4568 -0.2667
  170SAPE   C2519221   3.906   6.079   6.956  0.2459 -0.3875 -0.3991
  170SAPE   H5R19222   3.937   6.159   6.887  0.8441 -1.0945 -0.9593
  170SAPE   C2619223   3.846   6.119   7.068 -0.7899  0.4887  0.6089
  170SAPE   H6R19224   3.813   6.224   7.074  0.1596  0.7080  2.4722
  170SAPE   C2719225   3.826   6.040   7.190 -0.1630  0.5261  0.3926
  170SAPE   H7R19226   3.902   5.959   7.193 -0.9220 -0.2998 -1.2190
  170SAPE   H7S19227   3.730   5.985   7.189  0.6435 -0.9389  0.0680
  170SAPE   C2819228   3.826   6.133   7.310  0.0776 -0.0055 -0.1348
  170SAPE   H8R19229   3.922   6.144   7.363  1.6279 -0.2039 -2.6819
  170SAPE   C2919230   3.727   6.202   7.366  0.5856 -0.4168  0.2159
  170SAPE   H9R19231   3.747   6.258   7.459 -0.2412 -0.5421  0.4794
  170SAPE  C21019232   3.579   6.197   7.323  1.0967 -0.2740 -0.1184
  170SAPE  H10R19233   3.557   6.164   7.219  0.9204 -2.8736  0.6671
  170SAPE  H10S19234   3.525   6.293   7.339 -1.8094 -1.4778 -1.8816
  170SAPE  C21119235   3.495   6.101   7.403  0.3143  0.7294 -0.6531
  170SAPE  H11R19236   3.459   6.020   7.337  2.1443  0.7995 -1.8041
  170SAPE  C21219237   3.471   6.106   7.538  0.6596  0.5030  0.2490
  170SAPE  H12R19238   3.397   6.037   7.580 -0.9387  0.3901 -2.5058
  170SAPE  C21319239   3.506   6.213   7.637 -0.2655 -0.3038  0.3149
  170SAPE  H13R19240   3.423   6.229   7.708 -0.7601 -0.9060 -0.1151
  170SAPE  H13S19241   3.539   6.307   7.588  1.1854  0.6651  2.9643
  170SAPE  C21419242   3.622   6.169   7.717  0.2580  0.6372 -0.1852
  170SAPE  H14R19243   3.695   6.103   7.669 -1.4525 -1.0961 -0.5417
  170SAPE  C21519244   3.626   6.183   7.853 -0.1077 -0.0794 -0.5985
  170SAPE  H15R19245   3.705   6.121   7.899  1.4272 -0.6001 -3.6615
  170SAPE  C21619246   3.526   6.240   7.949 -0.2727 -0.2484  0.0018
  170SAPE  H16R19247   3.552   6.203   8.051  1.5271 -0.1636 -0.3974
  170SAPE  H16S19248   3.429   6.191   7.925 -0.2839 -0.5473  0.6334
  170SAPE  C21719249   3.522   6.389   7.959 -0.2304 -0.2021  0.1537
  170SAPE  H17R19250   3.443   6.414   8.033  1.8712  1.0800  2.0851
  170SAPE  H17S19251   3.498   6.429   7.858  1.6288 -2.4058 -1.2644
  170SAPE  C21819252   3.647   6.445   8.033  0.7228  0.1047 -0.0846
  170SAPE  H18R19253   3.659   6.552   8.005 -0.8120  0.3666  0.2001
  170SAPE  H18S19254   3.734   6.387   7.995  1.7322 -0.2185  2.4715
  170SAPE  C21919255   3.642   6.414   8.185 -0.0809 -0.3183  0.1290
  170SAPE  H19R19256   3.745   6.403   8.226 -0.4199  1.0700  1.4316
  170SAPE  H19S19257   3.598   6.314   8.203  1.4084 -1.0799 -0.2672
  170SAPE  C22019258   3.562   6.515   8.275 -0.0988  0.0803 -0.0985
  170SAPE  H20R19259   3.516   6.467   8.364  0.9586 -2.5051 -0.8469
  170SAPE  H20S19260   3.472   6.553   8.221 -0.4776  0.4640  0.7885
  170SAPE  H20T19261   3.632   6.597   8.301  0.3747  0.5106 -2.5201
  170SAPE   C3319262   4.325   6.284   6.980  0.1000  0.0817 -0.3313
  170SAPE   H3X19263   4.228   6.249   6.939 -0.8849  0.1326  1.8562
  170SAPE   H3Y19264   4.339   6.388   6.945  1.1604  0.1924  0.3776
  170SAPE   C3419265   4.313   6.281   7.134  0.1222 -0.1334 -0.6030
  170SAPE   H4X19266   4.390   6.348   7.178  0.3649 -1.1952  0.6782
  170SAPE   H4Y19267   4.327   6.178   7.174  1.5812  0.0576 -0.5572
  170SAPE   C3519268   4.173   6.336   7.181  0.7016  0.7035  0.7729
  170SAPE   H5X19269   4.097   6.261   7.148  0.5837  1.2491 -0.2337
  170SAPE   H5Y19270   4.147   6.434   7.136  0.8681  0.4910  0.2002
  170SAPE   C3619271   4.163   6.358   7.329 -0.6036 -0.3737  0.1765
  170SAPE   H6X19272   4.061   6.394   7.352 -0.6735  1.5656 -2.7127
  170SAPE   H6Y19273   4.225   6.447   7.354 -0.1815 -0.3569 -0.8774
  170SAPE   C3719274   4.215   6.239   7.407 -0.0182  0.6427 -0.3309
  170SAPE   H7X19275   4.320   6.215   7.383 -0.5025 -0.5694 -1.3530
  170SAPE   H7Y19276   4.148   6.156   7.375 -0.3123  0.6227  0.3268
  170SAPE   C3819277   4.203   6.250   7.562  0.5611  0.1793 -0.0491
  170SAPE   H8X19278   4.202   6.149   7.607  1.3411 -0.1870 -0.8441
  170SAPE   H8Y19279   4.105   6.299   7.585  0.3393 -0.3924  0.2395
  170SAPE   C3919280   4.310   6.335   7.634  0.1165 -0.5455 -0.3674
  170SAPE   H9X19281   4.308   6.442   7.604  0.7919 -1.0312 -2.3102
  170SAPE   H9Y19282   4.409   6.302   7.598 -0.8421 -3.1263 -0.8994
  170SAPE  C31019283   4.298   6.310   7.792 -0.2219 -0.3734  0.7781
  170SAPE  H10X19284   4.310   6.203   7.819 -0.5484 -0.5043  0.4098
  170SAPE  H10Y19285   4.197   6.344   7.823 -0.6839 -0.4214 -0.5822
  170SAPE  C31119286   4.408   6.392   7.863 -0.1066  0.4228 -0.1032
  170SAPE  H11X19287   4.440   6.483   7.808 -0.4915  1.0593  0.6880
  170SAPE  H11Y19288   4.499   6.329   7.850  0.4208  0.2179  3.5433
  170SAPE  C31219289   4.380   6.413   8.011 -0.6985 -0.0356 -0.3853
  170SAPE  H12X19290   4.363   6.316   8.061  2.1870 -0.0983  0.6668
  170SAPE  H12Y19291   4.285   6.470   8.024 -0.9343 -0.0703 -1.7854
  170SAPE  C31319292   4.498   6.478   8.078  0.5614  1.0242  0.1194
  170SAPE  H13X19293   4.507   6.578   8.031 -1.3279  0.4902 -1.5681
  170SAPE  H13Y19294   4.589   6.419   8.053  0.4336  0.7697  0.2434
  170SAPE  C31419295   4.497   6.466   8.223  0.4725 -0.2860 -0.0110
  170SAPE  H14X19296   4.493   6.357   8.244 -0.3838 -0.4259 -0.8708
  170SAPE  H14Y19297   4.401   6.511   8.257 -0.3146 -1.1167 -1.0721
  170SAPE  C31519298   4.617   6.536   8.282 -0.3195 -0.3567  0.6331
  170SAPE  H15X19299   4.616   6.644   8.254 -1.9778 -0.9917 -2.1528
  170SAPE  H15Y19300   4.710   6.489   8.244  0.3994  0.5476  1.2196
  170SAPE  C31619301   4.610   6.517   8.440 -0.5876  0.4603  0.7018
  170SAPE  H16X19302   4.503   6.512   8.469 -1.3751  1.6600 -1.6978
  170SAPE  H16Y19303   4.659   6.601   8.493 -1.5751  1.8823 -0.5508
  170SAPE  C31719304   4.668   6.392   8.501  0.2180  0.7020  0.0534
  170SAPE  H17X19305   4.778   6.387   8.483  0.0532  0.0812 -0.8535
  170SAPE  H17Y19306   4.630   6.303   8.446  3.4516  0.2759 -1.7519
  170SAPE  C31819307   4.652   6.386   8.657 -0.5418  0.8071 -0.1814
  170SAPE  H18X19308   4.726   6.309   8.689 -1.3858 -0.5528 -1.4006
  170SAPE  H18Y19309   4.550   6.359   8.693  0.0009 -1.5607 -0.2303
  170SAPE  H18Z19310   4.686   6.478   8.708  1.8561  0.1472 -0.4487
  171SAPE     N19311   4.803   1.032   6.271 -0.0983  0.3425 -0.0092
  171SAPE   HN119312   4.814   0.929   6.285 -0.0566  0.1028 -1.5799
  171SAPE   HN219313   4.770   1.051   6.367  0.4634  1.0298  0.0578
  171SAPE   HN319314   4.732   1.054   6.198  0.5823 -0.7372 -1.0450
  171SAPE   C1219315   4.938   1.095   6.244 -0.3431 -0.0882 -0.3562
  171SAPE  H12A19316   4.924   1.204   6.258 -3.2292 -0.6166  1.8444
  171SAPE  H12B19317   4.978   1.065   6.144  0.3616  4.2981 -1.5839
  171SAPE   C1119318   5.038   1.035   6.353  0.1540 -0.6363  0.3402
  171SAPE  H11A19319   5.012   1.075   6.454 -2.1571 -0.6914 -0.1725
  171SAPE  H11B19320   5.138   1.069   6.318 -0.0284 -1.5653 -1.1801
  171SAPE     P19321   5.152   0.797   6.316  0.7035 -0.5088 -0.2474
  171SAPE   O1319322   5.087   0.677   6.251  0.0995 -0.1714  0.0244
  171SAPE   O1419323   5.244   0.878   6.234 -0.0944  0.8975  0.2840
  171SAPE   O1219324   5.031   0.894   6.365 -0.3096  0.2550  0.3173
  171SAPE   O1119325   5.220   0.758   6.450  0.1134 -0.7311 -0.9413
  171SAPE    C119326   5.139   0.715   6.568  0.1773  0.2251  0.1388
  171SAPE    HA19327   5.084   0.802   6.611  2.3205  2.1022 -0.7142
  171SAPE    HB19328   5.064   0.637   6.542  1.4526 -1.2172  0.6055
  171SAPE    C219329   5.231   0.655   6.677 -0.2699 -0.3124 -0.4424
  171SAPE    HS19330   5.177   0.651   6.774  0.2175 -2.1690 -0.2143
  171SAPE   O2119331   5.353   0.730   6.694  0.2442 -0.1422 -0.2895
  171SAPE   C2119332   5.332   0.858   6.741  0.1965 -0.3395 -0.2751
  171SAPE   O2219333   5.222   0.894   6.780  0.0227 -0.4413  0.2032
  171SAPE   C2219334   5.456   0.946   6.718  0.0025  0.0536 -0.1549
  171SAPE   H2R19335   5.472   0.971   6.611  0.8647 -2.1047 -0.5807
  171SAPE   H2S19336   5.443   1.044   6.768  1.0600  0.1829 -0.0944
  171SAPE    C319337   5.279   0.518   6.638  0.0694 -0.1137  0.4268
  171SAPE    HX19338   5.309   0.516   6.531  1.6069  0.1651  0.8188
  171SAPE    HY19339   5.193   0.450   6.649 -1.9763  2.3283  0.4113
  171SAPE   O3119340   5.385   0.479   6.730  0.0095  0.2388  0.4507
  171SAPE   C3119341   5.511   0.485   6.692 -0.9898  0.0851  0.0546
  171SAPE   O3219342   5.553   0.526   6.581 -0.5968  0.5569  0.1506
  171SAPE   C3219343   5.599   0.442   6.814 -0.4151  0.3381  1.2016
  171SAPE   H2X19344   5.604   0.331   6.807 -0.3624  0.4286 -0.9801
  171SAPE   H2Y19345   5.542   0.465   6.906 -3.7301  1.2897 -0.9235
  171SAPE   C2319346   5.585   0.897   6.785 -0.0026 -0.2463 -0.7828
  171SAPE   H3R19347   5.664   0.974   6.771  0.3043 -0.6486 -1.3417
  171SAPE   H3S19348   5.612   0.814   6.715  0.3051 -0.9969  0.1995
  171SAPE   C2419349   5.572   0.833   6.931 -0.2411 -0.6396  0.5375
  171SAPE   H4R19350   5.663   0.775   6.953 -0.1919  0.2440  2.8806
  171SAPE   H4S19351   5.496   0.755   6.907  1.5819 -2.1121 -0.7040
  171SAPE   C2519352   5.538   0.929   7.044 -0.2654 -0.6442 -0.0222
  171SAPE   H5R19353   5.551   1.037   7.035 -0.0936 -0.4084  2.3753
  171SAPE   C2619354   5.480   0.880   7.152  0.2919 -0.1635 -0.0382
  171SAPE   H6R19355   5.470   0.948   7.238 -0.2606 -1.5879  1.0585
  171SAPE   C2719356   5.440   0.738   7.178  0.0600 -0.0115 -0.2060
  171SAPE   H7R19357   5.410   0.684   7.086 -1.2480  0.8797 -0.3347
  171SAPE   H7S19358   5.347   0.734   7.239 -0.8706  1.7624 -1.4125
  171SAPE   C2819359   5.548   0.662   7.248 -0.0497  0.0391 -0.3624
  171SAPE   H8R19360   5.634   0.639   7.183  1.3532  0.6152  1.1988
  171SAPE   C2919361   5.558   0.631   7.378  0.4470 -0.7309 -0.0979
  171SAPE   H9R19362   5.651   0.581   7.409  0.5967 -1.3305 -1.4502
  171SAPE  C21019363   5.464   0.657   7.488  0.0011 -0.0077  0.1822
  171SAPE  H10R19364   5.404   0.750   7.476 -1.2841 -0.3885  2.8359
  171SAPE  H10S19365   5.527   0.686   7.574  1.0266  1.7807 -1.1019
  171SAPE  C21119366   5.380   0.547   7.523 -0.9817 -0.3481  0.1935
  171SAPE  H11R19367   5.297   0.540   7.452  0.0915 -1.4218 -1.0047
  171SAPE  C21219368   5.371   0.486   7.642  0.0239 -0.2019  0.9784
  171SAPE  H12R19369   5.294   0.407   7.653  0.1982 -0.9586 -2.2329
  171SAPE  C21319370   5.461   0.515   7.757 -0.0796 -0.2321 -0.0589
  171SAPE  H13R19371   5.470   0.626   7.763  0.4081 -0.3455  2.3386
  171SAPE  H13S19372   5.562   0.480   7.729 -0.7862 -2.3673 -0.0883
  171SAPE  C21419373   5.435   0.463   7.897  0.4882  0.4590 -0.0837
  171SAPE  H14R19374   5.348   0.397   7.906 -0.4786  1.8824  1.5624
  171SAPE  C21519375   5.506   0.478   8.007 -0.8769  0.1840  0.1534
  171SAPE  H15R19376   5.472   0.435   8.102  1.9949 -0.4211  1.0206
  171SAPE  C21619377   5.633   0.561   8.018  0.6156 -0.0824  0.1327
  171SAPE  H16R19378   5.621   0.663   8.060 -2.0192  0.0013 -0.6566
  171SAPE  H16S19379   5.674   0.585   7.918 -0.4507  0.7499 -0.1212
  171SAPE  C21719380   5.748   0.502   8.088  0.6099 -0.3531 -0.0773
  171SAPE  H17R19381   5.834   0.572   8.086  0.3968 -0.0317  1.0124
  171SAPE  H17S19382   5.771   0.404   8.042 -0.3216 -0.1080 -1.1210
  171SAPE  C21819383   5.741   0.494   8.243  0.1411  0.0009 -0.3250
  171SAPE  H18R19384   5.684   0.577   8.293  1.6488 -0.0361  1.5724
  171SAPE  H18S19385   5.843   0.506   8.284  0.2137 -2.9586  0.5498
  171SAPE  C21919386   5.680   0.370   8.300 -0.0492 -0.3684 -0.6232
  171SAPE  H19R19387   5.761   0.295   8.288  1.4417  0.8318  1.3084
  171SAPE  H19S19388   5.590   0.340   8.241 -1.4240  1.1354  0.6363
  171SAPE  C22019389   5.642   0.382   8.444 -0.5838  0.4714 -0.6980
  171SAPE  H20R19390   5.539   0.422   8.448 -1.6435 -2.0934 -0.9685
  171SAPE  H20S19391   5.712   0.440   8.509  0.1893 -2.0844  0.8820
  171SAPE  H20T19392   5.632   0.285   8.497 -1.6236  1.5554  1.1961
  171SAPE   C3319393   5.739   0.501   6.811  0.1460  0.5877 -0.5901
  171SAPE   H3X19394   5.749   0.580   6.888  2.0803 -0.8124  0.7084
  171SAPE   H3Y19395   5.773   0.540   6.712  0.4141 -1.0906 -1.2042
  171SAPE   C3419396   5.848   0.406   6.865 -0.3375  0.2791 -0.3556
  171SAPE   H4X19397   5.945   0.456   6.844 -0.9694  0.5722 -2.8643
  171SAPE   H4Y19398   5.848   0.316   6.799 -0.6022 -0.7354  0.9851
  171SAPE   C3519399   5.844   0.358   7.006 -0.7729 -0.5353 -0.9364
  171SAPE   H5X19400   5.758   0.295   7.039  0.4310 -1.9920 -0.4891
  171SAPE   H5Y19401   5.832   0.452   7.065 -1.6331 -0.5864 -1.0054
  171SAPE   C3619402   5.975   0.285   7.041  0.1150  0.4429 -0.1533
  171SAPE   H6X19403   6.070   0.329   7.005  1.6998 -0.7690  2.2485
  171SAPE   H6Y19404   5.965   0.189   6.986  4.4459  0.3563 -1.1237
  171SAPE   C3719405   5.999   0.252   7.192  0.5513 -0.3158 -0.0886
  171SAPE   H7X19406   6.076   0.172   7.187 -0.2183 -1.1796  1.1610
  171SAPE   H7Y19407   5.909   0.218   7.247 -0.7132  2.8354  0.0167
  171SAPE   C3819408   6.051   0.373   7.257  0.2624  0.3143 -0.3066
  171SAPE   H8X19409   5.983   0.457   7.231 -3.3493 -1.8592  1.3032
  171SAPE   H8Y19410   6.147   0.399   7.206  2.2151 -0.5959  2.6052
  171SAPE   C3919411   6.066   0.354   7.406 -0.3127 -0.0316 -0.3331
  171SAPE   H9X19412   6.141   0.430   7.438 -0.3394 -0.2034  0.1417
  171SAPE   H9Y19413   6.098   0.251   7.430 -0.0956  0.1335  0.0852
  171SAPE  C31019414   5.923   0.367   7.476  0.2492 -0.6116  0.2052
  171SAPE  H10X19415   5.858   0.302   7.414 -0.0002  0.7907 -1.0630
  171SAPE  H10Y19416   5.891   0.471   7.454 -1.3347 -0.8776  1.1188
  171SAPE  C31119417   5.920   0.323   7.624  0.0080  0.0440 -0.4040
  171SAPE  H11X19418   5.847   0.383   7.682  2.1807  0.6035  1.9047
  171SAPE  H11Y19419   6.016   0.353   7.671  0.8774 -0.6687 -1.6553
  171SAPE  C31219420   5.891   0.177   7.645 -0.2864 -0.0254  0.2407
  171SAPE  H12X19421   5.965   0.116   7.589 -1.8514 -1.5682 -0.2099
  171SAPE  H12Y19422   5.796   0.137   7.604 -1.5047  0.5576  2.3417
  171SAPE  C31319423   5.899   0.139   7.791  0.3834  0.1218  0.0483
  171SAPE  H13X19424   5.992   0.179   7.837  0.8677  0.4218 -1.1730
  171SAPE  H13Y19425   5.907   0.030   7.807  2.1847  0.5506  2.9440
  171SAPE  C31419426   5.783   0.189   7.878  0.1534 -0.2004 -0.5586
  171SAPE  H14X19427   5.702   0.160   7.808  0.7487 -0.1887 -1.2698
  171SAPE  H14Y19428   5.784   0.300   7.887  0.5520 -0.1867 -0.7546
  171SAPE  C31519429   5.762   0.115   8.011  0.8819  0.1582 -0.3102
  171SAPE  H15X19430   5.732   0.012   7.981  0.3154  0.2581 -0.1170
  171SAPE  H15Y19431   5.684   0.166   8.073  1.8591  0.3002  0.8400
  171SAPE  C31619432   5.887   0.120   8.100  0.1182 -0.8529  0.0590
  171SAPE  H16X19433   5.898   0.229   8.119 -1.3651 -0.5833 -0.5058
  171SAPE  H16Y19434   5.976   0.099   8.036  1.2089 -2.0133  1.8619
  171SAPE  C31719435   5.877   0.020   8.215 -0.0452 -0.5561 -0.2465
  171SAPE  H17X19436   5.825  -0.068   8.173 -0.6586  0.1475 -1.0007
  171SAPE  H17Y19437   5.814   0.060   8.298 -1.5671 -1.7681 -0.7754
  171SAPE  C31819438   6.016  -0.011   8.278  0.6409  0.1139  0.4420
  171SAPE  H18X19439   6.045   0.070   8.348 -0.5018  0.3378  0.6874
  171SAPE  H18Y19440   6.101  -0.018   8.207 -0.1273  0.2829 -0.5118
  171SAPE  H18Z19441   6.019  -0.115   8.319  1.3794  0.4051  1.1512
  172SAPE     N19442   4.552   6.660   6.127  0.6027 -0.5506  0.9052
  172SAPE   HN119443   4.594   6.566   6.113  0.6061 -0.3555 -0.5599
  172SAPE   HN219444   4.455   6.643   6.159  0.0791 -1.9797 -1.2123
  172SAPE   HN319445   4.537   6.701   6.033 -0.0670 -2.2028  0.2480
  172SAPE   C1219446   4.630   6.743   6.223 -0.2024  0.3350 -0.2252
  172SAPE  H12A19447   4.685   6.674   6.291 -0.4351 -0.1311 -0.5103
  172SAPE  H12B19448   4.556   6.796   6.287  0.6603  0.9651  0.2826
  172SAPE   C1119449   4.729   6.844   6.169 -0.1709  0.3348  0.0844
  172SAPE  H11A19450   4.758   6.926   6.237  1.2015  0.1970 -0.3030
  172SAPE  H11B19451   4.684   6.898   6.083  0.6101  1.3411  0.2878
  172SAPE     P19452   4.990   6.800   6.166  0.1585  0.4443 -0.1039
  172SAPE   O1319453   5.073   6.687   6.131  0.0049  0.2766 -0.3305
  172SAPE   O1419454   5.017   6.937   6.112  0.0821 -0.2660 -0.3232
  172SAPE   O1219455   4.842   6.766   6.129  0.1001 -0.1362  0.1144
  172SAPE   O1119456   4.974   6.818   6.320  0.4918 -0.6895 -0.7330
  172SAPE    C119457   4.967   6.702   6.408  0.2810 -1.0425  0.1975
  172SAPE    HA19458   4.939   6.607   6.359  0.5772 -1.3182  0.5519
  172SAPE    HB19459   5.065   6.668   6.447 -0.3682 -3.8351 -0.4281
  172SAPE    C219460   4.879   6.731   6.528  0.0794 -0.0260 -1.1164
  172SAPE    HS19461   4.775   6.745   6.493 -1.1356  0.7582  2.4123
  172SAPE   O2119462   4.931   6.838   6.611  0.2030  0.3331  0.3908
  172SAPE   C2119463   4.863   6.947   6.608  0.9423 -0.1739  0.1834
  172SAPE   O2219464   4.760   6.976   6.546  0.3592 -0.8162  0.4995
  172SAPE   C2219465   4.912   7.021   6.724  0.3464  0.0272 -0.0318
  172SAPE   H2R19466   5.020   7.003   6.743 -0.1771 -0.9052  2.5241
  172SAPE   H2S19467   4.886   7.127   6.705  0.7681  0.4913  1.7688
  172SAPE    C319468   4.877   6.607   6.617 -0.1743  0.1837  0.4257
  172SAPE    HX19469   4.981   6.587   6.650 -0.7774 -1.9062  1.2158
  172SAPE    HY19470   4.847   6.509   6.574  0.8749 -0.9042  2.0624
  172SAPE   O3119471   4.809   6.631   6.741  0.2571 -0.1801  0.0509
  172SAPE   C3119472   4.675   6.617   6.742  0.7002 -0.0167  0.2837
  172SAPE   O3219473   4.602   6.620   6.640  0.5296  0.0372 -0.6914
  172SAPE   C3219474   4.625   6.636   6.889  0.2942 -0.3101  0.0543
  172SAPE   H2X19475   4.544   6.559   6.894 -0.3682  0.2789 -1.2574
  172SAPE   H2Y19476   4.581   6.738   6.897  0.0216 -0.2808 -1.5589
  172SAPE   C2319477   4.822   6.981   6.847  0.7142  0.2752  0.0650
  172SAPE   H3R19478   4.810   6.872   6.858 -0.5033  0.5323  1.7418
  172SAPE   H3S19479   4.726   7.031   6.821  0.8728  1.7295  2.0222
  172SAPE   C2419480   4.865   7.039   6.977 -0.6236 -0.4296 -0.9960
  172SAPE   H4R19481   4.884   7.148   6.979  1.1815 -0.7026  1.0995
  172SAPE   H4S19482   4.970   7.011   6.997 -0.6279 -0.0792 -0.4524
  172SAPE   C2519483   4.776   7.016   7.090  0.7130  0.6187 -0.0048
  172SAPE   H5R19484   4.671   7.043   7.070  0.6496  1.2428  1.0746
  172SAPE   C2619485   4.811   6.984   7.219  0.9226 -0.2775 -0.7663
  172SAPE   H6R19486   4.723   6.963   7.281 -0.2178 -0.1896 -2.2887
  172SAPE   C2719487   4.954   6.964   7.263 -0.2636 -0.6618  0.1496
  172SAPE   H7R19488   5.013   6.930   7.175 -1.7322 -0.7745 -0.8158
  172SAPE   H7S19489   4.961   6.876   7.331  0.9435  0.9719  2.2539
  172SAPE   C2819490   5.010   7.089   7.332  0.2691  0.2824  0.3448
  172SAPE   H8R19491   4.954   7.183   7.315 -0.5930 -0.3133 -0.2172
  172SAPE   C2919492   5.111   7.093   7.421 -0.5896  0.7162 -0.0696
  172SAPE   H9R19493   5.146   7.191   7.457  0.2129 -0.2836  2.0044
  172SAPE  C21019494   5.182   6.973   7.475 -0.2440  0.5038 -0.2521
  172SAPE  H10R19495   5.292   6.987   7.475 -0.0590 -0.7736  0.5071
  172SAPE  H10S19496   5.166   6.888   7.405  1.0531 -0.9397  1.1133
  172SAPE  C21119497   5.126   6.921   7.603  0.3480  0.3013 -0.3939
  172SAPE  H11R19498   5.021   6.888   7.604  0.0817  1.1377  0.2288
  172SAPE  C21219499   5.191   6.897   7.720  0.5865  0.0474  0.1561
  172SAPE  H12R19500   5.138   6.850   7.805  1.9821 -0.5539  0.7176
  172SAPE  C21319501   5.326   6.946   7.751 -1.0105 -0.4445  0.4192
  172SAPE  H13R19502   5.340   7.057   7.749  0.1042 -0.5279  2.0042
  172SAPE  H13S19503   5.403   6.919   7.676 -0.9667 -0.0183  0.3089
  172SAPE  C21419504   5.383   6.913   7.887  0.0267  0.6170  0.9531
  172SAPE  H14R19505   5.396   7.001   7.951  1.9672  1.1462 -0.1292
  172SAPE  C21519506   5.423   6.790   7.937 -0.1325  0.1005 -0.2731
  172SAPE  H15R19507   5.461   6.789   8.041  0.6628  1.2033 -0.5371
  172SAPE  C21619508   5.424   6.648   7.881  0.2622  0.0359 -0.3584
  172SAPE  H16R19509   5.526   6.604   7.886 -0.0874 -0.6223  1.8126
  172SAPE  H16S19510   5.396   6.646   7.773 -0.2066 -1.0445 -0.2321
  172SAPE  C21719511   5.329   6.545   7.957  0.5498  0.2510 -0.0210
  172SAPE  H17R19512   5.346   6.441   7.922 -1.9747 -0.5264  0.8235
  172SAPE  H17S19513   5.226   6.566   7.922  0.9102 -0.7383 -1.7996
  172SAPE  C21819514   5.347   6.543   8.110  0.0503 -0.1800  0.5776
  172SAPE  H18R19515   5.330   6.643   8.155  1.7303  0.4664 -0.1301
  172SAPE  H18S19516   5.452   6.515   8.133 -0.2695 -2.6845 -0.6258
  172SAPE  C21919517   5.244   6.449   8.183 -0.0684 -0.5144  0.5697
  172SAPE  H19R19518   5.244   6.347   8.139  1.0906 -0.6307  0.8051
  172SAPE  H19S19519   5.150   6.502   8.157  1.5815  1.5880 -1.6548
  172SAPE  C22019520   5.254   6.435   8.334  0.0807  0.1780 -0.2542
  172SAPE  H20R19521   5.265   6.530   8.390 -0.1471  0.4233 -0.6191
  172SAPE  H20S19522   5.345   6.376   8.357 -0.3989 -0.3920  0.2137
  172SAPE  H20T19523   5.167   6.377   8.372  0.9780 -2.3487 -1.7723
  172SAPE   C3319524   4.732   6.594   6.996  0.0622  0.4835 -0.4401
  172SAPE   H3X19525   4.826   6.653   6.991  0.5887 -0.3752 -4.5839
  172SAPE   H3Y19526   4.766   6.489   6.980 -4.5320 -1.6686  1.9176
  172SAPE   C3419527   4.674   6.601   7.138 -0.1652  0.3894  0.5616
  172SAPE   H4X19528   4.589   6.530   7.140 -1.2391  1.5061 -1.5081
  172SAPE   H4Y19529   4.628   6.700   7.157 -1.9335 -0.4194  0.6223
  172SAPE   C3519530   4.777   6.557   7.244  0.0342 -0.4242 -0.2443
  172SAPE   H5X19531   4.864   6.626   7.236  0.4417 -0.6588  1.7031
  172SAPE   H5Y19532   4.815   6.461   7.204  4.0342  0.8656  0.0600
  172SAPE   C3619533   4.722   6.547   7.391 -0.2052  0.2065  0.4833
  172SAPE   H6X19534   4.649   6.464   7.394  0.1969 -0.1586  0.3478
  172SAPE   H6Y19535   4.661   6.636   7.420 -3.5471 -2.4846  2.4275
  172SAPE   C3719536   4.824   6.521   7.502  0.0440  0.0277 -0.3472
  172SAPE   H7X19537   4.904   6.599   7.498  1.1529 -1.0561 -0.0035
  172SAPE   H7Y19538   4.882   6.430   7.476  0.9610  0.6244 -0.4424
  172SAPE   C3819539   4.764   6.505   7.637 -0.4477  0.0890 -0.3814
  172SAPE   H8X19540   4.681   6.430   7.641 -0.6735  0.3912  1.8124
  172SAPE   H8Y19541   4.720   6.602   7.667  1.5336  1.5179 -1.8144
  172SAPE   C3919542   4.874   6.477   7.747  0.6636  0.0638 -0.1286
  172SAPE   H9X19543   4.959   6.549   7.744  1.2952 -0.6957 -1.6188
  172SAPE   H9Y19544   4.916   6.374   7.738  1.0776  0.1675  0.6054
  172SAPE  C31019545   4.808   6.496   7.883  0.9957 -0.1146  0.0530
  172SAPE  H10X19546   4.766   6.394   7.899  0.3103  0.0637 -0.5730
  172SAPE  H10Y19547   4.723   6.567   7.882  3.4043  2.9972 -0.7055
  172SAPE  C31119548   4.904   6.557   7.988 -0.7887 -0.0894  0.1920
  172SAPE  H11X19549   5.002   6.506   7.976  0.1070  1.5885  0.0734
  172SAPE  H11Y19550   4.856   6.536   8.086 -1.8544 -0.6788 -0.4398
  172SAPE  C31219551   4.931   6.710   7.975 -0.4187 -0.1901 -0.5937
  172SAPE  H12X19552   4.830   6.754   7.992 -1.1518 -2.5443  1.6967
  172SAPE  H12Y19553   4.968   6.732   7.872 -1.5093 -1.8560 -1.3849
  172SAPE  C31319554   5.022   6.764   8.085  0.4193 -0.2847 -0.2654
  172SAPE  H13X19555   5.126   6.740   8.056  1.0717  1.4812  0.4940
  172SAPE  H13Y19556   4.993   6.714   8.180  0.1919 -0.8846 -0.6408
  172SAPE  C31419557   5.029   6.917   8.086 -0.2572  0.3850  0.1883
  172SAPE  H14X19558   4.929   6.959   8.113 -0.1125  0.0379  1.2952
  172SAPE  H14Y19559   5.051   6.958   7.985 -1.0765  0.5259  0.0571
  172SAPE  C31519560   5.134   6.964   8.197  0.3312  0.6720  0.7020
  172SAPE  H15X19561   5.236   6.940   8.161  0.6462  2.0387  0.6232
  172SAPE  H15Y19562   5.115   6.909   8.292 -1.0558  2.3035  1.4414
  172SAPE  C31619563   5.124   7.116   8.213 -0.5669 -0.6031  0.1180
  172SAPE  H16X19564   5.026   7.154   8.248  0.9059  2.6928  1.0677
  172SAPE  H16Y19565   5.144   7.153   8.110  2.3598 -1.1457  0.4260
  172SAPE  C31719566   5.225   7.180   8.303  0.9398  0.6425 -0.1313
  172SAPE  H17X19567   5.208   7.289   8.303 -2.6519  0.2160 -0.9432
  172SAPE  H17Y19568   5.327   7.160   8.264  1.0745  0.1945  0.4342
  172SAPE  C31819569   5.220   7.119   8.440  0.8190  0.2066  0.0124
  172SAPE  H18X19570   5.269   7.020   8.425  2.1701  0.5971  1.5575
  172SAPE  H18Y19571   5.114   7.099   8.465  0.9871 -0.9802 -0.1482
  172SAPE  H18Z19572   5.272   7.185   8.512  1.4734 -0.5947  0.2891
  173SOPE     N19573   6.653   4.325  10.729  0.5196  0.0381 -0.7406
  173SOPE   HN119574   6.694   4.366  10.642 -0.7874  0.9852 -0.9454
  173SOPE   HN219575   6.663   4.222  10.736  1.7330  0.0754 -1.5911
  173SOPE   HN319576   6.551   4.342  10.733  0.6736  0.7828  1.0016
  173SOPE   C1219577   6.700   4.398  10.854 -0.0551  0.1842 -0.5238
  173SOPE  H12A19578   6.811   4.396  10.864 -0.1343  1.6666  1.1983
  173SOPE  H12B19579   6.663   4.341  10.942  1.4979 -0.2098 -0.0859
  173SOPE   C1119580   6.646   4.546  10.855  0.8606  0.6050 -0.1471
  173SOPE  H11A19581   6.706   4.578  10.767  0.2663 -2.4223 -1.7884
  173SOPE  H11B19582   6.677   4.597  10.949 -0.4242  0.2942  0.4587
  173SOPE     P19583   6.456   4.714  10.815  0.2841 -0.3400 -0.6030
  173SOPE   O1319584   6.513   4.799  10.921  0.0711 -0.1977  0.2026
  173SOPE   O1419585   6.309   4.715  10.804  0.2939  0.2071 -0.0610
  173SOPE   O1219586   6.506   4.559  10.836 -0.2916 -0.3928 -0.1086
  173SOPE   O1119587   6.520   4.750  10.681 -0.0513  0.4281  0.0760
  173SOPE    C119588   6.484   4.691  10.555  0.4789 -0.2187 -0.3074
  173SOPE    HA19589   6.378   4.658  10.566  0.6641 -0.2244  1.7861
  173SOPE    HB19590   6.542   4.599  10.536 -0.7731 -1.0393 -0.3101
  173SOPE    C219591   6.488   4.800  10.436 -0.2363  0.1543  0.5016
  173SOPE    HS19592   6.419   4.768  10.355 -2.1808 -0.8433  2.4623
  173SOPE   O2119593   6.615   4.818  10.374  0.9223  0.1459  0.1380
  173SOPE   C2119594   6.657   4.713  10.322 -1.1883  0.8901  0.4782
  173SOPE   O2219595   6.592   4.607  10.306  0.5090 -0.4602 -0.0312
  173SOPE   C2219596   6.807   4.746  10.288 -0.6800  0.6500  1.1091
  173SOPE   H2R19597   6.871   4.754  10.378 -0.6519  0.0900  1.1398
  173SOPE   H2S19598   6.818   4.847  10.242 -1.1947  0.3301  0.2484
  173SOPE    C319599   6.440   4.933  10.492 -0.1068 -0.9971 -0.4219
  173SOPE    HX19600   6.504   4.973  10.574  1.9910 -2.7522 -1.1379
  173SOPE    HY19601   6.337   4.920  10.533 -0.2164  0.0784 -0.3301
  173SOPE   O3119602   6.421   5.030  10.382  0.0067  0.0679 -0.3419
  173SOPE   C3119603   6.530   5.098  10.360 -0.2163 -0.1768 -0.2251
  173SOPE   O3219604   6.638   5.074  10.397 -0.2765  0.5444 -0.7337
  173SOPE   C3219605   6.490   5.224  10.270  0.2153 -0.1779 -0.2047
  173SOPE   H2X19606   6.510   5.318  10.325  1.2032  1.7326 -3.5377
  173SOPE   H2Y19607   6.381   5.229  10.248  0.2310  0.7841 -0.0953
  173SOPE   C2319608   6.869   4.646  10.184  0.2490 -0.6723  0.3127
  173SOPE   H3R19609   6.823   4.664  10.084  0.6420 -1.2545  0.0210
  173SOPE   H3S19610   6.856   4.539  10.210  1.8900 -1.2316 -1.0084
  173SOPE   C2419611   7.024   4.672  10.177  0.2057  0.0581 -0.8626
  173SOPE   H4R19612   7.056   4.774  10.146  0.9656 -0.0152 -0.3513
  173SOPE   H4S19613   7.056   4.667  10.283 -0.1097  1.3362 -0.6952
  173SOPE   C2519614   7.100   4.569  10.096 -0.0402  0.5505 -0.0553
  173SOPE   H5R19615   7.209   4.587  10.106 -0.1946  0.3747  2.6372
  173SOPE   H5S19616   7.090   4.463  10.128 -1.6985  0.6648 -0.0848
  173SOPE   C2619617   7.071   4.570   9.946 -0.1029 -0.2132 -0.3003
  173SOPE   H6R19618   6.982   4.508   9.923  0.2428 -0.7654 -0.1463
  173SOPE   H6S19619   7.069   4.675   9.910 -0.5032 -0.7114 -1.7897
  173SOPE   C2719620   7.196   4.509   9.870 -0.3862 -0.2413  0.8303
  173SOPE   H7R19621   7.291   4.552   9.910 -1.7352 -0.0367  4.1251
  173SOPE   H7S19622   7.203   4.401   9.894 -0.6928 -1.3166 -3.2482
  173SOPE   C2819623   7.172   4.530   9.724 -0.6289  0.0272 -0.2060
  173SOPE   H8R19624   7.068   4.503   9.697 -0.7052  0.2609 -0.1483
  173SOPE   H8S19625   7.183   4.639   9.705  1.9673 -0.2334 -0.5974
  173SOPE   C2919626   7.270   4.455   9.644 -0.1720 -0.2145  0.0881
  173SOPE   H9119627   7.348   4.406   9.702  0.5551 -1.2637 -1.6910
  173SOPE  C21019628   7.261   4.456   9.509  0.4875  0.3355 -0.2101
  173SOPE  H10119629   7.329   4.392   9.450 -0.2383 -0.5532 -0.1134
  173SOPE  C21119630   7.157   4.523   9.420  0.1978 -0.2090 -0.1538
  173SOPE  H11R19631   7.134   4.625   9.456 -2.2553 -1.7719  3.2176
  173SOPE  H11S19632   7.061   4.467   9.408  0.0752 -0.2688  1.0016
  173SOPE  C21219633   7.214   4.523   9.276  0.2108 -0.6952 -0.4587
  173SOPE  H12R19634   7.233   4.418   9.245 -1.1209 -1.3945  0.8958
  173SOPE  H12S19635   7.309   4.580   9.280 -0.7211  0.9095 -0.2914
  173SOPE  C21319636   7.122   4.583   9.166  0.2781  0.0111 -0.3909
  173SOPE  H13R19637   7.109   4.688   9.200 -1.3352  0.4955 -2.2898
  173SOPE  H13S19638   7.021   4.538   9.163 -1.0821  2.7134  1.0367
  173SOPE  C21419639   7.192   4.569   9.028 -0.4599 -0.0526 -0.0449
  173SOPE  H14R19640   7.184   4.463   8.996  1.1999 -0.6165  1.3004
  173SOPE  H14S19641   7.300   4.581   9.051 -0.4698 -1.1443  0.6449
  173SOPE  C21519642   7.158   4.666   8.917  0.2159 -0.2160  0.3967
  173SOPE  H15R19643   7.178   4.770   8.950 -1.5104  0.1364  0.4039
  173SOPE  H15S19644   7.048   4.660   8.902  0.3450 -0.1113 -0.6891
  173SOPE  C21619645   7.229   4.634   8.782  0.7642  0.9240 -0.7212
  173SOPE  H16R19646   7.195   4.534   8.746 -0.3254  0.8044  0.5530
  173SOPE  H16S19647   7.334   4.620   8.816 -0.2057 -0.8956  1.9286
  173SOPE  C21719648   7.214   4.736   8.674  0.4873 -0.4960 -0.2752
  173SOPE  H17R19649   7.250   4.704   8.574  1.3314  1.6745 -0.7250
  173SOPE  H17S19650   7.274   4.827   8.698 -1.3377  0.7124 -0.1089
  173SOPE  C21819651   7.067   4.789   8.648 -0.0234  0.3289  0.2256
  173SOPE  H18R19652   7.000   4.701   8.647  0.5727 -0.1282 -0.2082
  173SOPE  H18S19653   7.065   4.854   8.557 -0.8439  0.4165  0.2992
  173SOPE  H18T19654   7.024   4.851   8.730 -1.7914 -0.4126 -0.1040
  173SOPE   C3319655   6.579   5.206  10.142  0.3302  0.6086  0.3884
  173SOPE   H3X19656   6.687   5.194  10.164  0.0458 -1.3003  0.9371
  173SOPE   H3Y19657   6.565   5.294  10.076 -2.0601 -0.3492 -0.4807
  173SOPE   C3419658   6.549   5.084  10.057 -0.0120  0.0165 -0.3151
  173SOPE   H4X19659   6.444   5.098  10.023 -1.6541 -2.1812  3.2149
  173SOPE   H4Y19660   6.538   4.991  10.117 -1.6705  0.2753 -0.1512
  173SOPE   C3519661   6.635   5.064   9.932 -0.1949 -0.0797 -0.1753
  173SOPE   H5X19662   6.660   5.168   9.901  0.1138  0.4916  1.8247
  173SOPE   H5Y19663   6.571   5.028   9.849  1.4383  0.6024 -1.7889
  173SOPE   C3619664   6.748   4.960   9.957 -0.0818 -0.8600 -0.5700
  173SOPE   H6X19665   6.708   4.869  10.006 -0.2666 -0.4928 -0.0264
  173SOPE   H6Y19666   6.823   4.999  10.029  0.3886 -2.1676 -0.3301
  173SOPE   C3719667   6.816   4.914   9.821  0.6894 -0.2668  0.8921
  173SOPE   H7X19668   6.905   4.857   9.857  2.2902 -0.7883 -3.3583
  173SOPE   H7Y19669   6.872   4.992   9.765  2.0699 -0.5475  1.8380
  173SOPE   C3819670   6.735   4.810   9.741  0.4154 -0.2796 -0.0153
  173SOPE   H8X19671   6.643   4.860   9.706  1.8873  1.4356 -1.6245
  173SOPE   H8Y19672   6.710   4.721   9.804  0.4683  0.3550  0.9270
  173SOPE   C3919673   6.815   4.757   9.620  0.1582 -0.4388 -0.5267
  173SOPE   H9X19674   6.781   4.651   9.609 -3.1814  0.3310  0.9519
  173SOPE   H9Y19675   6.921   4.754   9.653  0.1170  0.6610 -0.2531
  173SOPE  C31019676   6.796   4.828   9.493 -0.2185 -0.8135  0.4021
  173SOPE  H10X19677   6.791   4.938   9.507 -0.9181 -0.0964 -3.9963
  173SOPE  H10Y19678   6.691   4.826   9.456 -0.0581  1.0410 -0.2892
  173SOPE  C31119679   6.913   4.798   9.391 -0.2220  0.3535  0.1059
  173SOPE  H11X19680   6.892   4.699   9.344 -0.1494 -0.1552  1.1324
  173SOPE  H11Y19681   7.004   4.784   9.453  0.9651  1.8551 -1.2051
  173SOPE  C31219682   6.917   4.909   9.286 -0.0048 -0.4694  0.1427
  173SOPE  H12X19683   7.004   4.885   9.221  0.1531 -2.7876  1.1293
  173SOPE  H12Y19684   6.938   5.007   9.334 -0.2184 -0.1190 -0.4647
  173SOPE  C31319685   6.796   4.911   9.194 -0.5213 -0.3805  0.0975
  173SOPE  H13X19686   6.804   4.998   9.126 -0.3722 -1.2046 -0.9673
  173SOPE  H13Y19687   6.702   4.927   9.252  1.4034  0.7392  3.1037
  173SOPE  C31419688   6.801   4.778   9.106 -0.2012 -1.4664 -0.4480
  173SOPE  H14X19689   6.798   4.679   9.158 -0.0109 -0.6274  1.2252
  173SOPE  H14Y19690   6.896   4.784   9.048 -0.7945  0.7642 -1.2766
  173SOPE  C31519691   6.683   4.777   8.994 -0.0536  0.1721  0.0843
  173SOPE  H15X19692   6.589   4.755   9.048  0.9602  0.6713  2.1880
  173SOPE  H15Y19693   6.711   4.694   8.926 -1.4221 -2.3448  2.3754
  173SOPE  C31619694   6.660   4.912   8.923 -0.2924  0.0812  0.1541
  173SOPE  H16X19695   6.753   4.952   8.879 -1.6590  3.2805 -0.0913
  173SOPE  H16Y19696   6.614   4.989   8.988 -0.8029 -0.5072  0.5050
  173SOPE  C31719697   6.575   4.885   8.787  0.6444  0.5440  0.2489
  173SOPE  H17X19698   6.493   4.811   8.801 -0.2172  1.6082  1.0329
  173SOPE  H17Y19699   6.644   4.842   8.712 -2.4480 -2.9496 -0.9076
  173SOPE  C31819700   6.513   5.020   8.736  0.1597  0.2586  0.3692
  173SOPE  H18X19701   6.442   5.059   8.812  1.5952 -0.3464  2.0706
  173SOPE  H18Y19702   6.462   5.015   8.637 -0.6314  0.0343  0.7794
  173SOPE  H18Z19703   6.594   5.096   8.744  1.0367 -0.3709 -1.7799
  174SOPE     N19704   6.064   4.674  10.703  0.1201  0.2948 -0.0822
  174SOPE   HN119705   6.009   4.761  10.714 -3.2068 -1.2799 -2.4772
  174SOPE   HN219706   6.007   4.606  10.758 -2.2156  0.3665 -2.2688
  174SOPE   HN319707   6.163   4.680  10.736 -0.3063  0.2782  1.2586
  174SOPE   C1219708   6.071   4.629  10.561  0.0739  0.0025 -0.7915
  174SOPE  H12A19709   6.159   4.676  10.512  1.2920 -2.9987 -1.7182
  174SOPE  H12B19710   5.979   4.661  10.507  1.1234 -0.1135 -2.7423
  174SOPE   C1119711   6.082   4.477  10.548  0.2937 -0.6004  0.4173
  174SOPE  H11A19712   6.113   4.460  10.443 -1.7122 -0.5469 -0.2182
  174SOPE  H11B19713   5.990   4.418  10.567 -2.3338  2.8829 -0.3734
  174SOPE     P19714   6.264   4.298  10.622 -0.2687 -0.0998  0.2167
  174SOPE   O1319715   6.196   4.206  10.720  0.1601  0.2440 -0.7133
  174SOPE   O1419716   6.409   4.313  10.644 -0.0837  0.0153  0.5014
  174SOPE   O1219717   6.192   4.434  10.634  0.5990 -0.0676  0.5820
  174SOPE   O1119718   6.239   4.261  10.470 -0.2160  0.2691  0.5614
  174SOPE    C119719   6.305   4.337  10.370  0.1068  0.3667 -0.7309
  174SOPE    HA19720   6.310   4.445  10.394 -2.1799  0.2354  0.6437
  174SOPE    HB19721   6.238   4.336  10.281  0.8194 -0.6578 -1.2850
  174SOPE    C219722   6.437   4.263  10.321 -0.6237 -0.4522 -0.3183
  174SOPE    HS19723   6.515   4.293  10.393  0.1609  0.2704 -1.4317
  174SOPE   O2119724   6.458   4.321  10.190  0.0797  0.7284 -0.3395
  174SOPE   C2119725   6.580   4.321  10.145  0.4038  0.5168 -0.2233
  174SOPE   O2219726   6.680   4.301  10.215 -0.3737 -0.5207 -0.1027
  174SOPE   C2219727   6.578   4.360  10.003 -0.6151  0.2588  0.0214
  174SOPE   H2R19728   6.597   4.468   9.984 -2.1051  0.4130 -0.7044
  174SOPE   H2S19729   6.479   4.341   9.956  0.2492  0.4219 -1.9597
  174SOPE    C319730   6.430   4.105  10.326 -0.2827 -0.7348 -0.9265
  174SOPE    HX19731   6.426   4.092  10.436 -0.7251  0.4933 -0.7851
  174SOPE    HY19732   6.528   4.068  10.289  0.2736 -2.5196  1.9985
  174SOPE   O3119733   6.325   4.043  10.240 -0.0331 -0.4876  0.2904
  174SOPE   C3119734   6.249   3.957  10.318 -0.1594 -0.2805 -0.0279
  174SOPE   O3219735   6.279   3.920  10.428  0.3573 -0.0791 -0.0016
  174SOPE   C3219736   6.120   3.925  10.246 -0.4574  0.1365  0.2932
  174SOPE   H2X19737   6.056   3.844  10.286 -0.6497  0.9539  1.6954
  174SOPE   H2Y19738   6.162   3.900  10.146  1.9196  1.8567  0.7847
  174SOPE   C2319739   6.699   4.285   9.925 -0.1291  0.4315 -0.8982
  174SOPE   H3R19740   6.677   4.176   9.917 -0.0855  0.3342  0.1779
  174SOPE   H3S19741   6.791   4.299   9.985  0.1365  2.4159 -1.6911
  174SOPE   C2419742   6.736   4.356   9.803  0.8005  0.5927  1.0290
  174SOPE   H4R19743   6.649   4.391   9.743  0.3012  0.8180  1.8742
  174SOPE   H4S19744   6.806   4.440   9.827 -0.4143  0.7362  4.5991
  174SOPE   C2519745   6.815   4.260   9.704  0.2292 -0.8626 -0.9853
  174SOPE   H5R19746   6.908   4.227   9.755 -0.1246  0.9862  1.0350
  174SOPE   H5S19747   6.762   4.162   9.700 -0.5359 -0.4519 -1.1446
  174SOPE   C2619748   6.849   4.324   9.569 -0.6099  0.1323  0.5757
  174SOPE   H6R19749   6.884   4.427   9.590  2.8765 -0.8998  0.4145
  174SOPE   H6S19750   6.936   4.261   9.539 -1.9891 -2.3200  1.4041
  174SOPE   C2719751   6.729   4.318   9.466 -0.3015 -0.4342  0.6026
  174SOPE   H7R19752   6.700   4.212   9.449 -1.4125  0.0299 -0.5771
  174SOPE   H7S19753   6.640   4.365   9.512 -1.6576 -1.1222 -1.2129
  174SOPE   C2819754   6.783   4.385   9.341  0.4706 -0.5721  0.1668
  174SOPE   H8R19755   6.838   4.479   9.363  0.1783 -0.4179  0.2364
  174SOPE   H8S19756   6.849   4.304   9.302 -0.1817 -1.5487  1.0414
  174SOPE   C2919757   6.673   4.431   9.242  0.1388 -0.0317  0.2970
  174SOPE   H9119758   6.623   4.524   9.271  1.9990  0.7830  1.1043
  174SOPE  C21019759   6.643   4.373   9.124 -0.1975  0.2215 -0.7261
  174SOPE  H10119760   6.572   4.406   9.047 -0.0737  1.0262 -0.5132
  174SOPE  C21119761   6.712   4.241   9.079  0.1559 -0.1498  0.4646
  174SOPE  H11R19762   6.691   4.158   9.150  2.0748 -0.5739  0.5731
  174SOPE  H11S19763   6.821   4.254   9.064  0.1306 -1.6731 -1.5552
  174SOPE  C21219764   6.656   4.204   8.935  0.2777 -0.0328 -0.4728
  174SOPE  H12R19765   6.547   4.185   8.944  0.4710 -2.0505 -1.7690
  174SOPE  H12S19766   6.701   4.109   8.901 -1.5286 -0.9920 -0.3067
  174SOPE  C21319767   6.682   4.302   8.822 -0.0244  0.2599  0.4267
  174SOPE  H13R19768   6.792   4.310   8.810  0.1857 -2.7474 -0.4502
  174SOPE  H13S19769   6.647   4.403   8.852 -0.4704  0.0803  0.5223
  174SOPE  C21419770   6.608   4.259   8.696 -0.1049  0.5482 -0.3277
  174SOPE  H14R19771   6.498   4.254   8.716  0.1479 -1.2494  0.8803
  174SOPE  H14S19772   6.633   4.160   8.651 -1.8674 -0.2022  0.2490
  174SOPE  C21519773   6.629   4.365   8.587  0.1359  0.2472  0.3457
  174SOPE  H15R19774   6.544   4.346   8.518  0.1700  1.4300 -0.0428
  174SOPE  H15S19775   6.729   4.344   8.543  0.8702  0.2193  1.9470
  174SOPE  C21619776   6.614   4.511   8.627 -0.3516  0.3237  0.2046
  174SOPE  H16R19777   6.703   4.546   8.684 -0.0604  3.2541 -1.8088
  174SOPE  H16S19778   6.531   4.513   8.701 -0.8609 -1.0289 -0.2993
  174SOPE  C21719779   6.608   4.596   8.496 -0.1780  0.6083 -0.2427
  174SOPE  H17R19780   6.587   4.698   8.536 -2.0654  0.8737 -1.7891
  174SOPE  H17S19781   6.517   4.573   8.437 -0.7919  1.3060  0.4078
  174SOPE  C21819782   6.734   4.608   8.421 -0.2168  0.3101  0.3259
  174SOPE  H18R19783   6.722   4.694   8.352 -1.7664  0.9322  1.3131
  174SOPE  H18S19784   6.740   4.514   8.362  0.6934 -0.4725  1.6221
  174SOPE  H18T19785   6.829   4.615   8.478  1.3579 -2.6417 -1.6215
  174SOPE   C3319786   6.039   4.059  10.240 -0.1859 -0.3694 -0.8243
  174SOPE   H3X19787   6.104   4.129  10.185  0.0354 -0.3063 -0.4837
  174SOPE   H3Y19788   6.010   4.106  10.337 -2.0972 -1.6554 -0.7115
  174SOPE   C3419789   5.906   4.044  10.168  0.1444  0.4153 -0.9874
  174SOPE   H4X19790   5.842   4.132  10.190  0.4298  0.3149  0.3581
  174SOPE   H4Y19791   5.853   3.958  10.215  0.1964  1.5182  1.2293
  174SOPE   C3519792   5.922   4.034  10.016  0.0254 -0.9063  0.3797
  174SOPE   H5X19793   5.829   3.989   9.975 -0.0691 -2.5903  2.2949
  174SOPE   H5Y19794   6.011   3.975   9.985  0.9908  0.5721  0.2319
  174SOPE   C3619795   5.938   4.170   9.953 -0.4777  0.7001  0.2192
  174SOPE   H6X19796   6.025   4.225   9.995 -0.1291 -0.4596  1.0684
  174SOPE   H6Y19797   5.844   4.229   9.945 -0.5173  0.5000 -0.8193
  174SOPE   C3719798   5.978   4.152   9.805 -0.7029  0.7741  0.2214
  174SOPE   H7X19799   6.064   4.083   9.790 -0.1757  1.6917 -1.2943
  174SOPE   H7Y19800   6.006   4.248   9.756  0.6920  0.0708 -0.4467
  174SOPE   C3819801   5.867   4.079   9.718 -0.0578 -0.2416  0.1264
  174SOPE   H8X19802   5.775   4.126   9.757  0.9751  0.7534  1.4769
  174SOPE   H8Y19803   5.875   3.970   9.739 -1.8455 -0.5633 -0.7163
  174SOPE   C3919804   5.869   4.099   9.568 -0.3727 -0.2814  0.8238
  174SOPE   H9X19805   5.831   4.202   9.553 -4.0766 -1.7772 -1.5027
  174SOPE   H9Y19806   5.799   4.026   9.522  1.7521 -0.0252 -3.2137
  174SOPE  C31019807   6.012   4.081   9.503  0.2104  0.6401  0.7191
  174SOPE  H10X19808   6.052   3.980   9.526 -0.7128 -0.7124 -2.9131
  174SOPE  H10Y19809   6.083   4.153   9.549  0.7529 -0.0136  0.9086
  174SOPE  C31119810   6.011   4.102   9.348  0.1401 -0.2587  0.3427
  174SOPE  H11X19811   5.954   4.190   9.311 -1.3462 -1.1592  0.4029
  174SOPE  H11Y19812   5.965   4.011   9.304  0.3074 -0.1230 -0.1121
  174SOPE  C31219813   6.153   4.113   9.289 -0.0347 -0.0446  0.3205
  174SOPE  H12X19814   6.230   4.044   9.327 -0.5551 -0.6573  0.2792
  174SOPE  H12Y19815   6.187   4.211   9.329 -1.8389  0.2818  1.1921
  174SOPE  C31319816   6.155   4.133   9.138 -0.3339 -0.2385  0.1600
  174SOPE  H13X19817   6.259   4.157   9.105 -1.1110 -0.7872 -2.9554
  174SOPE  H13Y19818   6.090   4.219   9.111 -1.0669 -0.8414 -0.0134
  174SOPE  C31419819   6.114   4.007   9.062 -0.1634  0.4711  0.1352
  174SOPE  H14X19820   6.008   3.976   9.077 -0.1506  0.2569 -0.1953
  174SOPE  H14Y19821   6.173   3.922   9.103  3.1855  2.2713 -0.5926
  174SOPE  C31519822   6.152   4.005   8.914  0.5352 -0.5664 -0.2134
  174SOPE  H15X19823   6.262   4.015   8.902  0.4536  3.2022  0.8061
  174SOPE  H15Y19824   6.119   4.096   8.858  0.7229 -0.6015 -0.3787
  174SOPE  C31619825   6.116   3.876   8.833  0.3152 -0.2195 -0.1057
  174SOPE  H16X19826   6.161   3.787   8.881 -2.2287 -0.9433  1.1075
  174SOPE  H16Y19827   6.144   3.882   8.726 -2.4236 -0.2003 -0.8961
  174SOPE  C31719828   5.960   3.848   8.813 -0.1411  0.1782 -0.5218
  174SOPE  H17X19829   5.912   3.882   8.908 -0.5000  0.7807 -0.9142
  174SOPE  H17Y19830   5.954   3.738   8.799 -1.5760 -0.1299  1.8645
  174SOPE  C31819831   5.893   3.915   8.690  0.6766 -0.2231 -0.6278
  174SOPE  H18X19832   5.862   4.019   8.713  0.9674 -0.5903  1.5901
  174SOPE  H18Y19833   5.795   3.864   8.680 -0.2598  1.0443  1.4171
  174SOPE  H18Z19834   5.958   3.902   8.600  1.0998 -1.8568 -0.1192
  175SOPE     N19835   0.557   5.136  10.713 -0.0570 -0.2131 -0.3532
  175SOPE   HN119836   0.643   5.182  10.748 -0.1246 -0.0492 -0.4008
  175SOPE   HN219837   0.480   5.164  10.776 -0.5556 -0.8852 -0.6404
  175SOPE   HN319838   0.568   5.033  10.726  1.3794 -0.8152 -4.6017
  175SOPE   C1219839   0.525   5.175  10.571 -0.5104 -0.3524 -0.4348
  175SOPE  H12A19840   0.503   5.283  10.574 -0.6626 -0.3622  2.7216
  175SOPE  H12B19841   0.423   5.133  10.556 -2.0079  3.1093 -0.7442
  175SOPE   C1119842   0.633   5.134  10.469  0.8534 -0.3459 -0.0086
  175SOPE  H11A19843   0.589   5.100  10.373  3.1390 -2.4330 -0.4138
  175SOPE  H11B19844   0.683   5.038  10.495  0.2519 -0.7276 -0.2370
  175SOPE     P19845   0.853   5.258  10.547  0.1942  0.1795  0.0835
  175SOPE   O1319846   0.934   5.138  10.515  0.5675  0.4537 -0.5255
  175SOPE   O1419847   0.807   5.273  10.684 -0.0811 -0.6800 -0.3646
  175SOPE   O1219848   0.725   5.246  10.450  0.0750  0.2911 -0.0614
  175SOPE   O1119849   0.940   5.386  10.504 -0.3634  0.1891  0.1996
  175SOPE    C119850   0.896   5.450  10.377 -0.3186  0.5296  0.1670
  175SOPE    HA19851   0.883   5.558  10.397  1.7777  0.8013  0.3269
  175SOPE    HB19852   0.800   5.419  10.332  1.3200 -1.4350 -2.3018
  175SOPE    C219853   1.002   5.424  10.263  0.0592  0.2347  0.0676
  175SOPE    HS19854   1.000   5.510  10.193  0.2657 -0.3070 -0.6095
  175SOPE   O2119855   0.987   5.296  10.198 -0.0503 -0.3189  0.3121
  175SOPE   C2119856   0.876   5.291  10.125  0.3971  0.4856 -0.1331
  175SOPE   O2219857   0.820   5.385  10.077  0.5067 -0.7182 -0.2742
  175SOPE   C2219858   0.819   5.155  10.119  0.0935 -0.0545 -0.4035
  175SOPE   H2R19859   0.710   5.164  10.096 -0.0987  0.8483  0.7413
  175SOPE   H2S19860   0.840   5.109  10.218  1.4109 -1.2657 -1.2167
  175SOPE    C319861   1.148   5.429  10.330  0.0475 -0.0906  0.2618
  175SOPE    HX19862   1.177   5.329  10.369  0.7134  0.3716  0.9857
  175SOPE    HY19863   1.123   5.501  10.411 -0.6574 -0.2197  0.1686
  175SOPE   O3119864   1.230   5.487  10.233  0.0795 -0.0780  0.1962
  175SOPE   C3119865   1.348   5.528  10.282  0.2908 -0.4777 -0.1811
  175SOPE   O3219866   1.391   5.505  10.392 -0.4874 -1.1042  0.2586
  175SOPE   C3219867   1.425   5.610  10.178 -0.5004  0.5970  0.5797
  175SOPE   H2X19868   1.523   5.640  10.220 -0.7146  0.1094  1.4451
  175SOPE   H2Y19869   1.357   5.695  10.156  0.5132  0.9186 -1.5979
  175SOPE   C2319870   0.888   5.063  10.009 -0.0059  0.2395 -0.0806
  175SOPE   H3R19871   0.850   4.960  10.026 -0.6802  0.5793  0.5359
  175SOPE   H3S19872   0.995   5.058  10.037 -0.3500  1.6912  1.7201
  175SOPE   C2419873   0.879   5.121   9.870  0.4383  0.1465  0.2537
  175SOPE   H4R19874   0.773   5.135   9.841  0.2266 -1.0316  0.4057
  175SOPE   H4S19875   0.937   5.215   9.855 -0.3769  0.3157 -2.2280
  175SOPE   C2519876   0.939   5.025   9.759  0.7492  0.4679  0.0667
  175SOPE   H5R19877   1.041   4.989   9.781  0.0805 -1.9217 -0.3720
  175SOPE   H5S19878   0.875   4.933   9.753  2.5587 -0.7499 -3.2346
  175SOPE   C2619879   0.927   5.088   9.622 -0.5941 -0.8027  0.5771
  175SOPE   H6R19880   0.822   5.123   9.606  0.0999  1.0349 -0.2087
  175SOPE   H6S19881   0.998   5.173   9.618 -1.0319 -0.4744 -2.1466
  175SOPE   C2719882   0.965   4.987   9.517 -0.7036 -0.6334  0.5103
  175SOPE   H7R19883   1.071   4.966   9.547 -0.1220  0.3918 -0.7713
  175SOPE   H7S19884   0.903   4.897   9.537  0.3428 -1.3788  0.5301
  175SOPE   C2819885   0.959   5.043   9.371  0.1338 -0.3360  0.0392
  175SOPE   H8R19886   0.856   5.075   9.346  0.4353  0.4454 -0.2539
  175SOPE   H8S19887   1.016   5.139   9.373 -0.8474  0.4187 -2.9805
  175SOPE   C2919888   1.029   4.948   9.271  0.6993 -0.0272 -0.1415
  175SOPE   H9119889   1.129   4.910   9.296  1.2719  0.2633 -1.8287
  175SOPE  C21019890   1.004   4.942   9.139  0.2428 -0.2659  0.0828
  175SOPE  H10119891   1.057   4.874   9.070 -1.8969 -2.2436  0.2729
  175SOPE  C21119892   0.893   5.024   9.078  0.0028 -0.3262 -0.1935
  175SOPE  H11R19893   0.935   5.106   9.016  0.3254  1.8111  2.6147
  175SOPE  H11S19894   0.825   5.079   9.147 -0.6694  0.6225 -1.5702
  175SOPE  C21219895   0.816   4.931   8.988 -0.0326  1.2466 -0.6814
  175SOPE  H12R19896   0.722   4.987   8.967 -0.2755  1.7437  1.4365
  175SOPE  H12S19897   0.784   4.843   9.047  0.5532  1.5330  0.0821
  175SOPE  C21319898   0.880   4.897   8.853 -0.5345 -0.3635 -0.1007
  175SOPE  H13R19899   0.989   4.878   8.866 -0.6286 -0.3522  0.7224
  175SOPE  H13S19900   0.875   4.992   8.795 -0.3597 -0.3228 -0.0506
  175SOPE  C21419901   0.810   4.783   8.786 -0.6350  0.2870 -0.4776
  175SOPE  H14R19902   0.700   4.791   8.799 -0.5050 -0.6739  1.8182
  175SOPE  H14S19903   0.846   4.698   8.848  2.8006  0.6394 -1.7151
  175SOPE  C21519904   0.857   4.763   8.638  0.5526  0.6000  0.5332
  175SOPE  H15R19905   0.965   4.746   8.618  0.2856  0.0179 -0.5173
  175SOPE  H15S19906   0.835   4.857   8.582  1.2212  0.8903  0.7470
  175SOPE  C21619907   0.777   4.649   8.574  0.2451  0.2505  0.3439
  175SOPE  H16R19908   0.669   4.671   8.567  0.1742 -0.3806 -0.7767
  175SOPE  H16S19909   0.782   4.556   8.636  0.8735 -0.9292 -1.3868
  175SOPE  C21719910   0.811   4.607   8.427 -0.0593 -0.1264 -0.0996
  175SOPE  H17R19911   0.921   4.598   8.414 -0.0393  1.2637 -1.0498
  175SOPE  H17S19912   0.781   4.678   8.348 -4.5391  0.0016  1.4457
  175SOPE  C21819913   0.746   4.471   8.397 -0.3620  0.3555  0.1811
  175SOPE  H18R19914   0.790   4.424   8.306 -3.0336 -0.4366 -0.7965
  175SOPE  H18S19915   0.638   4.485   8.379 -0.2283  1.5384  0.2036
  175SOPE  H18T19916   0.767   4.397   8.477  0.6282  0.4591  0.0329
  175SOPE   C3319917   1.449   5.531  10.055 -0.1406  0.1069 -0.2562
  175SOPE   H3X19918   1.348   5.492  10.027  0.2976 -1.3286  0.0529
  175SOPE   H3Y19919   1.521   5.447  10.068 -2.6363 -2.2183 -0.4334
  175SOPE   C3419920   1.502   5.625   9.939  0.4758  0.0159  0.8854
  175SOPE   H4X19921   1.598   5.664   9.979  1.1136  0.0465 -0.6282
  175SOPE   H4Y19922   1.445   5.719   9.925  0.8835 -0.1814 -3.3293
  175SOPE   C3519923   1.526   5.552   9.808 -0.8081  0.5035  0.3070
  175SOPE   H5X19924   1.443   5.478   9.808  0.5050 -1.0790 -1.6861
  175SOPE   H5Y19925   1.624   5.501   9.814 -0.3485  1.3263  0.0258
  175SOPE   C3619926   1.526   5.635   9.680 -0.1328  0.0383 -0.0053
  175SOPE   H6X19927   1.609   5.708   9.693  0.4610 -0.8344  1.3847
  175SOPE   H6Y19928   1.433   5.695   9.672  0.8291  1.9716  2.1968
  175SOPE   C3719929   1.545   5.570   9.542  0.5242  0.1899 -0.0733
  175SOPE   H7X19930   1.466   5.497   9.516  1.7891 -0.4131 -2.5872
  175SOPE   H7Y19931   1.644   5.523   9.559  1.4621  2.1974  0.2587
  175SOPE   C3819932   1.556   5.683   9.437  0.2747 -0.4950  0.7829
  175SOPE   H8X19933   1.593   5.775   9.488 -0.3312 -0.3713  1.0013
  175SOPE   H8Y19934   1.450   5.700   9.410  0.6127 -0.3807 -0.5603
  175SOPE   C3919935   1.639   5.630   9.311  0.4221  0.1353 -0.1455
  175SOPE   H9X19936   1.742   5.606   9.345  0.9685  1.7211 -0.6052
  175SOPE   H9Y19937   1.650   5.723   9.251  3.3022  1.4224  2.1488
  175SOPE  C31019938   1.584   5.523   9.210 -0.2622 -0.1821 -0.2277
  175SOPE  H10X19939   1.498   5.570   9.158  0.6831 -0.0820 -1.7562
  175SOPE  H10Y19940   1.548   5.433   9.264  0.4233 -1.4060 -1.7259
  175SOPE  C31119941   1.678   5.465   9.111  0.3134  0.7460  0.8680
  175SOPE  H11X19942   1.737   5.376   9.144 -0.6625 -0.7117 -1.0601
  175SOPE  H11Y19943   1.755   5.539   9.085  1.3578 -0.9877 -1.3593
  175SOPE  C31219944   1.597   5.424   8.982 -0.1638 -0.9180 -0.5785
  175SOPE  H12X19945   1.670   5.380   8.910  1.1761  1.8085 -1.0009
  175SOPE  H12Y19946   1.554   5.514   8.933 -0.8084 -0.8134  0.1527
  175SOPE  C31319947   1.484   5.321   9.001 -0.5505  0.0379  0.3713
  175SOPE  H13X19948   1.422   5.352   9.088  0.6681  1.6345  0.7234
  175SOPE  H13Y19949   1.527   5.224   9.033  1.5395  0.7781 -0.0001
  175SOPE  C31419950   1.403   5.283   8.877  0.6810 -0.3349  0.1144
  175SOPE  H14X19951   1.345   5.369   8.835 -0.6889 -1.1578  0.2439
  175SOPE  H14Y19952   1.320   5.214   8.904 -0.0445  0.2030 -0.6912
  175SOPE  C31519953   1.480   5.210   8.767 -0.0753 -0.5776 -0.3127
  175SOPE  H15X19954   1.504   5.105   8.796  1.4280 -0.3750 -0.7314
  175SOPE  H15Y19955   1.579   5.256   8.746 -1.9132  3.1091 -1.6881
  175SOPE  C31619956   1.414   5.190   8.636  0.0364 -0.7909 -0.3582
  175SOPE  H16X19957   1.476   5.134   8.564 -3.6302 -0.6025 -4.0531
  175SOPE  H16Y19958   1.391   5.292   8.599  0.1706 -0.7113 -0.2263
  175SOPE  C31719959   1.290   5.101   8.652 -0.4941  0.3033  0.2029
  175SOPE  H17X19960   1.210   5.153   8.707 -1.2178 -1.9284  1.3826
  175SOPE  H17Y19961   1.317   5.017   8.719  2.6425  1.0834  0.1093
  175SOPE  C31819962   1.241   5.046   8.518  0.0294  0.9948  0.5414
  175SOPE  H18X19963   1.217   5.133   8.453 -4.1216 -0.3618  0.0093
  175SOPE  H18Y19964   1.150   4.985   8.534 -0.5217  1.6941  0.1595
  175SOPE  H18Z19965   1.309   4.973   8.470 -1.3058  0.2132 -0.2052
  176SOPE     N19966   1.822   5.321  10.475  0.5543 -0.4224 -0.0914
  176SOPE   HN119967   1.873   5.234  10.498  0.1072 -1.2375 -2.0390
  176SOPE   HN219968   1.726   5.292  10.446 -0.8096  2.1857  1.3401
  176SOPE   HN319969   1.870   5.375  10.400 -2.8995 -0.3580 -2.4814
  176SOPE   C1219970   1.807   5.425  10.589  0.5624  0.0103 -0.3414
  176SOPE  H12A19971   1.902   5.481  10.599  0.1968  0.3805  1.4455
  176SOPE  H12B19972   1.780   5.370  10.682 -3.6773 -3.3715 -3.1990
  176SOPE   C1119973   1.690   5.520  10.581  0.0364 -0.2362 -0.7408
  176SOPE  H11A19974   1.591   5.470  10.593 -0.2678  0.7176  1.0264
  176SOPE  H11B19975   1.699   5.571  10.482 -1.9559 -1.4354 -1.6210
  176SOPE     P19976   1.591   5.677  10.760 -0.3105  0.1000 -0.2953
  176SOPE   O1319977   1.626   5.802  10.832  0.7323  0.1437  0.8486
  176SOPE   O1419978   1.526   5.571  10.847  0.2032  0.1456 -0.0904
  176SOPE   O1219979   1.714   5.616  10.688 -0.1270  0.8494 -0.1166
  176SOPE   O1119980   1.489   5.702  10.653 -0.0526 -0.4346 -0.1629
  176SOPE    C119981   1.496   5.820  10.566 -0.5427  0.1384 -0.3766
  176SOPE    HA19982   1.464   5.788  10.465  0.1547  0.8408 -0.8354
  176SOPE    HB19983   1.599   5.861  10.561 -1.2989  2.1979 -0.0882
  176SOPE    C219984   1.398   5.939  10.603  0.4982 -0.3093  0.0907
  176SOPE    HS19985   1.407   5.957  10.712 -0.6759  0.7183  0.0412
  176SOPE   O2119986   1.261   5.888  10.580 -0.2964 -0.4279 -0.4137
  176SOPE   C2119987   1.167   5.976  10.609  0.1429 -0.2865 -0.0566
  176SOPE   O2219988   1.184   6.082  10.668 -0.2781 -0.7991 -0.0599
  176SOPE   C2219989   1.033   5.940  10.548  0.4414 -0.5977 -0.0540
  176SOPE   H2R19990   0.992   6.036  10.511 -0.1767 -0.3777  1.1427
  176SOPE   H2S19991   0.972   5.900  10.632 -0.0512 -0.1849 -0.2101
  176SOPE    C319992   1.435   6.070  10.522  0.0783 -0.0565 -0.2463
  176SOPE    HX19993   1.534   6.115  10.544 -0.3564  0.8918 -0.1377
  176SOPE    HY19994   1.369   6.154  10.554  1.4231  1.3822 -1.0824
  176SOPE   O3119995   1.415   6.058  10.380 -0.1754 -0.3491 -0.4609
  176SOPE   C3119996   1.500   6.002  10.307  0.0700  0.4681  0.8143
  176SOPE   O3219997   1.613   5.971  10.338 -0.4209  0.1243  0.1741
  176SOPE   C3219998   1.433   5.981  10.170 -0.5076  0.2055 -0.1160
  176SOPE   H2X19999   1.340   6.040  10.160 -1.6819 -1.0922  2.2573
  176SOPE   H2Y20000   1.418   5.871  10.167 -0.6143  0.1149  2.0617
  176SOPE   C2320001   1.041   5.831  10.436 -0.0143 -0.3284  0.5077
  176SOPE   H3R20002   0.936   5.796  10.421 -0.1518  0.4651 -0.5457
  176SOPE   H3S20003   1.091   5.734  10.451 -0.3040 -0.7161 -0.8391
  176SOPE   C2420004   1.091   5.884  10.300  0.8460 -0.5602 -0.2289
  176SOPE   H4R20005   1.032   5.975  10.276  1.7613 -0.2187 -1.2689
  176SOPE   H4S20006   1.196   5.916  10.312  0.2541  1.2817  0.3623
  176SOPE   C2520007   1.076   5.795  10.170 -0.5522  0.1651  0.0285
  176SOPE   H5R20008   1.148   5.711  10.181 -0.4885  0.1419 -0.5648
  176SOPE   H5S20009   0.971   5.757  10.166 -0.0041 -1.3929 -0.0608
  176SOPE   C2620010   1.107   5.874  10.046  1.0573  0.0838 -0.4384
  176SOPE   H6R20011   1.048   5.968  10.034  1.2404  0.1779 -0.5971
  176SOPE   H6S20012   1.214   5.903  10.054  0.7658  1.3045 -0.6643
  176SOPE   C2720013   1.096   5.781   9.925 -0.5261 -0.3382 -0.1378
  176SOPE   H7R20014   1.147   5.684   9.941 -0.1613 -0.0698  0.3615
  176SOPE   H7S20015   0.988   5.762   9.912 -0.7151  0.3561  0.3655
  176SOPE   C2820016   1.161   5.834   9.791  0.7397 -0.3300  0.3484
  176SOPE   H8R20017   1.267   5.861   9.810  0.5719 -0.3462  1.3637
  176SOPE   H8S20018   1.174   5.755   9.714  1.1709  0.8361 -0.8015
  176SOPE   C2920019   1.090   5.957   9.734 -0.0156  0.4079  0.1164
  176SOPE   H9120020   1.035   6.012   9.812  0.1801  1.0380 -0.1844
  176SOPE  C21020021   1.094   5.984   9.600 -1.4645  0.0438 -0.2776
  176SOPE  H10120022   1.062   6.083   9.564  2.2587  1.1527 -0.9691
  176SOPE  C21120023   1.155   5.909   9.481  0.2736  0.3026  0.3540
  176SOPE  H11R20024   1.174   5.802   9.504  1.9886  0.2472 -1.0973
  176SOPE  H11S20025   1.260   5.943   9.468 -0.4875  2.3185 -1.1493
  176SOPE  C21220026   1.082   5.909   9.347  0.0069 -0.0172 -0.1207
  176SOPE  H12R20027   1.061   6.014   9.317  0.2175  0.6605  1.9464
  176SOPE  H12S20028   0.986   5.854   9.366 -0.7335  1.2472 -0.1009
  176SOPE  C21320029   1.151   5.852   9.229 -0.2316 -0.2502 -0.0409
  176SOPE  H13R20030   1.077   5.857   9.147 -0.5778  0.2940  0.2961
  176SOPE  H13S20031   1.173   5.746   9.256  0.1878 -1.1193 -3.3529
  176SOPE  C21420032   1.280   5.913   9.183  0.6003 -0.0341  0.2347
  176SOPE  H14R20033   1.345   5.937   9.270  0.2990 -2.0337  1.0768
  176SOPE  H14S20034   1.248   6.005   9.129 -0.8070  0.5884  2.0309
  176SOPE  C21520035   1.348   5.807   9.083  0.3333 -0.3292 -0.7129
  176SOPE  H15R20036   1.340   5.700   9.113  2.4167 -0.6389 -1.1148
  176SOPE  H15S20037   1.456   5.832   9.082  0.1225  0.5945 -1.8557
  176SOPE  C21620038   1.287   5.823   8.939 -0.2646 -0.3538 -0.3847
  176SOPE  H16R20039   1.311   5.928   8.909  0.4878 -0.4950 -0.3034
  176SOPE  H16S20040   1.177   5.807   8.938  0.0012 -2.5465  0.1795
  176SOPE  C21720041   1.350   5.726   8.839  0.0900  0.2883 -0.6557
  176SOPE  H17R20042   1.269   5.650   8.833 -0.1294 -0.0864  3.9432
  176SOPE  H17S20043   1.437   5.677   8.886  0.8432  0.2124 -2.0709
  176SOPE  C21820044   1.397   5.796   8.709  0.1125  0.2633  0.5979
  176SOPE  H18R20045   1.487   5.853   8.738 -0.6353  2.0569 -0.4309
  176SOPE  H18S20046   1.320   5.862   8.664 -0.8732 -1.4855 -0.4020
  176SOPE  H18T20047   1.423   5.720   8.632 -2.1146 -0.6057  0.6236
  176SOPE   C3320048   1.530   6.041  10.061  0.2422 -0.2209 -0.2965
  176SOPE   H3X20049   1.629   5.990  10.061  0.9183  1.0478 -0.4597
  176SOPE   H3Y20050   1.551   6.149  10.079 -1.0423  0.0821 -0.5469
  176SOPE   C3420051   1.475   6.023   9.919  0.3082  0.3739  0.6494
  176SOPE   H4X20052   1.374   6.068   9.910  0.4070  0.2904 -1.0624
  176SOPE   H4Y20053   1.465   5.914   9.903  1.7980  0.6208 -2.7421
  176SOPE   C3520054   1.567   6.081   9.819 -0.1151 -0.2107 -0.1381
  176SOPE   H5X20055   1.663   6.026   9.824  0.8608  1.4106 -0.4738
  176SOPE   H5Y20056   1.593   6.189   9.820  1.3698 -0.5413  1.7656
  176SOPE   C3620057   1.518   6.070   9.676  0.4931 -0.0845  0.5874
  176SOPE   H6X20058   1.421   6.124   9.671  0.9536  0.6325 -2.5117
  176SOPE   H6Y20059   1.504   5.963   9.652  0.5421  0.0866 -0.2298
  176SOPE   C3720060   1.603   6.117   9.562  0.0462  0.2898 -0.5152
  176SOPE   H7X20061   1.695   6.056   9.558 -0.4613 -0.6696  1.2546
  176SOPE   H7Y20062   1.628   6.223   9.581 -1.7746  0.3298  2.2056
  176SOPE   C3820063   1.542   6.113   9.425  0.3010  0.9753 -0.7041
  176SOPE   H8X20064   1.456   6.183   9.433 -1.2640 -1.0766  3.4558
  176SOPE   H8Y20065   1.493   6.014   9.415 -0.5901  1.2242  0.7489
  176SOPE   C3920066   1.648   6.144   9.319 -0.2539 -0.1484 -0.1010
  176SOPE   H9X20067   1.742   6.095   9.352 -0.7052 -1.4038 -0.6264
  176SOPE   H9Y20068   1.660   6.254   9.304  1.6210 -0.6052 -2.3105
  176SOPE  C31020069   1.618   6.080   9.183  0.3596 -0.5023 -0.1137
  176SOPE  H10X20070   1.514   6.113   9.164 -0.6949 -2.3222  1.9943
  176SOPE  H10Y20071   1.611   5.969   9.189 -1.2381 -0.4780 -1.1883
  176SOPE  C31120072   1.712   6.114   9.073 -0.0988 -0.3216  0.2890
  176SOPE  H11X20073   1.818   6.079   9.075 -0.2145 -1.2653 -3.3228
  176SOPE  H11Y20074   1.724   6.224   9.072 -3.0383  0.0829 -1.3287
  176SOPE  C31220075   1.661   6.075   8.930  0.3442 -0.0456  0.5095
  176SOPE  H12X20076   1.567   6.127   8.900  0.6414  0.4203  0.3849
  176SOPE  H12Y20077   1.641   5.966   8.945  0.8461 -0.1796  0.2085
  176SOPE  C31320078   1.762   6.077   8.813 -0.0515 -0.6290 -0.1330
  176SOPE  H13X20079   1.777   5.973   8.775  2.1683 -0.1009 -0.8922
  176SOPE  H13Y20080   1.866   6.088   8.852 -0.3572  1.5613  0.1495
  176SOPE  C31420081   1.736   6.170   8.696 -0.3803  0.2603 -0.1603
  176SOPE  H14X20082   1.831   6.176   8.637 -0.5770  1.8738 -0.3472
  176SOPE  H14Y20083   1.715   6.272   8.733  2.2813  1.0095 -0.4814
  176SOPE  C31520084   1.617   6.124   8.603 -0.8806  0.4611 -0.1793
  176SOPE  H15X20085   1.526   6.120   8.666 -0.8225 -2.5091 -0.1474
  176SOPE  H15Y20086   1.635   6.018   8.573  0.3584  0.0256  1.8879
  176SOPE  C31620087   1.602   6.218   8.483 -0.2220 -0.3578 -0.1484
  176SOPE  H16X20088   1.556   6.313   8.516  0.9823 -0.1962  1.1591
  176SOPE  H16Y20089   1.534   6.162   8.414 -0.1121 -0.0737 -0.4900
  176SOPE  C31720090   1.727   6.262   8.399 -0.4930 -0.5885 -0.2118
  176SOPE  H17X20091   1.784   6.171   8.371  2.2864  0.9163  0.2192
  176SOPE  H17Y20092   1.808   6.316   8.453 -0.4967  0.2239 -0.9919
  176SOPE  C31820093   1.689   6.346   8.281 -0.2977 -0.0876  0.1843
  176SOPE  H18X20094   1.604   6.297   8.227 -0.4893 -0.4764  0.8286
  176SOPE  H18Y20095   1.774   6.342   8.209  0.8055  1.2272  1.3629
  176SOPE  H18Z20096   1.655   6.449   8.304 -2.1750 -0.6787  0.2635
  177SOPE     N20097   0.637   2.415  11.147 -0.5836  0.0995  0.3728
  177SOPE   HN120098   0.740   2.404  11.149 -0.5545  0.4567  1.0442
  177SOPE   HN220099   0.606   2.514  11.160 -0.9947  0.1066 -0.5892
  177SOPE   HN320100   0.598   2.353  11.222 -1.0162 -0.1361 -0.0403
  177SOPE   C1220101   0.579   2.374  11.012 -0.4948  0.8379 -0.0736
  177SOPE  H12A20102   0.474   2.340  11.027 -0.5535  1.3535  0.7436
  177SOPE  H12B20103   0.636   2.285  10.977  0.1753  1.1902  0.0939
  177SOPE   C1120104   0.587   2.494  10.922 -1.1420 -0.6068 -0.3378
  177SOPE  H11A20105   0.552   2.462  10.821 -1.6755 -0.8153 -0.0889
  177SOPE  H11B20106   0.694   2.523  10.908 -1.2896 -0.8997 -2.4946
  177SOPE     P20107   0.364   2.632  10.915  0.1205  0.2950  0.0180
  177SOPE   O1320108   0.325   2.765  10.971 -0.7200 -0.1144 -0.2735
  177SOPE   O1420109   0.281   2.520  10.949 -0.3057  0.3912 -0.5934
  177SOPE   O1220110   0.513   2.602  10.976  0.0374 -0.2344  0.0988
  177SOPE   O1120111   0.389   2.634  10.751  0.1850 -0.4110 -0.1060
  177SOPE    C120112   0.476   2.728  10.695 -0.2605  0.2505  0.0167
  177SOPE    HA20113   0.582   2.692  10.695 -0.2137  0.3824  0.6842
  177SOPE    HB20114   0.478   2.827  10.745  0.4428  0.4510 -0.3881
  177SOPE    C220115   0.431   2.769  10.551 -0.0531 -0.7793 -0.0334
  177SOPE    HS20116   0.325   2.802  10.554  0.0670 -0.2883 -0.7759
  177SOPE   O2120117   0.448   2.666  10.449  0.6850  0.0554 -0.1122
  177SOPE   C2120118   0.351   2.648  10.361  0.5668 -0.0864 -0.2399
  177SOPE   O2220119   0.248   2.712  10.346 -0.1333  0.5087  0.2169
  177SOPE   C2220120   0.392   2.527  10.270  0.5529  0.2125  0.0532
  177SOPE   H2R20121   0.351   2.430  10.307 -1.2445 -0.2528 -2.8528
  177SOPE   H2S20122   0.503   2.520  10.271  0.5052 -3.3661  2.4605
  177SOPE    C320123   0.502   2.900  10.502 -0.1745  0.0244 -0.0441
  177SOPE    HX20124   0.611   2.877  10.507  0.3734  2.4711  0.3973
  177SOPE    HY20125   0.475   2.977  10.577  0.1052 -0.5457  0.6584
  177SOPE   O3120126   0.475   2.933  10.365  0.3145  0.4640  0.0385
  177SOPE   C3120127   0.363   3.009  10.351 -0.5913  0.6676  0.1334
  177SOPE   O3220128   0.290   3.041  10.442 -0.3602 -0.1413 -0.0214
  177SOPE   C3220129   0.333   3.010  10.198  0.2191  0.3019  0.0698
  177SOPE   H2X20130   0.226   3.035  10.180  0.2732 -0.0519 -0.8106
  177SOPE   H2Y20131   0.333   2.906  10.158  3.5536 -0.7229  2.3334
  177SOPE   C2320132   0.335   2.530  10.125 -0.0865  0.0428  0.2212
  177SOPE   H3R20133   0.229   2.563  10.126 -0.7357 -1.6606 -2.5176
  177SOPE   H3S20134   0.341   2.425  10.091 -2.5254 -0.1289  0.1695
  177SOPE   C2420135   0.431   2.608  10.035 -0.6468  0.2646  0.2554
  177SOPE   H4R20136   0.468   2.697  10.090  0.2506  0.8495 -1.2354
  177SOPE   H4S20137   0.525   2.557  10.004 -0.4016  1.3073 -0.8000
  177SOPE   C2520138   0.370   2.670   9.914 -0.0501  0.3332 -0.1341
  177SOPE   H5R20139   0.320   2.588   9.858  1.7343 -0.6594 -0.3348
  177SOPE   H5S20140   0.288   2.733   9.956 -2.0849 -1.5131 -1.1046
  177SOPE   C2620141   0.464   2.760   9.840  0.1107 -0.2154  0.8171
  177SOPE   H6R20142   0.468   2.848   9.907 -2.1108  0.4668  0.1441
  177SOPE   H6S20143   0.563   2.717   9.814 -0.6169 -1.3939 -0.1200
  177SOPE   C2720144   0.408   2.806   9.700  0.0302 -0.0296  0.1894
  177SOPE   H7R20145   0.305   2.843   9.714  0.0412 -0.4310  1.4052
  177SOPE   H7S20146   0.468   2.891   9.660 -1.3742  0.1024 -1.7854
  177SOPE   C2820147   0.412   2.692   9.595 -0.0346  0.0722  0.2530
  177SOPE   H8R20148   0.516   2.654   9.595 -0.6544 -1.9393  2.8722
  177SOPE   H8S20149   0.352   2.605   9.631  0.7312 -0.1635  0.9941
  177SOPE   C2920150   0.363   2.740   9.460  0.4407 -0.1111  1.2744
  177SOPE   H9120151   0.255   2.763   9.461 -0.0778 -2.1867 -0.2526
  177SOPE  C21020152   0.441   2.747   9.349  0.4138 -0.7370 -0.2923
  177SOPE  H10120153   0.398   2.803   9.264  1.9877  0.3599 -0.4202
  177SOPE  C21120154   0.586   2.713   9.333  0.5444  0.1943  0.4544
  177SOPE  H11R20155   0.635   2.693   9.431 -1.7271 -0.7858  1.4473
  177SOPE  H11S20156   0.637   2.796   9.280  1.5502 -0.4801  0.3375
  177SOPE  C21220157   0.617   2.597   9.236 -0.0049 -0.0307  0.5589
  177SOPE  H12R20158   0.588   2.502   9.286  1.1886 -0.2350  0.8974
  177SOPE  H12S20159   0.724   2.578   9.211 -0.2246 -0.7022  0.1138
  177SOPE  C21320160   0.541   2.609   9.099 -0.2788 -0.2582  0.8772
  177SOPE  H13R20161   0.530   2.718   9.085 -0.1461 -0.2160  1.1029
  177SOPE  H13S20162   0.436   2.574   9.115 -0.2202 -0.7810  0.1828
  177SOPE  C21420163   0.620   2.535   8.990  0.6619  0.3326  0.6131
  177SOPE  H14R20164   0.628   2.424   8.992  1.5039  0.3689 -0.2092
  177SOPE  H14S20165   0.724   2.572   8.999  0.7099  0.0812  1.1422
  177SOPE  C21520166   0.564   2.566   8.855 -0.0920 -0.0990  0.2073
  177SOPE  H15R20167   0.630   2.525   8.775 -0.5463 -0.1893 -0.1239
  177SOPE  H15S20168   0.545   2.675   8.840 -1.5944  0.1403  3.1681
  177SOPE  C21620169   0.437   2.489   8.827 -0.7286 -0.1767  0.8285
  177SOPE  H16R20170   0.361   2.502   8.906 -1.0988 -0.1814  0.4755
  177SOPE  H16S20171   0.474   2.384   8.823  0.4161  0.2393 -0.3236
  177SOPE  C21720172   0.367   2.518   8.693  0.4237 -0.1048 -0.0767
  177SOPE  H17R20173   0.284   2.444   8.689 -1.1199  1.5382  0.4590
  177SOPE  H17S20174   0.442   2.480   8.620  0.6521  0.0196  0.0927
  177SOPE  C21820175   0.316   2.658   8.672 -0.0073 -1.0061 -0.0872
  177SOPE  H18R20176   0.226   2.676   8.734  0.4217  1.5574 -0.0780
  177SOPE  H18S20177   0.288   2.675   8.566 -1.9740 -1.1544  0.3754
  177SOPE  H18T20178   0.390   2.741   8.686  0.5788 -1.3088 -1.2989
  177SOPE   C3320179   0.413   3.106  10.110 -0.4876 -0.4345 -0.6034
  177SOPE   H3X20180   0.514   3.061  10.100  1.0078  2.5189 -0.0266
  177SOPE   H3Y20181   0.435   3.201  10.164  2.8181  0.4895 -3.2409
  177SOPE   C3420182   0.349   3.133   9.973  0.1175 -0.0110  0.1795
  177SOPE   H4X20183   0.264   3.201   9.998 -0.8330 -0.1991 -2.2743
  177SOPE   H4Y20184   0.314   3.037   9.929 -0.2337  0.0131  0.4005
  177SOPE   C3520185   0.435   3.206   9.867 -0.1949  0.0785 -0.4272
  177SOPE   H5X20186   0.519   3.139   9.842 -0.7874 -0.7336 -0.2794
  177SOPE   H5Y20187   0.488   3.302   9.888  0.2434 -0.0895 -0.7518
  177SOPE   C3620188   0.354   3.223   9.734 -0.0167 -0.2846 -0.6940
  177SOPE   H6X20189   0.284   3.309   9.733 -0.1176 -0.3670 -1.8723
  177SOPE   H6Y20190   0.281   3.139   9.731 -0.6804 -0.0837  3.5511
  177SOPE   C3720191   0.445   3.216   9.610 -0.1503 -0.0241  0.9434
  177SOPE   H7X20192   0.523   3.137   9.607  1.3214  1.3013  2.5679
  177SOPE   H7Y20193   0.496   3.315   9.614 -4.4902  2.4845  1.2340
  177SOPE   C3820194   0.359   3.210   9.476  0.0365  0.5077 -0.1897
  177SOPE   H8X20195   0.283   3.291   9.485  1.1325  1.7412 -1.6329
  177SOPE   H8Y20196   0.317   3.108   9.477  3.6908 -1.1629 -0.8653
  177SOPE   C3920197   0.432   3.223   9.341 -0.2478 -0.3178  0.2643
  177SOPE   H9X20198   0.476   3.122   9.323 -0.8309 -0.9570  2.2083
  177SOPE   H9Y20199   0.518   3.293   9.350  0.6959 -0.8952 -2.9085
  177SOPE  C31020200   0.342   3.250   9.223  0.0989 -0.6226  0.4645
  177SOPE  H10X20201   0.339   3.359   9.203  2.1184 -0.2985  1.7016
  177SOPE  H10Y20202   0.240   3.205   9.233  0.3875 -1.2133  0.7977
  177SOPE  C31120203   0.400   3.191   9.092 -0.5813 -0.8085  0.3311
  177SOPE  H11X20204   0.509   3.205   9.102 -0.6918 -0.4218  1.1116
  177SOPE  H11Y20205   0.362   3.251   9.006 -0.7992 -1.5206 -0.0726
  177SOPE  C31220206   0.365   3.044   9.070  0.2644  0.2631  0.7762
  177SOPE  H12X20207   0.261   3.044   9.030  0.5817 -1.1946 -0.1051
  177SOPE  H12Y20208   0.345   2.987   9.163 -0.4036  0.8791  1.0242
  177SOPE  C31320209   0.465   2.965   8.980 -0.0196 -0.6105  0.4358
  177SOPE  H13X20210   0.430   2.859   8.978 -0.3977 -0.6224  3.2971
  177SOPE  H13Y20211   0.572   2.965   9.010  0.8508 -0.6210 -2.3587
  177SOPE  C31420212   0.468   3.010   8.834 -0.1665 -0.5910  0.3355
  177SOPE  H14X20213   0.364   3.032   8.802 -0.2952 -0.0336  1.0990
  177SOPE  H14Y20214   0.502   2.928   8.768  0.3920 -0.6595  0.7038
  177SOPE  C31520215   0.551   3.139   8.808 -0.5317  0.5313 -1.2761
  177SOPE  H15X20216   0.651   3.109   8.848 -0.9699  0.8954  0.1261
  177SOPE  H15Y20217   0.522   3.225   8.872  0.1774 -1.1480  1.4886
  177SOPE  C31620218   0.549   3.186   8.670 -0.6584  0.0893  0.9289
  177SOPE  H16X20219   0.578   3.103   8.602  0.8249 -0.6088  2.3507
  177SOPE  H16Y20220   0.623   3.267   8.653 -1.3662  0.4503 -0.6481
  177SOPE  C31720221   0.417   3.253   8.637 -0.1820  0.5499  0.3616
  177SOPE  H17X20222   0.327   3.197   8.671  0.4966 -0.7193  0.1465
  177SOPE  H17Y20223   0.414   3.263   8.526 -2.7908  2.0034  0.4721
  177SOPE  C31820224   0.402   3.395   8.690 -0.2520  0.3276 -0.4615
  177SOPE  H18X20225   0.294   3.424   8.694 -0.1752  0.5175  2.9747
  177SOPE  H18Y20226   0.458   3.469   8.630  0.2929  1.9363  1.9252
  177SOPE  H18Z20227   0.453   3.397   8.788  0.2941 -1.7691 -0.6576
  178SOPE     N20228   3.770   2.116  10.842  0.7339 -0.3929  0.0317
  178SOPE   HN120229   3.697   2.176  10.798 -1.4937 -0.5014  3.2188
  178SOPE   HN220230   3.760   2.024  10.794 -2.0324  0.1815 -0.6570
  178SOPE   HN320231   3.748   2.097  10.942 -0.7055 -0.4706 -0.2742
  178SOPE   C1220232   3.907   2.173  10.803  0.1103 -0.7330  0.2610
  178SOPE  H12A20233   3.986   2.098  10.828  0.7764 -0.8607 -2.0183
  178SOPE  H12B20234   3.915   2.263  10.868 -2.3001 -2.1145  2.6617
  178SOPE   C1120235   3.913   2.195  10.650 -0.2365 -0.6390 -0.5235
  178SOPE  H11A20236   3.921   2.088  10.622  0.3318 -0.7432  0.0149
  178SOPE  H11B20237   4.007   2.249  10.629 -1.7805  1.1061 -3.6512
  178SOPE     P20238   3.793   2.420  10.584  0.0417  0.2164 -0.1554
  178SOPE   O1320239   3.890   2.481  10.677  0.3733  0.6394 -0.2562
  178SOPE   O1420240   3.649   2.443  10.601 -0.4689  0.0039  0.0454
  178SOPE   O1220241   3.807   2.267  10.589 -0.2751 -0.1046 -0.0008
  178SOPE   O1120242   3.842   2.429  10.436 -0.5026  0.0093  0.4677
  178SOPE    C120243   3.758   2.398  10.324 -0.3020  0.4992  0.0919
  178SOPE    HA20244   3.737   2.493  10.270  0.7974  0.7923  0.1557
  178SOPE    HB20245   3.662   2.358  10.362  0.6316  0.4961  2.6450
  178SOPE    C220246   3.828   2.302  10.233  0.0340  0.2469 -0.0202
  178SOPE    HS20247   3.874   2.224  10.298 -3.9358 -0.8981  1.7270
  178SOPE   O2120248   3.917   2.389  10.152  0.6072  0.0474 -0.3836
  178SOPE   C2120249   4.034   2.322  10.140  0.3702 -0.2499 -0.0618
  178SOPE   O2220250   4.062   2.208  10.172  1.3926  0.6622 -0.0980
  178SOPE   C2220251   4.131   2.429  10.097  0.0635 -0.3461 -0.2625
  178SOPE   H2R20252   4.192   2.446  10.188  1.1208 -2.5307 -0.5039
  178SOPE   H2S20253   4.073   2.519  10.067 -1.1331 -0.1200  2.4433
  178SOPE    C320254   3.718   2.231  10.152  0.1477 -0.6010  1.0443
  178SOPE    HX20255   3.648   2.177  10.220  0.2870 -1.3387  0.6087
  178SOPE    HY20256   3.766   2.154  10.089 -1.0310 -0.1569 -0.4466
  178SOPE   O3120257   3.636   2.323  10.072  0.4963 -0.3240 -0.2210
  178SOPE   C3120258   3.688   2.355   9.953  0.2247 -0.3501  0.1150
  178SOPE   O3220259   3.798   2.316   9.913  0.7677  0.4283 -0.0898
  178SOPE   C3220260   3.590   2.434   9.862 -0.4206 -0.3880 -0.5867
  178SOPE   H2X20261   3.620   2.540   9.878  1.5726 -0.9691 -0.2160
  178SOPE   H2Y20262   3.485   2.426   9.899 -1.0305  1.6230 -1.7401
  178SOPE   C2320263   4.237   2.376   9.992  0.1023 -0.3231  0.6865
  178SOPE   H3R20264   4.255   2.268  10.009  0.3858 -0.2158  1.0671
  178SOPE   H3S20265   4.330   2.427  10.025  0.2466  0.2010 -0.4737
  178SOPE   C2420266   4.186   2.411   9.845 -0.4528  0.2576 -0.1658
  178SOPE   H4R20267   4.083   2.369   9.834  0.6426 -2.1839 -2.1131
  178SOPE   H4S20268   4.176   2.522   9.840  0.2400  0.3878  1.1216
  178SOPE   C2520269   4.284   2.359   9.741  0.3573  0.3554  0.3403
  178SOPE   H5R20270   4.394   2.369   9.758  0.2616  0.7604  0.7271
  178SOPE   H5S20271   4.262   2.250   9.737 -0.5320  0.5039 -3.6011
  178SOPE   C2620272   4.243   2.413   9.601 -0.0424 -0.4763 -0.4509
  178SOPE   H6R20273   4.265   2.522   9.602  2.0349 -0.8536 -0.9217
  178SOPE   H6S20274   4.313   2.373   9.525  0.1161 -0.1309 -0.4895
  178SOPE   C2720275   4.101   2.383   9.553 -0.6687  0.2243 -1.0729
  178SOPE   H7R20276   4.090   2.273   9.567 -0.1223  0.2049 -0.7536
  178SOPE   H7S20277   4.018   2.427   9.612  0.3771  1.3696 -0.4038
  178SOPE   C2820278   4.086   2.406   9.410  0.1053  0.1721 -0.0330
  178SOPE   H8R20279   4.072   2.515   9.400  1.3250  0.2481 -1.2325
  178SOPE   H8S20280   4.183   2.381   9.360 -0.0877  0.2519 -0.4534
  178SOPE   C2920281   3.975   2.314   9.350 -0.6375 -0.1614  0.5560
  178SOPE   H9120282   3.917   2.260   9.427 -1.7757 -0.5210 -0.5155
  178SOPE  C21020283   3.951   2.309   9.217  0.1270  0.0684 -0.9026
  178SOPE  H10120284   3.870   2.243   9.183  3.0688 -3.6392 -1.3861
  178SOPE  C21120285   4.023   2.396   9.113  1.2490 -0.1319  0.0112
  178SOPE  H11R20286   4.062   2.488   9.160 -1.2987  1.8029 -1.4192
  178SOPE  H11S20287   3.941   2.436   9.049  0.0323 -3.3626 -0.6571
  178SOPE  C21220288   4.131   2.323   9.032 -0.0763  0.1553 -0.1208
  178SOPE  H12R20289   4.204   2.264   9.091  1.0255 -0.1233 -1.6916
  178SOPE  H12S20290   4.177   2.400   8.966  0.2027 -0.5251 -0.7348
  178SOPE  C21320291   4.062   2.224   8.938  0.3082 -0.1386 -0.1782
  178SOPE  H13R20292   3.964   2.259   8.897  0.6599  1.0326 -0.0624
  178SOPE  H13S20293   4.037   2.138   9.004  0.2237  0.4631  0.5874
  178SOPE  C21420294   4.146   2.163   8.827  0.5981  0.8590  0.5127
  178SOPE  H14R20295   4.227   2.098   8.867  0.3457 -0.2920 -0.7535
  178SOPE  H14S20296   4.190   2.254   8.781  0.7340  0.9575  0.8324
  178SOPE  C21520297   4.066   2.087   8.727  0.6054  0.6789  0.5007
  178SOPE  H15R20298   3.971   2.140   8.704 -0.4527 -0.5848  1.7625
  178SOPE  H15S20299   4.039   1.993   8.780  1.7734  0.7087  1.1731
  178SOPE  C21620300   4.133   2.049   8.601  0.0273 -0.6511  0.5976
  178SOPE  H16R20301   4.051   2.018   8.532  0.0772  1.0721 -0.2844
  178SOPE  H16S20302   4.203   1.967   8.629  1.9716  1.1136  1.1013
  178SOPE  C21720303   4.214   2.157   8.540 -0.2899  0.2354  0.3557
  178SOPE  H17R20304   4.292   2.202   8.606 -1.2892  1.3484  0.8123
  178SOPE  H17S20305   4.156   2.250   8.521 -0.4553  0.3436  1.3598
  178SOPE  C21820306   4.259   2.120   8.400  0.5910 -0.3454  0.5213
  178SOPE  H18R20307   4.342   2.050   8.378 -0.1846 -0.2272 -3.5388
  178SOPE  H18S20308   4.299   2.213   8.354  0.3652 -0.4913  0.0174
  178SOPE  H18T20309   4.170   2.081   8.346  0.0591  0.3520  0.8853
  178SOPE   C3320310   3.600   2.382   9.712  0.8776 -0.0341 -0.2176
  178SOPE   H3X20311   3.555   2.280   9.714 -0.3402  0.5046  1.0020
  178SOPE   H3Y20312   3.705   2.378   9.676  1.1009  0.0352  0.4198
  178SOPE   C3420313   3.506   2.461   9.623 -0.1810 -0.5300  0.6250
  178SOPE   H4X20314   3.541   2.566   9.623  1.5208 -1.0665 -0.4320
  178SOPE   H4Y20315   3.400   2.464   9.656  0.4196  2.7414  2.6717
  178SOPE   C3520316   3.513   2.407   9.479  0.8574 -0.5126  0.2360
  178SOPE   H5X20317   3.510   2.296   9.486 -0.8904 -0.4354  1.3353
  178SOPE   H5Y20318   3.611   2.437   9.438  0.4146  0.8779  0.1478
  178SOPE   C3620319   3.403   2.471   9.392 -0.5783  0.2516  0.8875
  178SOPE   H6X20320   3.422   2.580   9.382  1.5151 -0.1880 -0.7585
  178SOPE   H6Y20321   3.307   2.464   9.447 -1.5151 -0.2414 -0.7433
  178SOPE   C3720322   3.391   2.417   9.247 -0.5117 -0.2640  0.1296
  178SOPE   H7X20323   3.290   2.437   9.207 -0.2463  0.3289 -0.2620
  178SOPE   H7Y20324   3.411   2.308   9.259  1.9161  0.2055  0.8860
  178SOPE   C3820325   3.507   2.472   9.163 -0.0284 -0.2645  1.0673
  178SOPE   H8X20326   3.602   2.422   9.190  0.6323  1.0000  1.1760
  178SOPE   H8Y20327   3.510   2.583   9.169  0.1834 -0.1862 -0.2982
  178SOPE   C3920328   3.500   2.434   9.015  0.3150 -0.7224  0.7847
  178SOPE   H9X20329   3.486   2.324   9.012 -0.7228 -0.6311  1.8098
  178SOPE   H9Y20330   3.595   2.464   8.965 -1.7516  0.3452 -2.8179
  178SOPE  C31020331   3.395   2.500   8.919 -0.4903  0.4483 -0.4241
  178SOPE  H10X20332   3.389   2.610   8.933 -1.6406  0.7116 -2.5441
  178SOPE  H10Y20333   3.297   2.452   8.943 -0.3268  0.1713 -0.3046
  178SOPE  C31120334   3.419   2.477   8.775 -0.2422 -0.1457 -0.1993
  178SOPE  H11X20335   3.388   2.372   8.757  0.1936 -0.5837  1.4080
  178SOPE  H11Y20336   3.527   2.484   8.752 -0.5215  1.4236 -1.2071
  178SOPE  C31220337   3.341   2.581   8.686 -0.2265  0.0834 -0.8962
  178SOPE  H12X20338   3.246   2.606   8.736  0.8410  1.4885  0.5349
  178SOPE  H12Y20339   3.315   2.540   8.586  2.5731 -3.6712 -0.3000
  178SOPE  C31320340   3.414   2.719   8.674 -0.4086  0.2724 -0.3829
  178SOPE  H13X20341   3.503   2.673   8.627 -1.3152 -0.3314 -1.5679
  178SOPE  H13Y20342   3.434   2.767   8.772 -1.4400 -0.6427  0.2942
  178SOPE  C31420343   3.339   2.799   8.562  0.0090 -0.5719 -0.0291
  178SOPE  H14X20344   3.242   2.840   8.598  0.3659  0.3591 -0.1098
  178SOPE  H14Y20345   3.296   2.730   8.486 -1.0567 -0.5354  0.5169
  178SOPE  C31520346   3.425   2.912   8.503  0.0550 -0.7763  0.6901
  178SOPE  H15X20347   3.455   2.986   8.580  1.6418  0.5089 -1.0969
  178SOPE  H15Y20348   3.364   2.974   8.434 -2.4910 -0.7765  2.7983
  178SOPE  C31620349   3.552   2.872   8.430 -0.3524 -0.3434 -0.9671
  178SOPE  H16X20350   3.624   2.830   8.504 -2.3804 -2.4913 -0.1014
  178SOPE  H16Y20351   3.590   2.964   8.382  2.3640 -1.2251 -0.6701
  178SOPE  C31720352   3.530   2.769   8.319  0.0001  1.1037 -0.2756
  178SOPE  H17X20353   3.480   2.682   8.368  1.8543  0.7571  1.1801
  178SOPE  H17Y20354   3.623   2.715   8.289 -0.1144  0.0366  1.1562
  178SOPE  C31820355   3.455   2.824   8.197 -0.2427 -0.5795 -0.6298
  178SOPE  H18X20356   3.352   2.849   8.228  0.2782 -1.2383  1.9313
  178SOPE  H18Y20357   3.451   2.744   8.120  0.3947 -1.3999  0.1562
  178SOPE  H18Z20358   3.508   2.915   8.161 -2.6486  1.6383  1.1296
  179SOPE     N20359   0.152   2.190   6.397 -0.6228 -0.4757 -0.1548
  179SOPE   HN120360   0.133   2.286   6.433  0.6478  0.1205 -0.9931
  179SOPE   HN220361   0.254   2.173   6.407  0.1550  2.8996 -0.9597
  179SOPE   HN320362   0.142   2.207   6.294 -0.8132  0.9878  0.0730
  179SOPE   C1220363   0.064   2.074   6.437  0.4007  0.0856 -0.7539
  179SOPE  H12A20364  -0.037   2.120   6.443 -0.4725 -1.9008  1.7670
  179SOPE  H12B20365   0.089   2.053   6.544  1.8825 -0.1545 -1.1178
  179SOPE   C1120366   0.064   1.942   6.357  0.3030 -0.4061 -0.0368
  179SOPE  H11A20367   0.023   1.953   6.254 -0.2525 -0.6500  0.1601
  179SOPE  H11B20368  -0.017   1.885   6.407 -0.2305  0.3424 -0.0313
  179SOPE     P20369   0.321   1.900   6.277 -0.0329 -0.2052  0.0174
  179SOPE   O1320370   0.366   2.044   6.287  0.9149 -0.0204  0.0950
  179SOPE   O1420371   0.276   1.846   6.147  0.1510  0.1776  0.3803
  179SOPE   O1220372   0.188   1.874   6.367 -0.3615  0.4776  0.2286
  179SOPE   O1120373   0.437   1.818   6.345  0.9774  0.4877 -0.1063
  179SOPE    C120374   0.416   1.679   6.370 -0.2544 -0.3326 -0.4303
  179SOPE    HA20375   0.492   1.623   6.311 -0.8298 -0.7400 -0.7910
  179SOPE    HB20376   0.313   1.640   6.360 -0.1777 -1.5331  2.3982
  179SOPE    C220377   0.452   1.656   6.523  0.2623  0.2967  0.0286
  179SOPE    HS20378   0.427   1.559   6.571  0.8317  0.7011  1.1942
  179SOPE   O2120379   0.387   1.764   6.594 -0.4414 -0.2685  0.1506
  179SOPE   C2120380   0.267   1.730   6.628  0.5508 -0.1066 -0.3026
  179SOPE   O2220381   0.214   1.625   6.594  0.6630 -0.1165 -0.1369
  179SOPE   C2220382   0.213   1.826   6.730 -0.2338 -0.1626 -0.0916
  179SOPE   H2R20383   0.103   1.830   6.715  0.0160  2.3407 -1.8678
  179SOPE   H2S20384   0.265   1.924   6.720  2.1783 -1.3539  0.0269
  179SOPE    C320385   0.605   1.650   6.550  0.6068  0.4174 -0.0439
  179SOPE    HX20386   0.654   1.746   6.522  1.2530  0.4709  1.1928
  179SOPE    HY20387   0.650   1.588   6.470 -0.3487 -0.0818 -0.2044
  179SOPE   O3120388   0.640   1.610   6.686  0.4705  0.9496  0.1497
  179SOPE   C3120389   0.762   1.627   6.732  0.2003 -0.5973 -0.1286
  179SOPE   O3220390   0.851   1.683   6.668  0.0682 -0.0520  0.3100
  179SOPE   C3220391   0.786   1.569   6.872 -0.2487  0.0477  0.6278
  179SOPE   H2X20392   0.868   1.494   6.860 -0.0348  0.4861 -0.7192
  179SOPE   H2Y20393   0.693   1.520   6.910 -0.2126  0.3285  1.0827
  179SOPE   C2320394   0.241   1.774   6.870 -0.3324  0.0517  0.7496
  179SOPE   H3R20395   0.200   1.671   6.882 -2.9947  0.9403  0.0517
  179SOPE   H3S20396   0.194   1.841   6.945 -2.1165 -1.0325  0.6622
  179SOPE   C2420397   0.390   1.785   6.907  0.3404 -0.1521  0.5375
  179SOPE   H4R20398   0.449   1.717   6.842 -0.3066 -1.0725  0.8884
  179SOPE   H4S20399   0.422   1.890   6.893 -1.0794  0.2445  0.1355
  179SOPE   C2520400   0.403   1.730   7.057  0.1798  0.1569  0.1512
  179SOPE   H5R20401   0.506   1.742   7.097 -0.9531 -1.5551  4.0889
  179SOPE   H5S20402   0.336   1.797   7.115 -1.6639 -1.1364 -0.3788
  179SOPE   C2620403   0.350   1.584   7.093 -0.1348 -0.5043  0.3740
  179SOPE   H6R20404   0.239   1.589   7.096 -0.0768  2.3526  0.5972
  179SOPE   H6S20405   0.381   1.516   7.011  0.2274 -0.1061  0.1745
  179SOPE   C2720406   0.392   1.532   7.228 -0.0059 -0.0355  0.6025
  179SOPE   H7R20407   0.493   1.486   7.221  0.5474  1.0887  0.9097
  179SOPE   H7S20408   0.406   1.621   7.293 -0.9748  0.7675 -0.2639
  179SOPE   C2820409   0.290   1.436   7.284 -0.2985  0.1966  0.0744
  179SOPE   H8R20410   0.248   1.371   7.204  0.0295  1.4661 -1.1613
  179SOPE   H8S20411   0.350   1.362   7.341  0.2167 -0.6745 -1.5079
  179SOPE   C2920412   0.182   1.510   7.354 -0.3930 -0.4595  0.6631
  179SOPE   H9120413   0.094   1.531   7.290 -0.7565  0.2458  1.3697
  179SOPE  C21020414   0.187   1.549   7.490  0.2425  0.1778  1.0095
  179SOPE  H10120415   0.102   1.608   7.529 -0.6414 -0.9048  0.7805
  179SOPE  C21120416   0.299   1.526   7.588 -0.0657 -0.8007 -0.2055
  179SOPE  H11R20417   0.304   1.602   7.669 -0.2611 -1.2016  0.1854
  179SOPE  H11S20418   0.397   1.528   7.536 -1.2301 -0.3003 -2.4794
  179SOPE  C21220419   0.267   1.394   7.659 -0.4050 -0.2708 -0.2506
  179SOPE  H12R20420   0.279   1.315   7.582 -2.3672 -0.9311  0.0771
  179SOPE  H12S20421   0.162   1.392   7.695 -1.2105 -2.1705 -2.4611
  179SOPE  C21320422   0.360   1.358   7.776 -0.2630  0.4771 -0.1700
  179SOPE  H13R20423   0.427   1.444   7.795 -1.3645  1.5495 -0.9914
  179SOPE  H13S20424   0.415   1.267   7.743 -0.5433  0.2057  0.0907
  179SOPE  C21420425   0.292   1.324   7.910 -0.3853 -0.0013  0.5441
  179SOPE  H14R20426   0.211   1.249   7.902  0.1238 -0.5872  0.8125
  179SOPE  H14S20427   0.246   1.419   7.944  0.0579  0.1234  0.8038
  179SOPE  C21520428   0.382   1.273   8.021 -0.2353 -0.1336 -0.3536
  179SOPE  H15R20429   0.392   1.163   8.014  1.2508 -0.2119  1.8813
  179SOPE  H15S20430   0.329   1.285   8.117  1.8312  1.7235  0.6641
  179SOPE  C21620431   0.515   1.342   8.021 -0.1839 -0.4199 -0.6311
  179SOPE  H16R20432   0.505   1.444   7.978 -0.3064  1.2863  3.0413
  179SOPE  H16S20433   0.584   1.280   7.961 -2.0688 -1.5504 -1.7428
  179SOPE  C21720434   0.575   1.382   8.155 -0.5348  0.3697 -0.2653
  179SOPE  H17R20435   0.568   1.291   8.217 -3.2901 -0.2187 -1.2803
  179SOPE  H17S20436   0.525   1.465   8.210 -0.2220 -0.5835  1.5240
  179SOPE  C21820437   0.732   1.405   8.146  1.0677  0.3146  0.2006
  179SOPE  H18R20438   0.785   1.308   8.142 -1.6414 -1.2148 -1.3088
  179SOPE  H18S20439   0.757   1.452   8.244 -0.1686 -1.2736  1.3188
  179SOPE  H18T20440   0.767   1.473   8.065 -1.5116  2.0558  0.4465
  179SOPE   C3320441   0.828   1.674   6.969  0.7192 -0.2433 -0.4428
  179SOPE   H3X20442   0.763   1.764   6.964  0.7734  0.1602  3.1450
  179SOPE   H3Y20443   0.937   1.697   6.963  0.8457 -0.0450  1.6186
  179SOPE   C3420444   0.779   1.619   7.106  0.2513 -0.0922  0.4051
  179SOPE   H4X20445   0.817   1.516   7.122  1.6820  0.5122  1.0979
  179SOPE   H4Y20446   0.668   1.625   7.110  0.2217 -0.7996  0.7760
  179SOPE   C3520447   0.854   1.697   7.217 -0.0561 -0.0057 -0.0633
  179SOPE   H5X20448   0.870   1.804   7.189 -2.7510  0.8324  1.2970
  179SOPE   H5Y20449   0.954   1.658   7.246  0.2296 -0.5431 -1.6513
  179SOPE   C3620450   0.774   1.708   7.346 -0.5080  0.2162 -0.2819
  179SOPE   H6X20451   0.685   1.773   7.332 -1.4236 -0.9678 -0.1971
  179SOPE   H6Y20452   0.846   1.769   7.406 -0.7759  0.3030 -0.0457
  179SOPE   C3720453   0.749   1.566   7.394 -0.2722  0.0134  0.2735
  179SOPE   H7X20454   0.842   1.505   7.401 -0.2755 -0.2288 -1.4118
  179SOPE   H7Y20455   0.686   1.510   7.321 -0.8507 -0.9368  1.4652
  179SOPE   C3820456   0.676   1.571   7.530  0.3870 -0.5697  0.1569
  179SOPE   H8X20457   0.646   1.467   7.558 -1.7495  0.2677  1.1918
  179SOPE   H8Y20458   0.580   1.623   7.510 -0.2540 -1.9145 -0.4307
  179SOPE   C3920459   0.749   1.648   7.638  0.4225  0.1612 -0.1494
  179SOPE   H9X20460   0.687   1.629   7.728 -1.3998 -3.1182 -1.9165
  179SOPE   H9Y20461   0.766   1.756   7.616  3.4680 -0.3077 -0.5653
  179SOPE  C31020462   0.885   1.584   7.664  0.3639 -0.4322  0.4268
  179SOPE  H10X20463   0.943   1.608   7.573  0.4770  1.2126  0.8919
  179SOPE  H10Y20464   0.875   1.475   7.678  0.4629 -0.7837 -1.9392
  179SOPE  C31120465   0.955   1.653   7.781  0.4204  0.5134  0.2436
  179SOPE  H11X20466   0.883   1.669   7.863 -0.9937  0.3707 -0.9286
  179SOPE  H11Y20467   0.974   1.757   7.746  0.3536  0.7942  1.0311
  179SOPE  C31220468   1.078   1.578   7.835  0.4973 -0.2343  0.1486
  179SOPE  H12X20469   1.166   1.608   7.774 -1.8666  1.8744 -2.4498
  179SOPE  H12Y20470   1.061   1.470   7.811  1.3459 -1.2107  3.4069
  179SOPE  C31320471   1.094   1.590   7.984  0.2666  0.0362  0.0800
  179SOPE  H13X20472   1.006   1.553   8.040 -0.1413  0.9905  0.0777
  179SOPE  H13Y20473   1.109   1.698   8.007  0.0536 -0.2425  1.6067
  179SOPE  C31420474   1.227   1.528   8.036  0.7282  0.6566 -0.3293
  179SOPE  H14X20475   1.316   1.553   7.975  1.9679 -0.4999  0.9368
  179SOPE  H14Y20476   1.209   1.420   8.018 -1.7994  0.9776 -0.2033
  179SOPE  C31520477   1.244   1.535   8.187 -0.8576 -0.6923  0.3744
  179SOPE  H15X20478   1.164   1.487   8.247  1.1010 -1.6981  2.3576
  179SOPE  H15Y20479   1.239   1.642   8.216 -3.1493 -0.3545 -1.0043
  179SOPE  C31620480   1.371   1.466   8.238  0.7871  0.7546 -0.4368
  179SOPE  H16X20481   1.454   1.537   8.216  0.5339  0.2610 -3.4127
  179SOPE  H16Y20482   1.399   1.379   8.176 -1.5081  0.1640 -0.7551
  179SOPE  C31720483   1.372   1.422   8.385  0.1392  0.0756 -0.3732
  179SOPE  H17X20484   1.469   1.372   8.406  0.4874 -0.4339 -2.8739
  179SOPE  H17Y20485   1.307   1.332   8.391  1.5252 -0.9870 -0.7628
  179SOPE  C31820486   1.345   1.533   8.480 -0.6787 -0.2618  0.3341
  179SOPE  H18X20487   1.387   1.497   8.576  3.4265 -1.6336 -1.7258
  179SOPE  H18Y20488   1.235   1.547   8.486 -0.4709  1.1520  1.5315
  179SOPE  H18Z20489   1.382   1.631   8.443 -1.3248 -0.1677 -0.0895
  180SOPE     N20490   1.155   2.007   6.281  0.0658 -0.6860 -0.4828
  180SOPE   HN120491   1.059   1.976   6.253 -0.3464 -0.5636  0.7204
  180SOPE   HN220492   1.216   1.924   6.268  1.5311 -0.2389  2.7046
  180SOPE   HN320493   1.150   2.041   6.379  2.2735 -1.2949 -0.1206
  180SOPE   C1220494   1.187   2.115   6.187 -0.4057  0.1985  0.1649
  180SOPE  H12A20495   1.204   2.059   6.093  1.4198 -2.4975  1.9593
  180SOPE  H12B20496   1.271   2.174   6.228 -1.8409  0.5420  2.8716
  180SOPE   C1120497   1.058   2.206   6.179 -0.5025  0.2777  0.2295
  180SOPE  H11A20498   1.073   2.289   6.108  0.1838  1.5231  1.7608
  180SOPE  H11B20499   1.060   2.259   6.277 -0.2646 -0.2606  0.5234
  180SOPE     P20500   0.804   2.226   6.152 -0.5186 -0.0529  0.1481
  180SOPE   O1320501   0.686   2.149   6.110  0.4196 -0.1677 -0.5484
  180SOPE   O1420502   0.836   2.346   6.068  0.4202  0.0288 -0.2009
  180SOPE   O1220503   0.930   2.143   6.169  0.1214  0.8998 -0.1932
  180SOPE   O1120504   0.789   2.279   6.302  0.2590 -0.8288 -0.2812
  180SOPE    C120505   0.783   2.190   6.415  0.5594  0.2183 -0.4737
  180SOPE    HA20506   0.858   2.229   6.486  0.4577  1.2169 -0.8958
  180SOPE    HB20507   0.814   2.088   6.386 -0.7027  0.0153 -1.2000
  180SOPE    C220508   0.638   2.190   6.475  0.1048  0.1937 -0.3970
  180SOPE    HS20509   0.564   2.173   6.395  0.6776  0.0205 -0.9001
  180SOPE   O2120510   0.613   2.319   6.533 -0.2992 -0.0202  0.3843
  180SOPE   C2120511   0.489   2.353   6.555 -0.4068  1.1632 -0.5212
  180SOPE   O2220512   0.386   2.287   6.544 -0.2117  0.1263  0.0663
  180SOPE   C2220513   0.490   2.501   6.610  0.0459  0.1138  0.5464
  180SOPE   H2R20514   0.433   2.557   6.532 -0.1185 -1.1331 -0.2639
  180SOPE   H2S20515   0.596   2.532   6.615  0.5680 -1.5810  0.3344
  180SOPE    C320516   0.611   2.075   6.581 -0.1150  0.1414  0.0024
  180SOPE    HX20517   0.625   1.979   6.527 -0.4315  1.6089 -2.8639
  180SOPE    HY20518   0.503   2.080   6.606  0.0351 -2.3490  1.4408
  180SOPE   O3120519   0.706   2.092   6.689  0.1651 -1.0790  0.0574
  180SOPE   C3120520   0.655   2.158   6.796  0.2491  0.0321 -0.2974
  180SOPE   O3220521   0.537   2.188   6.811  0.3541 -0.4231 -0.1809
  180SOPE   C3220522   0.764   2.189   6.899  0.1630  0.2377  0.1849
  180SOPE   H2X20523   0.802   2.291   6.877 -1.1520  0.6360 -0.3842
  180SOPE   H2Y20524   0.840   2.110   6.888 -0.4338 -0.2872 -0.2456
  180SOPE   C2320525   0.430   2.515   6.750  0.0460 -0.0853 -0.1347
  180SOPE   H3R20526   0.499   2.467   6.823 -0.4501  1.7559  1.6204
  180SOPE   H3S20527   0.340   2.449   6.754  1.0853 -1.6977 -1.5773
  180SOPE   C2420528   0.403   2.658   6.806 -0.6928  1.3572 -0.2990
  180SOPE   H4R20529   0.493   2.715   6.774  2.4126 -2.4449  0.8624
  180SOPE   H4S20530   0.315   2.701   6.755 -1.2912  0.2138 -0.2606
  180SOPE   C2520531   0.390   2.661   6.956  0.3435  1.0167  0.3724
  180SOPE   H5R20532   0.357   2.762   6.987 -0.6112  0.7867  0.1365
  180SOPE   H5S20533   0.298   2.603   6.982  0.6420 -0.9603 -2.4887
  180SOPE   C2620534   0.504   2.599   7.041 -0.1934  0.0928 -0.7273
  180SOPE   H6R20535   0.500   2.633   7.147  1.4937  1.2793 -1.0014
  180SOPE   H6S20536   0.505   2.488   7.044  0.5627  0.1143  1.3776
  180SOPE   C2720537   0.645   2.660   7.002  0.2297  0.3580  0.0728
  180SOPE   H7R20538   0.678   2.608   6.910  0.4820 -0.2395  0.4922
  180SOPE   H7S20539   0.631   2.767   6.979 -0.9886  0.4922  1.3076
  180SOPE   C2820540   0.756   2.625   7.108  0.3226 -0.5523 -1.6918
  180SOPE   H8R20541   0.752   2.517   7.133  1.9896  0.3532  4.0204
  180SOPE   H8S20542   0.858   2.645   7.070  1.4758  0.1671  1.4807
  180SOPE   C2920543   0.737   2.705   7.235  0.1865  0.2753  0.1880
  180SOPE   H9120544   0.784   2.805   7.233  0.9779 -0.0614  1.2942
  180SOPE  C21020545   0.683   2.656   7.349  0.5109 -0.3433 -0.2573
  180SOPE  H10120546   0.695   2.723   7.435  1.6135 -1.1314  0.2398
  180SOPE  C21120547   0.617   2.518   7.365 -0.8730 -0.5341 -0.8373
  180SOPE  H11R20548   0.676   2.439   7.312  1.1953  0.0211  0.5217
  180SOPE  H11S20549   0.509   2.518   7.340 -0.9629  1.1191 -0.5226
  180SOPE  C21220550   0.606   2.474   7.519  0.5461  0.2212 -0.0610
  180SOPE  H12R20551   0.706   2.471   7.567 -0.0262  2.4446  1.4688
  180SOPE  H12S20552   0.566   2.371   7.518 -0.2566  0.5017 -2.4966
  180SOPE  C21320553   0.528   2.586   7.602  0.2611  0.0876 -0.4417
  180SOPE  H13R20554   0.442   2.610   7.536 -0.4900 -1.2981 -0.0040
  180SOPE  H13S20555   0.577   2.683   7.624  1.5280 -0.4522 -0.7993
  180SOPE  C21420556   0.462   2.537   7.738  0.3752 -0.8899 -0.4637
  180SOPE  H14R20557   0.369   2.477   7.726 -1.2356  0.9691  1.6260
  180SOPE  H14S20558   0.427   2.629   7.790  0.6953 -0.7969 -0.4136
  180SOPE  C21520559   0.568   2.471   7.826 -0.5736  0.0600  0.2513
  180SOPE  H15R20560   0.661   2.530   7.843  1.8410 -3.0731 -1.1058
  180SOPE  H15S20561   0.595   2.389   7.756  1.6192  0.9382 -0.0249
  180SOPE  C21620562   0.521   2.432   7.961 -0.0843  0.5099 -0.1117
  180SOPE  H16R20563   0.592   2.353   7.994 -0.1464  0.9072  1.0089
  180SOPE  H16S20564   0.417   2.395   7.949  0.4192 -0.6313 -1.2526
  180SOPE  C21720565   0.509   2.546   8.064  0.4803  0.4522 -0.4778
  180SOPE  H17R20566   0.458   2.631   8.014 -1.1154 -2.5080 -4.3439
  180SOPE  H17S20567   0.606   2.574   8.111 -1.0015 -0.1434  3.2805
  180SOPE  C21820568   0.431   2.500   8.191 -0.0514  0.3410  0.5597
  180SOPE  H18R20569   0.393   2.585   8.251  0.4110 -0.9422  2.7689
  180SOPE  H18S20570   0.485   2.434   8.262 -1.0249 -0.5948  0.4597
  180SOPE  H18T20571   0.339   2.450   8.154  0.7466 -1.2339  0.6384
  180SOPE   C3320572   0.718   2.181   7.052 -1.0150  0.6106  0.5079
  180SOPE   H3X20573   0.633   2.250   7.072 -0.7505  1.3815 -0.8512
  180SOPE   H3Y20574   0.802   2.225   7.111  0.1390 -0.0701 -0.5860
  180SOPE   C3420575   0.661   2.039   7.090  0.0921  0.2056 -0.5468
  180SOPE   H4X20576   0.727   1.954   7.063  0.4160 -0.0164  0.8832
  180SOPE   H4Y20577   0.565   2.033   7.034 -1.0832 -0.4120  1.4489
  180SOPE   C3520578   0.629   2.035   7.242 -0.4841  0.2482 -0.3896
  180SOPE   H5X20579   0.574   1.941   7.265  0.3064 -0.2890 -0.6510
  180SOPE   H5Y20580   0.554   2.112   7.270 -1.8970 -1.9218  2.2811
  180SOPE   C3620581   0.756   2.074   7.331 -0.0414  0.6226  0.0426
  180SOPE   H6X20582   0.796   2.176   7.310  2.1178  0.2487  1.9870
  180SOPE   H6Y20583   0.849   2.018   7.311  0.0503 -0.1784  2.4492
  180SOPE   C3720584   0.726   2.054   7.483 -0.8400  0.2363 -0.4899
  180SOPE   H7X20585   0.700   1.947   7.501 -0.0888  0.0773 -0.3044
  180SOPE   H7Y20586   0.634   2.106   7.518 -0.8272 -0.8129  1.2259
  180SOPE   C3820587   0.840   2.089   7.578 -0.0774  1.1330 -0.6949
  180SOPE   H8X20588   0.869   2.195   7.565  0.5246  0.9768 -0.6948
  180SOPE   H8Y20589   0.928   2.025   7.554 -0.6108 -0.1412  0.6136
  180SOPE   C3920590   0.815   2.054   7.722 -0.3820  0.2428 -0.3816
  180SOPE   H9X20591   0.774   1.952   7.735 -0.7997  0.4978  0.4745
  180SOPE   H9Y20592   0.744   2.131   7.760  0.3057  1.9397 -2.3727
  180SOPE  C31020593   0.937   2.048   7.810 -0.2254 -0.1415  0.1086
  180SOPE  H10X20594   1.005   2.134   7.792 -0.5843  0.1755  0.2524
  180SOPE  H10Y20595   0.999   1.960   7.784 -0.8806  0.1391 -2.7224
  180SOPE  C31120596   0.898   2.030   7.959 -0.0135 -0.0640  0.7975
  180SOPE  H11X20597   0.995   2.005   8.008  2.7032  5.2423 -1.0161
  180SOPE  H11Y20598   0.832   1.942   7.978 -0.4201  0.3086  1.1183
  180SOPE  C31220599   0.817   2.146   8.025 -0.3453 -0.9068  0.1604
  180SOPE  H12X20600   0.709   2.130   8.001 -0.1722  0.4402 -1.6702
  180SOPE  H12Y20601   0.844   2.242   7.977 -0.1571 -1.1284 -0.1782
  180SOPE  C31320602   0.838   2.162   8.172 -0.2629  0.3230 -0.1233
  180SOPE  H13X20603   0.948   2.156   8.190 -0.2645 -0.2061 -0.2994
  180SOPE  H13Y20604   0.801   2.074   8.229 -0.8875  0.6674  0.0149
  180SOPE  C31420605   0.779   2.292   8.223  0.2847  0.8878 -1.0246
  180SOPE  H14X20606   0.668   2.278   8.226  0.5746 -1.8327 -0.1237
  180SOPE  H14Y20607   0.804   2.378   8.158 -0.6491  1.5259 -0.5650
  180SOPE  C31520608   0.833   2.322   8.359  0.3514 -0.5285 -0.0561
  180SOPE  H15X20609   0.941   2.298   8.353  0.7313  0.9497  0.4774
  180SOPE  H15Y20610   0.788   2.254   8.435 -0.3208 -1.6631 -1.4158
  180SOPE  C31620611   0.804   2.468   8.391 -0.2846 -0.7526 -0.2837
  180SOPE  H16X20612   0.696   2.484   8.373  0.0441  1.7199 -0.4227
  180SOPE  H16Y20613   0.865   2.520   8.313  0.5905 -1.8238 -0.3510
  180SOPE  C31720614   0.844   2.517   8.524 -0.7184  0.0351  0.1725
  180SOPE  H17X20615   0.937   2.467   8.559 -0.5453 -0.1445 -0.5349
  180SOPE  H17Y20616   0.766   2.485   8.597 -1.5094  0.5654 -0.4280
  180SOPE  C31820617   0.870   2.669   8.531 -0.0177 -0.2273  0.0872
  180SOPE  H18X20618   0.912   2.689   8.632  1.4147  1.5251 -0.7941
  180SOPE  H18Y20619   0.780   2.731   8.517  0.6281  1.2014  1.7873
  180SOPE  H18Z20620   0.946   2.705   8.459 -1.8136  2.5738 -0.5548
  181SOPE     N20621   3.334   6.764   5.915  0.5983 -0.2030  0.0005
  181SOPE   HN120622   3.404   6.688   5.929  0.0609 -0.4786  1.3446
  181SOPE   HN220623   3.270   6.731   5.840  0.9335  0.1431 -0.4418
  181SOPE   HN320624   3.386   6.846   5.880  1.3388 -0.8361 -0.4175
  181SOPE   C1220625   3.257   6.796   6.043  0.4176 -0.3527  0.4358
  181SOPE  H12A20626   3.313   6.863   6.111 -0.5524  0.1257  0.7798
  181SOPE  H12B20627   3.233   6.700   6.093 -1.5576  0.3251  0.8706
  181SOPE   C1120628   3.111   6.852   6.004  0.0736  0.9424 -0.8678
  181SOPE  H11A20629   3.119   6.944   5.942 -0.4085  1.1340 -0.6484
  181SOPE  H11B20630   3.060   6.873   6.100  0.6185 -1.0877 -0.0750
  181SOPE     P20631   2.949   6.639   6.004  0.0454  0.4044 -0.4063
  181SOPE   O1320632   3.050   6.544   6.055  0.0815 -0.0448 -0.1042
  181SOPE   O1420633   2.846   6.590   5.912 -0.3240 -0.0012  0.6278
  181SOPE   O1220634   3.033   6.756   5.928 -0.0941  1.0563 -0.2640
  181SOPE   O1120635   2.889   6.710   6.125  0.8193  0.3096 -0.2726
  181SOPE    C120636   2.752   6.664   6.173  0.3818 -1.2575 -0.1717
  181SOPE    HA20637   2.736   6.556   6.155 -0.4897 -1.2214  0.3301
  181SOPE    HB20638   2.674   6.715   6.111 -1.6003 -0.8039  2.5057
  181SOPE    C220639   2.720   6.692   6.328  0.4692 -0.0043 -0.6124
  181SOPE    HS20640   2.629   6.638   6.361  0.7587  0.8871  1.8185
  181SOPE   O2120641   2.723   6.839   6.353  0.0868 -0.6160 -0.1473
  181SOPE   C2120642   2.618   6.904   6.299 -0.7064  0.0257 -0.0012
  181SOPE   O2220643   2.527   6.847   6.241 -0.6358  0.4288 -0.1926
  181SOPE   C2220644   2.643   7.053   6.305  0.0044 -0.2042  0.5393
  181SOPE   H2R20645   2.587   7.103   6.223  0.2071  1.8118  1.5539
  181SOPE   H2S20646   2.754   7.062   6.297 -0.0089 -1.2190 -0.9607
  181SOPE    C320647   2.839   6.629   6.415  0.1550 -0.4809  0.6242
  181SOPE    HX20648   2.927   6.686   6.379 -0.2721 -0.7033 -0.8872
  181SOPE    HY20649   2.855   6.525   6.379  0.7544 -0.1376 -0.1305
  181SOPE   O3120650   2.815   6.648   6.551 -0.1357 -0.2661  0.3824
  181SOPE   C3120651   2.742   6.549   6.609  0.0443  0.0337  0.9483
  181SOPE   O3220652   2.722   6.441   6.560  0.3506  0.4629 -0.1825
  181SOPE   C3220653   2.685   6.593   6.747 -0.0023  0.0154 -0.0197
  181SOPE   H2X20654   2.582   6.622   6.720  0.0728 -1.5813 -2.2901
  181SOPE   H2Y20655   2.745   6.680   6.782  0.9075 -1.0585  1.1951
  181SOPE   C2320656   2.588   7.107   6.440  0.1570 -0.2441 -0.6726
  181SOPE   H3R20657   2.483   7.073   6.456  0.4814 -1.3393 -0.7743
  181SOPE   H3S20658   2.599   7.217   6.430 -1.8329  0.1647  1.0565
  181SOPE   C2420659   2.670   7.046   6.557  0.3966  0.0576  0.1079
  181SOPE   H4R20660   2.651   6.937   6.568  0.9079  0.0674  1.1254
  181SOPE   H4S20661   2.777   7.070   6.544  0.3307  0.9367  1.0911
  181SOPE   C2520662   2.624   7.109   6.697 -0.3792 -0.1850  0.3131
  181SOPE   H5R20663   2.648   7.218   6.695  2.8061 -0.7827  0.7625
  181SOPE   H5S20664   2.514   7.097   6.706 -0.6393  1.3227 -0.5315
  181SOPE   C2620665   2.697   7.055   6.820 -0.8371  0.1284 -0.3729
  181SOPE   H6R20666   2.648   6.957   6.839  0.5081 -0.5526 -0.3166
  181SOPE   H6S20667   2.804   7.035   6.798 -0.5069  1.1552  0.2179
  181SOPE   C2720668   2.677   7.146   6.939 -0.0802 -0.8061 -0.4142
  181SOPE   H7R20669   2.727   7.241   6.911 -0.4085 -0.2586  0.8005
  181SOPE   H7S20670   2.570   7.172   6.954  0.2100  2.2450 -2.7271
  181SOPE   C2820671   2.738   7.093   7.072  0.1583 -0.0324 -0.2520
  181SOPE   H8R20672   2.847   7.070   7.065 -0.0478 -2.2263  2.1830
  181SOPE   H8S20673   2.728   7.181   7.139 -3.3671 -0.8781  0.5102
  181SOPE   C2920674   2.668   6.974   7.114 -0.4996  0.1318 -0.1638
  181SOPE   H9120675   2.691   6.880   7.062 -0.4011 -0.4879  0.9798
  181SOPE  C21020676   2.573   6.965   7.215 -0.4064  0.1972  0.0623
  181SOPE  H10120677   2.519   6.870   7.227 -0.1409 -0.0356 -0.5819
  181SOPE  C21120678   2.532   7.080   7.310  0.0466  0.0538  0.1894
  181SOPE  H11R20679   2.435   7.130   7.290  0.6561  2.2370  2.2448
  181SOPE  H11S20680   2.608   7.161   7.312 -0.1502  0.2319  0.8646
  181SOPE  C21220681   2.525   7.035   7.460 -0.3662 -1.0429  0.1198
  181SOPE  H12R20682   2.608   6.964   7.482 -1.3702 -3.6884 -3.6407
  181SOPE  H12S20683   2.439   6.965   7.469 -2.8492  1.9494  1.5231
  181SOPE  C21320684   2.514   7.154   7.556 -0.3188 -0.0575 -0.6654
  181SOPE  H13R20685   2.430   7.222   7.531 -0.7192 -0.6424 -0.9462
  181SOPE  H13S20686   2.601   7.220   7.536 -1.6473  1.9172 -0.2315
  181SOPE  C21420687   2.513   7.112   7.699 -0.1615  0.3719 -0.4118
  181SOPE  H14R20688   2.529   7.202   7.762  1.7844  0.6345 -1.2373
  181SOPE  H14S20689   2.598   7.046   7.727 -0.4957 -0.0531 -0.3893
  181SOPE  C21520690   2.377   7.047   7.738 -0.2165 -0.5253  0.3783
  181SOPE  H15R20691   2.380   6.942   7.701 -0.6441 -0.9420  1.5092
  181SOPE  H15S20692   2.291   7.107   7.704 -1.6029 -2.1192  0.9207
  181SOPE  C21620693   2.353   7.041   7.889  0.0974 -1.2364  0.4655
  181SOPE  H16R20694   2.342   7.148   7.916  0.0574 -1.6367  2.1849
  181SOPE  H16S20695   2.437   6.998   7.947  1.6258 -0.1629 -0.8957
  181SOPE  C21720696   2.220   6.964   7.903  0.3172 -0.0674 -0.4398
  181SOPE  H17R20697   2.219   6.860   7.866 -0.3083  0.8952 -3.3392
  181SOPE  H17S20698   2.139   7.001   7.836  0.3195  0.0007 -0.4053
  181SOPE  C21820699   2.167   6.969   8.048 -0.4369 -0.7060  0.1965
  181SOPE  H18R20700   2.229   6.906   8.116  1.6465  1.5242  0.5123
  181SOPE  H18S20701   2.056   6.968   8.045 -0.5046  1.7830 -0.6066
  181SOPE  H18T20702   2.179   7.070   8.092 -1.1067  1.1224 -3.4285
  181SOPE   C3320703   2.688   6.477   6.848  0.0005 -0.0807 -0.2724
  181SOPE   H3X20704   2.792   6.446   6.873 -0.2796  1.5638  3.5849
  181SOPE   H3Y20705   2.627   6.390   6.816 -0.9118  0.4593 -0.0283
  181SOPE   C3420706   2.627   6.525   6.982 -0.1420  0.1177 -0.6710
  181SOPE   H4X20707   2.522   6.561   6.990  0.0912  0.4767  1.0159
  181SOPE   H4Y20708   2.684   6.617   7.007 -0.0876 -0.3659  1.0765
  181SOPE   C3520709   2.626   6.420   7.096 -0.2244 -0.1441  0.2591
  181SOPE   H5X20710   2.731   6.396   7.124 -0.0823  1.0786  0.8602
  181SOPE   H5Y20711   2.566   6.338   7.051  1.6163 -0.1195 -2.5154
  181SOPE   C3620712   2.549   6.473   7.220 -0.9124 -0.1025  0.0628
  181SOPE   H6X20713   2.538   6.390   7.293  0.1125 -0.0564  0.2850
  181SOPE   H6Y20714   2.444   6.495   7.192 -0.1843  2.2116 -1.0893
  181SOPE   C3720715   2.627   6.591   7.285  0.1861  0.9115 -0.6040
  181SOPE   H7X20716   2.618   6.683   7.223  2.1088  1.9332  0.5433
  181SOPE   H7Y20717   2.737   6.581   7.287  0.2051  1.1752 -0.3478
  181SOPE   C3820718   2.544   6.640   7.410  0.1961  0.1926  0.0915
  181SOPE   H8X20719   2.435   6.637   7.392 -0.2170 -0.1401  2.3325
  181SOPE   H8Y20720   2.569   6.748   7.416  0.9059  0.1194 -1.0902
  181SOPE   C3920721   2.578   6.556   7.534 -0.7864 -0.2863 -1.0841
  181SOPE   H9X20722   2.684   6.574   7.562 -0.3666 -3.1796 -0.4915
  181SOPE   H9Y20723   2.554   6.450   7.511  0.5159 -0.5106 -1.4993
  181SOPE  C31020724   2.494   6.600   7.652 -0.4368  0.0447 -0.6167
  181SOPE  H10X20725   2.388   6.594   7.621  0.4179 -0.2730 -3.7803
  181SOPE  H10Y20726   2.511   6.708   7.674 -1.6210  0.3044 -0.9469
  181SOPE  C31120727   2.532   6.526   7.781 -0.5122  0.3246  0.3225
  181SOPE  H11X20728   2.641   6.540   7.801 -0.0301 -0.1993 -1.7174
  181SOPE  H11Y20729   2.513   6.418   7.769 -0.2971  0.3568 -0.3389
  181SOPE  C31220730   2.453   6.581   7.902  0.7311  0.1482 -0.4201
  181SOPE  H12X20731   2.347   6.573   7.871  0.9979  1.9930 -1.9972
  181SOPE  H12Y20732   2.487   6.684   7.927  0.6980  0.6094 -2.1633
  181SOPE  C31320733   2.478   6.490   8.017  0.0337  0.1639 -0.1295
  181SOPE  H13X20734   2.488   6.388   7.976 -1.0485  0.0318 -0.1025
  181SOPE  H13Y20735   2.387   6.497   8.081  0.0679  0.9559 -0.1561
  181SOPE  C31420736   2.592   6.513   8.121 -0.4972  0.7908  0.3703
  181SOPE  H14X20737   2.584   6.618   8.155  2.7378  0.9927  0.7818
  181SOPE  H14Y20738   2.685   6.499   8.062 -0.7704  1.1589 -0.1527
  181SOPE  C31520739   2.599   6.403   8.233 -0.2118  0.3066  0.5033
  181SOPE  H15X20740   2.602   6.307   8.177  0.9131  0.6365 -0.0218
  181SOPE  H15Y20741   2.503   6.406   8.289  0.4197 -0.3782  1.6744
  181SOPE  C31620742   2.718   6.421   8.327  1.0050 -0.5350  0.0256
  181SOPE  H16X20743   2.719   6.519   8.380 -2.5115  0.0564 -0.7555
  181SOPE  H16Y20744   2.809   6.413   8.263 -0.4246 -3.9230 -1.8578
  181SOPE  C31720745   2.714   6.312   8.437 -0.0943 -0.7333  0.4717
  181SOPE  H17X20746   2.607   6.308   8.469 -0.1844  1.2957  0.5235
  181SOPE  H17Y20747   2.770   6.361   8.518 -0.0942 -0.4860  0.3238
  181SOPE  C31820748   2.752   6.168   8.399 -0.0980 -0.3235 -0.6800
  181SOPE  H18X20749   2.760   6.104   8.490 -3.4838  0.2774  0.1487
  181SOPE  H18Y20750   2.855   6.168   8.358  0.4255  1.5361  0.5310
  181SOPE  H18Z20751   2.690   6.119   8.321 -0.0408  1.0323 -1.6056
  182SOPE     N20752   6.087   6.472   6.318  0.1225  0.3994  0.6367
  182SOPE   HN120753   6.111   6.573   6.312  2.5615 -0.1556  0.2829
  182SOPE   HN220754   5.983   6.477   6.326  0.1064 -1.2784  2.0973
  182SOPE   HN320755   6.116   6.427   6.408  1.2567 -0.8754 -0.3239
  182SOPE   C1220756   6.124   6.389   6.198  0.7394  0.1856 -0.3494
  182SOPE  H12A20757   6.052   6.407   6.114  0.4396  1.6040  0.1843
  182SOPE  H12B20758   6.113   6.283   6.228 -0.5943  0.5676  0.6091
  182SOPE   C1120759   6.268   6.395   6.158  0.0568  0.1202 -0.4263
  182SOPE  H11A20760   6.271   6.320   6.076 -0.4215 -0.0008 -0.3361
  182SOPE  H11B20761   6.340   6.355   6.233  0.2970 -0.9526 -1.2041
  182SOPE     P20762   6.379   6.634   6.190  0.2491 -0.0383  0.2508
  182SOPE   O1320763   6.322   6.767   6.161 -0.4769  0.8727  0.4045
  182SOPE   O1420764   6.524   6.616   6.152  0.4433  0.4046  0.5681
  182SOPE   O1220765   6.304   6.527   6.105 -0.1983  0.5124  0.0667
  182SOPE   O1120766   6.359   6.590   6.335  0.1903  0.6637 -0.1412
  182SOPE    C120767   6.461   6.545   6.425  0.1065  0.3696  0.0162
  182SOPE    HA20768   6.560   6.533   6.375 -0.3143  2.2222 -1.3557
  182SOPE    HB20769   6.447   6.442   6.465  0.6078  1.0846  2.2265
  182SOPE    C220770   6.474   6.620   6.560 -0.1622 -0.0268  0.2360
  182SOPE    HS20771   6.518   6.552   6.637 -1.4993 -0.7656  0.3948
  182SOPE   O2120772   6.355   6.684   6.610 -0.0841 -0.1253 -0.3888
  182SOPE   C2120773   6.281   6.609   6.686  0.6885 -0.5774 -0.2365
  182SOPE   O2220774   6.307   6.492   6.713 -0.2601  0.1431 -0.3847
  182SOPE   C2220775   6.163   6.691   6.727  0.2179  0.1266 -0.7241
  182SOPE   H2R20776   6.096   6.621   6.781 -1.9607  1.3647 -1.6726
  182SOPE   H2S20777   6.106   6.727   6.639  0.1063  1.4779 -0.1135
  182SOPE    C320778   6.586   6.731   6.539  0.8618 -0.4306  0.1490
  182SOPE    HX20779   6.531   6.792   6.463 -0.9862 -0.3374  1.4786
  182SOPE    HY20780   6.675   6.692   6.486 -0.8599 -1.0813 -2.4785
  182SOPE   O3120781   6.619   6.803   6.669 -0.4161 -0.5626  0.9153
  182SOPE   C3120782   6.694   6.727   6.744  0.6783 -0.4335  0.3449
  182SOPE   O3220783   6.765   6.631   6.713 -0.1075  0.4568  0.3268
  182SOPE   C3220784   6.682   6.769   6.891 -0.0474 -0.6741 -0.5388
  182SOPE   H2X20785   6.572   6.771   6.903  0.0757 -0.2669  0.5878
  182SOPE   H2Y20786   6.725   6.872   6.889 -0.1832 -0.6189 -0.6192
  182SOPE   C2320787   6.204   6.812   6.814 -0.2036  0.1318  0.0879
  182SOPE   H3R20788   6.111   6.872   6.826 -0.6965 -0.8498  1.5575
  182SOPE   H3S20789   6.273   6.881   6.762 -2.8065  2.8863  0.0227
  182SOPE   C2420790   6.273   6.785   6.947  0.1511 -0.1230  0.6107
  182SOPE   H4R20791   6.370   6.730   6.942 -0.6376 -1.4305 -2.6513
  182SOPE   H4S20792   6.272   6.883   6.999  1.2353  0.0919  0.2550
  182SOPE   C2520793   6.189   6.684   7.039 -1.0464 -0.9752 -0.0375
  182SOPE   H5R20794   6.086   6.716   7.063 -1.5113 -1.1055 -1.7934
  182SOPE   H5S20795   6.175   6.586   6.989 -0.0616 -0.4736 -1.3415
  182SOPE   C2620796   6.268   6.638   7.166  0.0776 -0.8966 -0.4336
  182SOPE   H6R20797   6.207   6.572   7.231 -1.0874  1.5211  1.0331
  182SOPE   H6S20798   6.356   6.587   7.122 -0.0676  1.0170 -3.1866
  182SOPE   C2720799   6.313   6.747   7.261 -1.2252  0.1179 -0.6959
  182SOPE   H7R20800   6.351   6.833   7.201 -2.3567 -0.3913 -2.2070
  182SOPE   H7S20801   6.227   6.795   7.312 -0.6520  1.3562 -0.8309
  182SOPE   C2820802   6.417   6.708   7.364 -0.9640  0.1359 -0.0851
  182SOPE   H8R20803   6.496   6.646   7.315 -1.1067 -0.7848  0.8199
  182SOPE   H8S20804   6.474   6.797   7.399 -0.5838  0.7348 -2.1110
  182SOPE   C2920805   6.358   6.612   7.462 -0.1201  0.1993 -0.2104
  182SOPE   H9120806   6.296   6.531   7.420  1.2860  0.0167 -2.0608
  182SOPE  C21020807   6.367   6.615   7.597 -0.3264 -0.2796  0.0434
  182SOPE  H10120808   6.315   6.538   7.656 -0.5779 -1.1759 -1.3074
  182SOPE  C21120809   6.440   6.722   7.678  0.1445 -0.3608 -0.5357
  182SOPE  H11R20810   6.520   6.772   7.620  0.5572 -0.8947 -0.4457
  182SOPE  H11S20811   6.482   6.685   7.775 -4.2912  2.4700  2.8385
  182SOPE  C21220812   6.332   6.817   7.725  0.8204 -0.1606 -0.4997
  182SOPE  H12R20813   6.250   6.757   7.771  0.4606  0.9669  0.3737
  182SOPE  H12S20814   6.281   6.871   7.643 -2.2557 -0.8849  0.8057
  182SOPE  C21320815   6.381   6.915   7.836 -0.1080 -0.5164 -0.0219
  182SOPE  H13R20816   6.484   6.950   7.814 -0.1195  0.3871  1.2047
  182SOPE  H13S20817   6.403   6.854   7.927 -0.1685 -1.1667 -0.4362
  182SOPE  C21420818   6.281   7.025   7.857 -0.2233  0.3182  0.0870
  182SOPE  H14R20819   6.183   6.981   7.885  0.6935 -0.9404  1.4647
  182SOPE  H14S20820   6.268   7.095   7.772 -3.3465  1.1866  1.1320
  182SOPE  C21520821   6.322   7.094   7.985 -0.0109 -0.4482  0.1151
  182SOPE  H15R20822   6.427   7.123   7.962  0.0714 -0.8843 -0.0681
  182SOPE  H15S20823   6.319   7.015   8.063 -0.5003 -2.5284 -1.8786
  182SOPE  C21620824   6.237   7.215   8.020  0.2569 -0.1009  0.3233
  182SOPE  H16R20825   6.143   7.177   8.065 -0.1736 -1.0396 -1.2763
  182SOPE  H16S20826   6.203   7.283   7.939 -2.1291  0.4377  1.6783
  182SOPE  C21720827   6.295   7.303   8.130  0.2387  0.1487  0.5505
  182SOPE  H17R20828   6.378   7.355   8.077  0.3124 -0.0205  0.5011
  182SOPE  H17S20829   6.344   7.242   8.209  1.8086 -0.7148 -1.0164
  182SOPE  C21820830   6.196   7.408   8.189  0.2187  0.2124  0.1018
  182SOPE  H18R20831   6.175   7.478   8.105  0.1755 -0.3959 -0.4058
  182SOPE  H18S20832   6.248   7.460   8.271  0.7994  1.9006 -1.2720
  182SOPE  H18T20833   6.099   7.362   8.220 -0.3551  0.7226 -0.8607
  182SOPE   C3320834   6.738   6.671   6.995  0.2037  0.6289 -0.2182
  182SOPE   H3X20835   6.837   6.628   6.969  0.5872  0.8185  0.8491
  182SOPE   H3Y20836   6.663   6.591   7.012 -0.1798  0.8996 -0.6278
  182SOPE   C3420837   6.765   6.751   7.125 -0.0526 -0.2507 -0.0770
  182SOPE   H4X20838   6.668   6.798   7.149  0.0789  0.8868 -1.6664
  182SOPE   H4Y20839   6.838   6.831   7.101  0.6093 -1.0612 -0.8632
  182SOPE   C3520840   6.802   6.666   7.248 -0.2618  0.0196 -0.2115
  182SOPE   H5X20841   6.907   6.631   7.240 -0.5813 -1.7348  2.2326
  182SOPE   H5Y20842   6.734   6.579   7.263 -0.0252 -0.2444 -0.6357
  182SOPE   C3620843   6.805   6.751   7.381  0.5085 -0.2680  0.5446
  182SOPE   H6X20844   6.707   6.804   7.382  0.1790 -0.8426  2.1201
  182SOPE   H6Y20845   6.893   6.819   7.374  1.0422 -0.7680  2.0063
  182SOPE   C3720846   6.800   6.667   7.504  0.2041 -0.1085 -0.1988
  182SOPE   H7X20847   6.875   6.585   7.502 -0.7355 -1.0480 -3.4221
  182SOPE   H7Y20848   6.695   6.629   7.505 -0.5001  1.7453  0.1784
  182SOPE   C3820849   6.833   6.750   7.631 -0.9083  0.3960  0.3762
  182SOPE   H8X20850   6.776   6.846   7.629 -1.6872 -0.0080  1.8411
  182SOPE   H8Y20851   6.940   6.781   7.630 -0.9122  0.4969  1.7490
  182SOPE   C3920852   6.791   6.678   7.764 -0.5687 -0.4815 -0.0030
  182SOPE   H9X20853   6.865   6.597   7.778  0.5601  0.6312  0.7438
  182SOPE   H9Y20854   6.688   6.637   7.755  0.1405 -2.2850 -0.1848
  182SOPE  C31020855   6.797   6.772   7.881 -0.0928 -0.3986 -0.1248
  182SOPE  H10X20856   6.730   6.860   7.874 -0.1100 -0.4231 -0.2715
  182SOPE  H10Y20857   6.900   6.814   7.885 -0.5528  0.7134  2.7459
  182SOPE  C31120858   6.770   6.689   8.007 -1.0366 -0.0686 -0.3235
  182SOPE  H11X20859   6.847   6.610   8.020 -1.5553 -0.2202  2.3357
  182SOPE  H11Y20860   6.671   6.641   7.998  0.3120 -4.0912  2.9919
  182SOPE  C31220861   6.763   6.773   8.133  0.1055 -0.0636  0.0250
  182SOPE  H12X20862   6.704   6.867   8.129  0.5094  0.1419 -1.6723
  182SOPE  H12Y20863   6.867   6.808   8.147 -0.6742  2.0228  0.9936
  182SOPE  C31320864   6.729   6.684   8.257  0.4596 -0.2001  0.8094
  182SOPE  H13X20865   6.801   6.715   8.336  1.3564 -1.2754  0.4527
  182SOPE  H13Y20866   6.767   6.582   8.236  5.6874  2.2345 -4.8352
  182SOPE  C31420867   6.586   6.682   8.307 -0.1381  0.0097 -0.0308
  182SOPE  H14X20868   6.554   6.787   8.322  1.5057  0.4833  0.3381
  182SOPE  H14Y20869   6.566   6.640   8.408  0.8654 -0.8980 -0.1974
  182SOPE  C31520870   6.482   6.608   8.213  0.1198 -0.2256 -0.5356
  182SOPE  H15X20871   6.524   6.507   8.194 -0.4062 -0.3154 -1.3086
  182SOPE  H15Y20872   6.477   6.667   8.118 -2.0595 -0.0150 -0.3408
  182SOPE  C31620873   6.346   6.583   8.269  0.4137 -0.1011 -0.0177
  182SOPE  H16X20874   6.297   6.678   8.301 -2.1503 -0.6766 -1.9116
  182SOPE  H16Y20875   6.366   6.535   8.367 -1.1645  1.4111  1.1003
  182SOPE  C31720876   6.262   6.488   8.185 -0.3142  0.0250  0.5082
  182SOPE  H17X20877   6.164   6.469   8.234 -1.4055  2.9231 -0.3747
  182SOPE  H17Y20878   6.312   6.389   8.176  1.0735  0.8208 -0.8961
  182SOPE  C31820879   6.227   6.539   8.038 -0.3849  0.0331  0.4272
  182SOPE  H18X20880   6.322   6.570   7.988 -0.3395  1.6836  1.4445
  182SOPE  H18Y20881   6.160   6.627   8.044  0.7110  1.3134 -3.4584
  182SOPE  H18Z20882   6.183   6.459   7.975  1.2194 -0.8505  0.3747
  183SOPE     N20883   5.316   4.752   6.116 -0.1338 -0.4413  1.0880
  183SOPE   HN120884   5.357   4.657   6.110 -1.3108 -0.9010 -0.4539
  183SOPE   HN220885   5.288   4.763   6.016  1.1159 -1.3244  0.6276
  183SOPE   HN320886   5.383   4.828   6.138 -3.2570  2.7346  0.6557
  183SOPE   C1220887   5.203   4.759   6.205  0.9104 -0.0895  0.0288
  183SOPE  H12A20888   5.172   4.663   6.250 -2.5891  0.1982 -1.4049
  183SOPE  H12B20889   5.118   4.799   6.145  1.7314 -0.6709 -1.5692
  183SOPE   C1120890   5.247   4.852   6.321  0.3165  0.2142  0.0005
  183SOPE  H11A20891   5.350   4.833   6.356  0.9615  1.8420 -0.9039
  183SOPE  H11B20892   5.175   4.850   6.406 -0.7015 -1.2110 -0.8467
  183SOPE     P20893   5.324   5.097   6.348 -0.1807 -0.0222  0.1860
  183SOPE   O1320894   5.256   5.231   6.331 -0.5416  0.0159  0.1287
  183SOPE   O1420895   5.465   5.091   6.310 -0.8087 -0.6367  0.3231
  183SOPE   O1220896   5.241   4.987   6.272 -0.2041 -0.1466 -0.5287
  183SOPE   O1120897   5.322   5.046   6.497 -0.2198 -0.6394 -0.5445
  183SOPE    C120898   5.204   5.060   6.580  1.0667  0.0493  0.2749
  183SOPE    HA20899   5.165   4.956   6.588  2.3914 -0.4833  0.1433
  183SOPE    HB20900   5.134   5.126   6.526  1.2115 -0.3520 -0.4201
  183SOPE    C220901   5.234   5.112   6.720  0.2143 -0.5390 -0.5405
  183SOPE    HS20902   5.141   5.099   6.779  0.9078 -1.3887  0.4014
  183SOPE   O2120903   5.275   5.251   6.730 -0.1087  0.1407  0.6041
  183SOPE   C2120904   5.166   5.337   6.730 -0.1416  0.2568 -0.2409
  183SOPE   O2220905   5.053   5.303   6.693 -0.0480  0.4780 -0.3301
  183SOPE   C2220906   5.193   5.465   6.811  0.0049  0.1663  0.3690
  183SOPE   H2R20907   5.181   5.554   6.747 -1.9585  0.2418  0.7897
  183SOPE   H2S20908   5.298   5.468   6.847 -0.1284  0.7649  0.7204
  183SOPE    C320909   5.333   5.024   6.791 -0.3542  0.1062 -0.1328
  183SOPE    HX20910   5.423   5.045   6.729 -0.5175 -0.3733 -0.5403
  183SOPE    HY20911   5.319   4.914   6.784 -0.7602  0.1089  0.5620
  183SOPE   O3120912   5.344   5.059   6.934  0.3427 -0.8896 -0.2840
  183SOPE   C3120913   5.412   4.978   7.006  0.0488 -0.0251  0.8090
  183SOPE   O3220914   5.476   4.882   6.969  0.5785 -0.5015  0.3421
  183SOPE   C3220915   5.380   5.017   7.149  0.6833  0.4741  0.1661
  183SOPE   H2X20916   5.270   5.019   7.166  0.2196 -0.4367 -2.3509
  183SOPE   H2Y20917   5.420   5.121   7.155 -1.0441  1.1518  0.6833
  183SOPE   C2320918   5.092   5.463   6.926  0.5346 -0.2008  0.1539
  183SOPE   H3R20919   4.995   5.425   6.884  0.4166 -0.5756  0.7559
  183SOPE   H3S20920   5.063   5.560   6.970  1.3518 -0.2909  0.8944
  183SOPE   C2420921   5.148   5.380   7.040  0.0919  0.1976 -0.7966
  183SOPE   H4R20922   5.194   5.283   7.009  0.5291 -0.2979  1.2826
  183SOPE   H4S20923   5.225   5.436   7.097 -0.1292 -0.8728  0.5938
  183SOPE   C2520924   5.022   5.351   7.135  0.4201 -0.0492  0.6130
  183SOPE   H5R20925   4.987   5.449   7.174 -3.5950 -1.4459  0.9746
  183SOPE   H5S20926   4.938   5.310   7.075  0.2652  1.4263 -0.2287
  183SOPE   C2620927   5.037   5.261   7.251 -0.2566 -0.0258 -0.3668
  183SOPE   H6R20928   4.941   5.230   7.298  1.7564 -3.2643  2.0709
  183SOPE   H6S20929   5.086   5.166   7.220  3.3702  0.8306  2.1407
  183SOPE   C2720930   5.120   5.324   7.368  0.4574 -0.9158 -0.8555
  183SOPE   H7R20931   5.220   5.327   7.319  0.2856 -0.0749 -1.1635
  183SOPE   H7S20932   5.089   5.428   7.391  2.6058 -0.5179  0.6042
  183SOPE   C2820933   5.119   5.234   7.492 -0.3553 -0.5322  0.2985
  183SOPE   H8R20934   5.140   5.127   7.469 -1.7301 -0.6117 -0.6502
  183SOPE   H8S20935   5.203   5.275   7.553 -0.1950 -1.2818  0.6024
  183SOPE   C2920936   5.001   5.261   7.579  0.3942  0.7072 -0.1642
  183SOPE   H9120937   4.910   5.307   7.537  0.9116  1.3771 -0.5782
  183SOPE  C21020938   4.994   5.244   7.715 -0.4825 -0.1276  0.7255
  183SOPE  H10120939   4.903   5.275   7.769  0.3281  2.1027  0.9021
  183SOPE  C21120940   5.102   5.185   7.809 -0.3684 -0.2053 -0.7577
  183SOPE  H11R20941   5.182   5.262   7.818  1.2925 -1.8073 -1.0941
  183SOPE  H11S20942   5.156   5.095   7.772  1.2903  0.1079  0.7836
  183SOPE  C21220943   5.066   5.155   7.954 -0.5746  0.2039  0.0107
  183SOPE  H12R20944   5.027   5.252   7.990 -1.4112  0.0620 -0.4870
  183SOPE  H12S20945   5.150   5.135   8.024 -1.2549 -3.2969  0.0132
  183SOPE  C21320946   4.973   5.034   7.972  0.2613 -0.1859  0.2673
  183SOPE  H13R20947   5.014   4.950   7.911 -1.2676 -1.5841  1.0782
  183SOPE  H13S20948   4.869   5.061   7.943  0.3885 -0.0780 -0.1063
  183SOPE  C21420949   4.964   4.990   8.117 -0.7560 -0.2430 -0.5893
  183SOPE  H14R20950   4.933   5.082   8.170 -2.6342 -0.8483 -0.5403
  183SOPE  H14S20951   5.070   4.972   8.144 -0.6280  2.1707  0.7125
  183SOPE  C21520952   4.878   4.874   8.138  0.1095 -0.3717 -0.7414
  183SOPE  H15R20953   4.884   4.795   8.060  1.7705 -0.6952 -0.3208
  183SOPE  H15S20954   4.780   4.924   8.126 -0.1369 -0.2664  1.3130
  183SOPE  C21620955   4.879   4.823   8.281  0.2749 -0.4557  0.2479
  183SOPE  H16R20956   4.895   4.911   8.347 -1.3210 -1.3898  2.0017
  183SOPE  H16S20957   4.965   4.754   8.292  1.2587  0.7028  0.0417
  183SOPE  C21720958   4.747   4.751   8.329 -0.0699  0.1657 -0.0500
  183SOPE  H17R20959   4.658   4.817   8.337  0.9298  1.6423 -0.8692
  183SOPE  H17S20960   4.759   4.714   8.433 -0.7686 -0.3739 -0.1497
  183SOPE  C21820961   4.704   4.640   8.229  0.6941 -0.3201 -0.3447
  183SOPE  H18R20962   4.688   4.686   8.129  0.0433  0.3258  0.0523
  183SOPE  H18S20963   4.615   4.585   8.267 -0.0462  1.2057  0.2116
  183SOPE  H18T20964   4.794   4.575   8.223  0.3189 -0.9890  0.9561
  183SOPE   C3320965   5.447   4.929   7.257  0.0491 -0.6187 -0.9400
  183SOPE   H3X20966   5.557   4.945   7.259 -0.2343  1.5343 -0.5337
  183SOPE   H3Y20967   5.437   4.819   7.247 -3.7570 -0.7537  1.9788
  183SOPE   C3420968   5.380   4.961   7.391 -0.1452 -0.0436 -0.3696
  183SOPE   H4X20969   5.271   4.938   7.399 -0.0933 -0.3447 -0.5524
  183SOPE   H4Y20970   5.377   5.071   7.407  0.2867 -0.5169  4.0652
  183SOPE   C3520971   5.451   4.895   7.513  0.5444  0.3068 -0.5015
  183SOPE   H5X20972   5.556   4.933   7.515  0.8566 -0.4238 -1.5750
  183SOPE   H5Y20973   5.458   4.786   7.495 -0.2581 -0.0430  1.1685
  183SOPE   C3620974   5.369   4.923   7.640  0.6554 -0.1273  0.7526
  183SOPE   H6X20975   5.267   4.888   7.615  1.4099  0.3659 -3.9091
  183SOPE   H6Y20976   5.362   5.034   7.647 -2.3196 -0.1612 -0.3068
  183SOPE   C3720977   5.430   4.843   7.755  0.0267  0.3509  0.1925
  183SOPE   H7X20978   5.539   4.860   7.755  0.0900  0.1526 -1.5734
  183SOPE   H7Y20979   5.418   4.733   7.737  1.5739  0.3594 -1.0280
  183SOPE   C3820980   5.363   4.880   7.885 -0.5009  0.0126 -0.4238
  183SOPE   H8X20981   5.262   4.834   7.895 -0.1249 -0.5375  1.2104
  183SOPE   H8Y20982   5.369   4.989   7.909 -2.6613 -0.2143  1.5780
  183SOPE   C3920983   5.444   4.807   7.995 -0.3289  0.0562 -0.5343
  183SOPE   H9X20984   5.531   4.872   8.019  0.1117 -0.3237 -1.0782
  183SOPE   H9Y20985   5.483   4.712   7.955 -1.5111 -0.2122 -1.0953
  183SOPE  C31020986   5.364   4.786   8.121 -0.0615  0.6349 -0.3498
  183SOPE  H10X20987   5.289   4.705   8.111  0.4804  0.3187 -2.0502
  183SOPE  H10Y20988   5.312   4.883   8.137  1.5185  1.2791  1.2629
  183SOPE  C31120989   5.447   4.766   8.248 -0.4786 -0.3153  0.3893
  183SOPE  H11X20990   5.497   4.863   8.269  2.6972 -1.9984  1.1968
  183SOPE  H11Y20991   5.524   4.686   8.241 -2.1513 -1.8731 -1.4133
  183SOPE  C31220992   5.366   4.751   8.378 -0.3846 -0.7742 -0.0907
  183SOPE  H12X20993   5.443   4.729   8.455  0.1688 -0.1802 -0.4651
  183SOPE  H12Y20994   5.307   4.657   8.368 -0.7744 -0.5788  0.3277
  183SOPE  C31320995   5.283   4.869   8.439  0.5803  0.3663 -0.4199
  183SOPE  H13X20996   5.209   4.910   8.367  1.3619  2.7592  0.0234
  183SOPE  H13Y20997   5.347   4.946   8.487 -0.6277  0.9717  0.2653
  183SOPE  C31420998   5.206   4.822   8.572 -0.3403  0.2049 -0.0110
  183SOPE  H14X20999   5.289   4.806   8.644 -0.9841 -0.5236  0.5941
  183SOPE  H14Y21000   5.144   4.730   8.570  2.2672 -1.9479  4.0810
  183SOPE  C31521001   5.107   4.929   8.619  0.1642 -1.0146  0.4513
  183SOPE  H15X21002   5.063   4.901   8.717  0.2771 -0.6053  0.6188
  183SOPE  H15Y21003   5.019   4.938   8.552  1.1705  0.3219 -0.7591
  183SOPE  C31621004   5.170   5.070   8.635  1.0732  0.9735  0.4392
  183SOPE  H16X21005   5.078   5.127   8.661 -0.7674 -1.4439 -0.2764
  183SOPE  H16Y21006   5.209   5.096   8.534 -2.6102 -2.0756 -2.0722
  183SOPE  C31721007   5.272   5.086   8.745  0.1082  0.7216  1.0404
  183SOPE  H17X21008   5.366   5.027   8.739  0.0702  0.7519 -0.0274
  183SOPE  H17Y21009   5.223   5.052   8.839  0.0360 -1.1480  0.3535
  183SOPE  C31821010   5.317   5.228   8.766  0.1351 -0.4145 -0.8218
  183SOPE  H18X21011   5.376   5.245   8.858 -0.8032  1.0856 -0.4695
  183SOPE  H18Y21012   5.249   5.314   8.748  1.4755  0.6631 -0.8694
  183SOPE  H18Z21013   5.389   5.255   8.687  1.4446 -0.3659  0.3582
  184SOPE     N21014   1.152   6.482   6.000 -0.2868 -0.0100  0.4621
  184SOPE   HN121015   1.238   6.427   6.021  0.6741  1.0419 -0.5619
  184SOPE   HN221016   1.066   6.423   6.003 -0.9032  0.5311 -2.6569
  184SOPE   HN321017   1.156   6.537   5.912 -2.0411 -0.1442  0.2741
  184SOPE   C1221018   1.139   6.569   6.112  0.3802 -0.1785 -0.3200
  184SOPE  H12A21019   1.117   6.506   6.202 -0.6590  0.1519 -0.3276
  184SOPE  H12B21020   1.054   6.636   6.087  0.4614  0.6857  1.5148
  184SOPE   C1121021   1.258   6.666   6.137 -0.4813  0.2432 -0.5343
  184SOPE  H11A21022   1.257   6.730   6.228  0.8465  1.6415 -1.4669
  184SOPE  H11B21023   1.257   6.735   6.051  0.1038 -1.4861 -1.9934
  184SOPE     P21024   1.521   6.684   6.147 -0.0061  0.0746 -0.1654
  184SOPE   O1321025   1.537   6.788   6.042  0.6671  0.5329  0.5201
  184SOPE   O1421026   1.635   6.590   6.169  0.3053 -0.1039  0.2430
  184SOPE   O1221027   1.385   6.600   6.139 -0.3654  0.6299 -0.0290
  184SOPE   O1121028   1.499   6.754   6.281 -0.3948 -0.6026 -0.7859
  184SOPE    C121029   1.610   6.831   6.337 -0.5594  0.0459 -1.0580
  184SOPE    HA21030   1.681   6.880   6.268  0.1842  1.9861  0.9426
  184SOPE    HB21031   1.664   6.768   6.411 -0.1200  0.8632 -0.6738
  184SOPE    C221032   1.561   6.959   6.418  0.2998 -0.2968  0.2159
  184SOPE    HS21033   1.509   7.022   6.343 -0.0157  0.2451  0.8865
  184SOPE   O2121034   1.677   7.020   6.475 -0.2495 -0.1635  0.1736
  184SOPE   C2121035   1.682   7.148   6.469  0.0727 -0.5544 -0.1324
  184SOPE   O2221036   1.591   7.222   6.430  0.4298  0.3251  0.0759
  184SOPE   C2221037   1.820   7.206   6.523  0.5699  0.0017  0.3083
  184SOPE   H2R21038   1.808   7.307   6.567  0.2153 -0.6139  1.7073
  184SOPE   H2S21039   1.883   7.219   6.433 -1.8971 -1.7050 -1.8263
  184SOPE    C321040   1.456   6.918   6.524 -1.0544 -0.9452  0.4639
  184SOPE    HX21041   1.517   6.853   6.590 -2.1000 -0.1874  2.2897
  184SOPE    HY21042   1.374   6.859   6.479 -1.0326  1.0997 -2.5102
  184SOPE   O3121043   1.412   7.033   6.611  0.0062  0.1222  0.0120
  184SOPE   C3121044   1.315   7.104   6.552 -0.7202  0.9511 -0.1069
  184SOPE   O3221045   1.279   7.091   6.435 -0.2888 -0.2660 -0.6501
  184SOPE   C3221046   1.262   7.212   6.653  0.2922 -0.0439  0.1057
  184SOPE   H2X21047   1.168   7.253   6.611  1.2814  0.5602 -1.5721
  184SOPE   H2Y21048   1.341   7.290   6.663 -1.5501  1.9501 -0.1868
  184SOPE   C2321049   1.888   7.111   6.623  0.6778 -0.0505 -0.4412
  184SOPE   H3R21050   1.996   7.132   6.636  0.3647  1.0647  0.5220
  184SOPE   H3S21051   1.878   7.004   6.592 -0.0880 -0.1887  0.2515
  184SOPE   C2421052   1.820   7.119   6.762 -0.7800 -0.0440 -0.1111
  184SOPE   H4R21053   1.847   7.213   6.816 -1.1669 -0.9820  1.8087
  184SOPE   H4S21054   1.710   7.132   6.763 -0.6518  1.1796 -0.2828
  184SOPE   C2521055   1.879   7.013   6.858  0.0449  0.3502  0.5304
  184SOPE   H5R21056   1.849   6.916   6.813 -0.1109  0.1480  1.0649
  184SOPE   H5S21057   1.990   7.022   6.860 -0.0165  1.2404  0.4302
  184SOPE   C2621058   1.833   7.041   7.003  0.3148 -0.2859  0.8001
  184SOPE   H6R21059   1.895   6.971   7.064  2.0109  0.5188  0.0767
  184SOPE   H6S21060   1.862   7.143   7.034  0.4228  0.3855 -1.3763
  184SOPE   C2721061   1.688   7.013   7.043 -0.5740  0.2133 -0.6411
  184SOPE   H7R21062   1.628   7.105   7.030 -2.0766 -0.3301  1.6775
  184SOPE   H7S21063   1.659   6.938   6.967 -2.4121 -1.4241  1.5143
  184SOPE   C2821064   1.656   6.956   7.185 -0.7392  0.0768  0.5074
  184SOPE   H8R21065   1.561   6.899   7.188 -0.9480  0.4336  0.7307
  184SOPE   H8S21066   1.735   6.880   7.208  2.1594  2.5367 -0.6575
  184SOPE   C2921067   1.660   7.064   7.289 -0.1528  0.1646 -0.6505
  184SOPE   H9121068   1.707   7.162   7.272  1.6157  0.0661  2.7705
  184SOPE  C21021069   1.601   7.046   7.411 -0.1842 -0.1976  0.2120
  184SOPE  H10121070   1.610   7.122   7.491 -1.0720  0.4155 -0.2568
  184SOPE  C21121071   1.516   6.915   7.456 -0.0192  0.4194  0.0027
  184SOPE  H11R21072   1.586   6.829   7.465 -1.4191 -0.7996 -0.3485
  184SOPE  H11S21073   1.441   6.896   7.376 -1.6602  3.3262  0.7111
  184SOPE  C21221074   1.439   6.937   7.582 -0.3889  0.1296  0.2032
  184SOPE  H12R21075   1.373   7.021   7.553  0.4434  1.2705  1.4505
  184SOPE  H12S21076   1.497   6.977   7.669 -0.2211  1.4186 -0.4717
  184SOPE  C21321077   1.362   6.815   7.624  0.3060 -0.5598 -0.6518
  184SOPE  H13R21078   1.320   6.776   7.529  0.5015 -0.0292 -0.9614
  184SOPE  H13S21079   1.276   6.840   7.689 -0.6686 -1.7216 -1.4584
  184SOPE  C21421080   1.445   6.710   7.693  0.2624 -0.2254 -0.2253
  184SOPE  H14R21081   1.493   6.748   7.786 -1.0353  0.5404  0.1483
  184SOPE  H14S21082   1.524   6.668   7.627  0.7051  0.7544 -0.3313
  184SOPE  C21521083   1.347   6.599   7.736 -0.1089 -0.3273 -0.4174
  184SOPE  H15R21084   1.283   6.559   7.656  1.8855 -2.6644 -0.9656
  184SOPE  H15S21085   1.288   6.646   7.818  1.6502 -0.3504  0.9307
  184SOPE  C21621086   1.408   6.486   7.830 -0.4549  0.1671 -0.5872
  184SOPE  H16R21087   1.442   6.528   7.927 -2.1438 -0.8479  0.5011
  184SOPE  H16S21088   1.494   6.434   7.782 -0.9109 -0.3328 -0.8650
  184SOPE  C21721089   1.308   6.383   7.863  0.8259 -0.0628  1.1487
  184SOPE  H17R21090   1.273   6.318   7.780  0.2103  0.8182  0.7030
  184SOPE  H17S21091   1.213   6.433   7.891  1.0528  0.1707  1.5099
  184SOPE  C21821092   1.346   6.307   7.993  0.0151 -0.1864 -0.5921
  184SOPE  H18R21093   1.439   6.248   7.983 -1.3328 -2.2483 -1.4504
  184SOPE  H18S21094   1.264   6.238   8.024 -2.5019  1.3060 -3.4011
  184SOPE  H18T21095   1.367   6.388   8.067 -0.8146  1.5047 -2.1045
  184SOPE   C3321096   1.222   7.162   6.791 -0.1610 -0.2577 -0.7299
  184SOPE   H3X21097   1.173   7.063   6.773  0.2388 -0.6458  0.2470
  184SOPE   H3Y21098   1.151   7.231   6.840  1.5967  1.3091 -0.2903
  184SOPE   C3421099   1.346   7.159   6.880 -0.0112  0.3273 -0.0221
  184SOPE   H4X21100   1.397   7.257   6.879  2.5068 -0.9066  0.1507
  184SOPE   H4Y21101   1.413   7.081   6.838  0.5579  0.2499  1.0219
  184SOPE   C3521102   1.308   7.109   7.027  0.0125 -0.5855  1.3729
  184SOPE   H5X21103   1.405   7.095   7.081 -0.7452 -0.7781  2.7359
  184SOPE   H5Y21104   1.252   7.015   7.009 -3.0558  1.1651  1.1901
  184SOPE   C3621105   1.218   7.200   7.108  0.2024 -0.2918 -0.4201
  184SOPE   H6X21106   1.111   7.189   7.084  0.1974  0.3615 -0.7343
  184SOPE   H6Y21107   1.242   7.305   7.079  2.8709 -0.7695 -0.2421
  184SOPE   C3721108   1.226   7.186   7.269  0.4539 -0.2220 -0.0863
  184SOPE   H7X21109   1.331   7.170   7.302  0.9488 -3.1810 -2.6028
  184SOPE   H7Y21110   1.189   7.088   7.304  0.0575  0.1120  0.4370
  184SOPE   C3821111   1.160   7.300   7.350 -0.5247  0.2543  0.0727
  184SOPE   H8X21112   1.060   7.323   7.307 -1.1031  0.3349  1.4209
  184SOPE   H8Y21113   1.221   7.390   7.330 -2.6245  1.3787 -1.6865
  184SOPE   C3921114   1.153   7.271   7.495  0.5013  0.5895  0.2982
  184SOPE   H9X21115   1.187   7.167   7.508  1.1948  0.4351 -2.2176
  184SOPE   H9Y21116   1.046   7.278   7.525  0.6086 -0.9605  1.1035
  184SOPE  C31021117   1.236   7.370   7.583 -0.4344  0.1857 -0.0343
  184SOPE  H10X21118   1.205   7.474   7.560 -0.8929  0.6618  2.4316
  184SOPE  H10Y21119   1.337   7.367   7.536  0.2898  0.8647  1.4116
  184SOPE  C31121120   1.236   7.344   7.736  0.9338  0.8373 -0.5000
  184SOPE  H11X21121   1.332   7.377   7.780  1.5622 -1.2492 -0.1789
  184SOPE  H11Y21122   1.227   7.234   7.749  0.2812  0.9347 -0.1298
  184SOPE  C31221123   1.121   7.415   7.822 -0.0735  0.1726 -0.2832
  184SOPE  H12X21124   1.146   7.522   7.839  0.1312  0.1069 -0.1731
  184SOPE  H12Y21125   1.115   7.363   7.920  0.2863 -2.2956 -1.5033
  184SOPE  C31321126   0.981   7.407   7.750 -0.5861  1.0382  0.7863
  184SOPE  H13X21127   0.945   7.303   7.735 -1.7702  1.2107  2.2013
  184SOPE  H13Y21128   0.997   7.441   7.645  1.7130  1.2930  1.1736
  184SOPE  C31421129   0.880   7.502   7.801 -0.7580 -0.4066  0.2657
  184SOPE  H14X21130   0.939   7.593   7.829  2.2787 -2.3156  0.5270
  184SOPE  H14Y21131   0.832   7.461   7.892 -0.7761 -0.7826  0.0865
  184SOPE  C31521132   0.773   7.529   7.691 -0.5226 -0.2685 -0.0541
  184SOPE  H15X21133   0.821   7.560   7.595  0.2508 -0.0831  0.3863
  184SOPE  H15Y21134   0.711   7.616   7.723  0.8848  0.1286  1.6973
  184SOPE  C31621135   0.686   7.404   7.666  1.0374 -0.3236  0.4216
  184SOPE  H16X21136   0.641   7.380   7.764  1.4768 -0.2752  0.6400
  184SOPE  H16Y21137   0.749   7.323   7.622  1.2646 -0.5008  1.0580
  184SOPE  C31721138   0.569   7.426   7.566 -0.4273  0.8919 -0.3296
  184SOPE  H17X21139   0.516   7.329   7.551  0.7624  0.0270  0.8263
  184SOPE  H17Y21140   0.609   7.453   7.466 -0.8929 -0.8764 -1.0513
  184SOPE  C31821141   0.478   7.544   7.599  0.0383  0.1344 -0.4126
  184SOPE  H18X21142   0.528   7.643   7.596 -2.0308  1.2762  0.2838
  184SOPE  H18Y21143   0.441   7.534   7.703  0.2683  1.4642 -0.1906
  184SOPE  H18Z21144   0.398   7.560   7.524 -0.3643  1.9486  0.3581
  185SAPI   C1221145   0.736   3.627  10.918 -1.1046  0.1811 -0.8138
  185SAPI    H221146   0.690   3.638  11.019 -0.3729  0.1506 -0.4643
  185SAPI    O221147   0.729   3.754  10.863 -0.7306  0.3232 -0.6136
  185SAPI   HO221148   0.637   3.780  10.851 -0.8605 -0.7211 -2.2108
  185SAPI   C1321149   0.881   3.575  10.937 -0.9694 -0.7111 -0.5590
  185SAPI    H321150   0.883   3.473  10.981  1.2200 -0.9270 -1.0736
  185SAPI    O321151   0.954   3.674  11.018  0.0170  0.2600 -0.0243
  185SAPI   HO321152   0.967   3.644  11.108  0.8112  1.6262  0.3331
  185SAPI   C1421153   0.948   3.559  10.804 -0.9761  0.1704 -0.3078
  185SAPI    H421154   0.956   3.658  10.754 -2.2125  0.6354  0.3548
  185SAPI    O421155   1.081   3.506  10.832 -0.1713  0.5628  0.0667
  185SAPI   HO421156   1.142   3.558  10.780 -0.5782 -1.2507 -2.4339
  185SAPI   C1521157   0.868   3.459  10.716 -0.3617 -0.2991  0.2295
  185SAPI    H521158   0.876   3.362  10.769  0.0981  0.8133  2.3166
  185SAPI    O521159   0.938   3.428  10.596 -0.3297  0.1022  0.3843
  185SAPI   HO521160   0.933   3.507  10.541 -1.9896  1.5973  2.5014
  185SAPI   C1621161   0.721   3.502  10.694 -0.4198 -0.6211  0.0365
  185SAPI    H621162   0.721   3.598  10.639 -0.4311 -0.1440  0.8487
  185SAPI    O621163   0.652   3.393  10.628 -0.1743  0.0931 -0.4285
  185SAPI   HO621164   0.607   3.431  10.553 -1.0812  2.1397  1.0515
  185SAPI   C1121165   0.653   3.528  10.833  0.9971  0.3446 -0.7895
  185SAPI    H121166   0.662   3.430  10.885 -1.6106  1.7311  2.6417
  185SAPI     P21167   0.399   3.500  10.933  0.0957 -0.0854 -0.2174
  185SAPI   O1321168   0.336   3.609  11.013  0.7242  0.1001 -0.7885
  185SAPI   O1421169   0.450   3.388  11.010 -0.0268  0.5835 -0.5622
  185SAPI   O1221170   0.512   3.567  10.826 -0.0683  0.3148 -0.4056
  185SAPI   O1121171   0.285   3.443  10.838 -0.0959  0.6806  0.9142
  185SAPI    C121172   0.300   3.362  10.721  0.3207  0.2614  0.1934
  185SAPI    HA21173   0.405   3.327  10.707 -0.1767 -0.6454 -1.4149
  185SAPI    HB21174   0.234   3.274  10.734  0.4923  0.2000  0.7166
  185SAPI    C221175   0.265   3.441  10.596  0.2947 -1.5110  0.3746
  185SAPI    HS21176   0.337   3.526  10.593  0.1367 -1.3225  1.4137
  185SAPI   O2121177   0.125   3.475  10.595 -1.0478 -0.3119 -0.0145
  185SAPI   C2121178   0.088   3.592  10.545  0.4515 -0.1809 -0.2843
  185SAPI   O2221179   0.157   3.685  10.510  0.1269 -0.0336 -0.4616
  185SAPI   C2221180  -0.066   3.601  10.546  0.3029  0.3193  0.4301
  185SAPI   H2R21181  -0.102   3.519  10.480  0.6844  2.3349 -2.4403
  185SAPI   H2S21182  -0.100   3.602  10.652 -0.1814  2.2587  0.2858
  185SAPI    C321183   0.285   3.344  10.474 -0.3324  0.4480 -0.0775
  185SAPI    HX21184   0.206   3.267  10.468 -1.2673  1.2916  0.9673
  185SAPI    HY21185   0.383   3.295  10.495 -0.4803  0.5471  0.8925
  185SAPI   O3121186   0.292   3.412  10.346 -0.4628 -0.2184 -0.3331
  185SAPI   C3121187   0.400   3.492  10.340  0.0014  0.3385 -0.7736
  185SAPI   O3221188   0.495   3.487  10.419 -0.2280  0.1049 -0.3973
  185SAPI   C3221189   0.378   3.594  10.231 -0.1758 -0.7772 -0.4524
  185SAPI   H2X21190   0.301   3.663  10.273  1.9020  2.1903 -1.2003
  185SAPI   H2Y21191   0.320   3.543  10.151 -0.7756 -1.3369  0.3345
  185SAPI   C2321192  -0.104   3.735  10.483  0.5857  0.1124 -0.3831
  185SAPI   H3R21193  -0.068   3.743  10.378  0.1552 -0.2434 -0.5630
  185SAPI   H3S21194  -0.069   3.824  10.540  0.4617 -0.2072  0.2028
  185SAPI   C2421195  -0.259   3.746  10.454  0.0433  0.1246  0.4963
  185SAPI   H4R21196  -0.263   3.844  10.402  2.4629  0.9164  1.6084
  185SAPI   H4S21197  -0.321   3.749  10.546  0.4322 -0.7743  0.7922
  185SAPI   C2521198  -0.309   3.640  10.365 -1.0025 -0.1754  0.1501
  185SAPI   H5R21199  -0.315   3.545  10.420 -1.3005 -0.1913  0.0943
  185SAPI   C2621200  -0.328   3.646  10.230 -0.4405 -0.3263 -0.1403
  185SAPI   H6R21201  -0.363   3.553  10.182 -0.8787 -1.0864  1.5657
  185SAPI   C2721202  -0.310   3.766  10.138  0.5869  0.1892  0.1907
  185SAPI   H7R21203  -0.267   3.854  10.191  0.1027  0.9443 -0.6457
  185SAPI   H7S21204  -0.413   3.803  10.122  0.8841  2.0807  2.2289
  185SAPI   C2821205  -0.239   3.739  10.005 -0.0527  0.1079 -0.9152
  185SAPI   H8R21206  -0.134   3.709  10.009 -0.5075 -1.4347  0.6117
  185SAPI   C2921207  -0.296   3.747   9.888  0.2407  0.1444  0.2905
  185SAPI   H9R21208  -0.238   3.734   9.795  0.5937  1.8716  0.2325
  185SAPI  C21021209  -0.443   3.786   9.859 -0.6201  0.4296  0.7756
  185SAPI  H10R21210  -0.498   3.733   9.940  1.0245 -1.6245  0.6248
  185SAPI  H10S21211  -0.480   3.737   9.767  1.1490  1.5799 -0.6142
  185SAPI  C21121212  -0.471   3.937   9.866 -0.4735 -0.1553 -0.5098
  185SAPI  H11R21213  -0.521   3.978   9.955  1.7773  3.1007 -0.5651
  185SAPI  C21221214  -0.466   4.008   9.758  0.1608 -0.9904  0.1120
  185SAPI  H12R21215  -0.472   4.117   9.774  1.2614 -1.2478  2.8614
  185SAPI  C21321216  -0.423   3.961   9.620  0.3644  0.4887 -0.1281
  185SAPI  H13R21217  -0.490   3.893   9.564  1.5240  1.1218 -2.4289
  185SAPI  H13S21218  -0.337   3.890   9.627 -1.2247 -1.3905  1.5836
  185SAPI  C21421219  -0.387   4.069   9.522  0.2043  1.0675  0.1127
  185SAPI  H14R21220  -0.436   4.165   9.545  0.1580  0.7166  1.5340
  185SAPI  C21521221  -0.305   4.058   9.414 -0.3571  0.0012  0.5002
  185SAPI  H15R21222  -0.284   4.142   9.346 -0.6758 -1.0051 -0.8914
  185SAPI  C21621223  -0.236   3.927   9.379  0.4766  0.0385 -0.2089
  185SAPI  H16R21224  -0.219   3.870   9.473  1.6862 -0.3003 -0.6059
  185SAPI  H16S21225  -0.141   3.956   9.328 -1.0833  2.3182 -1.9976
  185SAPI  C21721226  -0.310   3.846   9.272  0.3047 -0.5347 -0.1713
  185SAPI  H17R21227  -0.419   3.844   9.293  0.5658  0.0468  1.3181
  185SAPI  H17S21228  -0.282   3.739   9.279 -1.5861 -0.9428  3.0515
  185SAPI  C21821229  -0.285   3.911   9.134  0.3593 -1.5772  0.0147
  185SAPI  H18R21230  -0.177   3.924   9.115  0.0757  0.4813 -0.4133
  185SAPI  H18S21231  -0.339   4.007   9.125 -0.6893 -2.1629 -0.1946
  185SAPI  C21921232  -0.333   3.819   9.019  0.3239  0.3118 -0.5890
  185SAPI  H19R21233  -0.443   3.818   9.003  0.2238 -0.2786  0.1014
  185SAPI  H19S21234  -0.305   3.715   9.045 -1.3722 -0.0304 -0.0282
  185SAPI  C22021235  -0.268   3.862   8.887 -0.1937 -0.1299 -0.3910
  185SAPI  H20R21236  -0.326   3.829   8.798  0.8438  0.8546 -1.4646
  185SAPI  H20S21237  -0.164   3.827   8.871 -0.6661 -1.2807 -1.0706
  185SAPI  H20T21238  -0.272   3.972   8.874  1.9479  0.1147  0.6863
  185SAPI   C3321239   0.495   3.671  10.170 -0.3836  0.1067 -0.0975
  185SAPI   H3X21240   0.552   3.710  10.256  0.5340 -0.0187 -0.6377
  185SAPI   H3Y21241   0.453   3.756  10.113 -0.9976  1.3826  2.1300
  185SAPI   C3421242   0.579   3.602  10.058  0.0295  0.1115 -0.2459
  185SAPI   H4X21243   0.609   3.496  10.070  1.4233  0.2319 -2.0621
  185SAPI   H4Y21244   0.677   3.654  10.055  0.7377 -1.1919 -3.4888
  185SAPI   C3521245   0.515   3.633   9.919  0.2901 -0.3692  0.1005
  185SAPI   H5X21246   0.489   3.740   9.903  1.0279  0.2003  2.2969
  185SAPI   H5Y21247   0.419   3.579   9.918 -0.6535  1.2019  0.8196
  185SAPI   C3621248   0.596   3.591   9.801  0.5435  0.1419  0.0195
  185SAPI   H6X21249   0.621   3.483   9.806  0.8497  0.1189 -1.5730
  185SAPI   H6Y21250   0.689   3.651   9.803  1.3347 -1.0258 -0.7074
  185SAPI   C3721251   0.526   3.615   9.672  0.3918 -0.2063  0.2274
  185SAPI   H7X21252   0.502   3.723   9.666  1.4738  0.0282 -0.1177
  185SAPI   H7Y21253   0.429   3.563   9.657  0.2434 -0.0947  0.7707
  185SAPI   C3821254   0.620   3.578   9.544 -0.0594 -0.8645 -0.3504
  185SAPI   H8X21255   0.641   3.469   9.539 -0.2842 -0.9012 -0.5077
  185SAPI   H8Y21256   0.722   3.614   9.568 -0.6305  0.4942  0.1896
  185SAPI   C3921257   0.562   3.623   9.407  0.0567  0.0630  0.2352
  185SAPI   H9X21258   0.556   3.734   9.415  0.0122  0.0721  0.0678
  185SAPI   H9Y21259   0.459   3.583   9.393  0.9843 -1.6805 -2.3559
  185SAPI  C31021260   0.648   3.566   9.287 -0.0573  0.4707 -0.4480
  185SAPI  H10X21261   0.663   3.456   9.292 -1.4082  0.3162  3.0000
  185SAPI  H10Y21262   0.743   3.622   9.278 -0.9368  1.8874 -1.3903
  185SAPI  C31121263   0.587   3.585   9.146 -0.1903 -0.5820  0.3089
  185SAPI  H11X21264   0.587   3.695   9.139  1.0830 -0.5859 -0.0960
  185SAPI  H11Y21265   0.482   3.550   9.141 -0.4131 -0.4095  2.6745
  185SAPI  C31221266   0.675   3.524   9.038 -0.8213 -0.2353  0.3497
  185SAPI  H12X21267   0.660   3.414   9.030 -0.7435 -0.2459  0.3437
  185SAPI  H12Y21268   0.782   3.531   9.065 -0.7256 -0.4457  0.0322
  185SAPI  C31321269   0.650   3.595   8.902  0.4234 -0.1004 -0.2610
  185SAPI  H13X21270   0.675   3.703   8.898  1.1274 -0.2573 -0.1087
  185SAPI  H13Y21271   0.540   3.589   8.882  0.1537 -2.3029  1.4455
  185SAPI  C31421272   0.717   3.537   8.773 -0.2366 -0.9736 -0.7054
  185SAPI  H14X21273   0.691   3.600   8.686  3.1471 -0.0400 -1.1815
  185SAPI  H14Y21274   0.680   3.433   8.758 -1.7963 -0.7982  1.4251
  185SAPI  C31521275   0.872   3.547   8.771 -0.6452  0.4535  0.1279
  185SAPI  H15X21276   0.910   3.504   8.866 -0.8457  1.9777  0.9382
  185SAPI  H15Y21277   0.909   3.652   8.775 -2.9300  1.3763 -1.2163
  185SAPI  C31621278   0.926   3.484   8.650  0.5306  1.1953 -0.3193
  185SAPI  H16X21279   0.886   3.534   8.559  0.1511 -0.3852 -1.0744
  185SAPI  H16Y21280   0.883   3.381   8.645 -0.9270  1.5597  2.6686
  185SAPI  C31721281   1.075   3.459   8.641 -0.0074 -0.3938  0.3536
  185SAPI  H17X21282   1.112   3.405   8.731  0.3235  2.1393  1.8657
  185SAPI  H17Y21283   1.114   3.562   8.659  0.4709 -0.3225 -1.0054
  185SAPI  C31821284   1.123   3.392   8.513 -0.0409  0.1478  0.7816
  185SAPI  H18X21285   1.109   3.453   8.421  0.4834  0.3366  0.8222
  185SAPI  H18Y21286   1.072   3.294   8.503  1.6184 -0.6767 -0.0703
  185SAPI  H18Z21287   1.227   3.354   8.507 -0.4857 -0.8531 -1.2719
  186SAPI   C1221288   2.192   1.552  10.578 -0.4182 -0.4393  0.5628
  186SAPI    H221289   2.213   1.642  10.640 -0.3930  0.0896 -0.2021
  186SAPI    O221290   2.174   1.588  10.442  0.5522 -0.1133  0.3552
  186SAPI   HO221291   2.118   1.665  10.433  1.3227  0.6441  1.6077
  186SAPI   C1321292   2.311   1.457  10.599 -0.2355 -0.1278 -0.1777
  186SAPI    H321293   2.303   1.441  10.708  2.3230  0.0469  0.0938
  186SAPI    O321294   2.432   1.519  10.576 -0.4138 -0.0248  0.7065
  186SAPI   HO321295   2.419   1.564  10.492 -0.9438 -1.2931  0.0839
  186SAPI   C1421296   2.286   1.322  10.529 -0.0716  0.5194 -0.0750
  186SAPI    H421297   2.277   1.337  10.419  0.4669  0.2331 -0.1606
  186SAPI    O421298   2.401   1.236  10.550  0.3888 -0.1454  0.4780
  186SAPI   HO421299   2.404   1.193  10.636  1.4655  3.7078  2.5798
  186SAPI   C1521300   2.152   1.259  10.568  0.0773  0.3752  0.3827
  186SAPI    H521301   2.160   1.221  10.672  1.8056  2.4579  1.0913
  186SAPI    O521302   2.118   1.152  10.478 -0.1636 -0.6127 -0.3104
  186SAPI   HO521303   2.050   1.100  10.522 -0.3432 -1.0427 -1.0710
  186SAPI   C1621304   2.037   1.361  10.555  0.2420 -0.6478 -0.4801
  186SAPI    H621305   2.023   1.372  10.445  1.0857  0.2035 -0.5127
  186SAPI    O621306   1.915   1.309  10.608 -0.1711 -0.0155 -0.9295
  186SAPI   HO621307   1.848   1.362  10.564 -0.2997 -1.6826 -2.8855
  186SAPI   C1121308   2.065   1.489  10.627  0.7498 -0.6278  0.4938
  186SAPI    H121309   2.079   1.475  10.736  0.1149 -0.5233  0.5874
  186SAPI     P21310   1.922   1.711  10.707 -0.1415  0.2016 -0.6511
  186SAPI   O1321311   2.014   1.691  10.822  0.1821 -0.3185  0.5450
  186SAPI   O1421312   1.772   1.739  10.729  0.2936  0.0527 -0.2139
  186SAPI   O1221313   1.948   1.580  10.610 -0.0055  0.8228  0.5266
  186SAPI   O1121314   1.980   1.823  10.616 -0.1216 -0.1273  0.1474
  186SAPI    C121315   1.916   1.893  10.507  0.1949  0.0713 -0.1593
  186SAPI    HA21316   1.806   1.874  10.502  0.1371 -0.7358  2.7065
  186SAPI    HB21317   1.921   2.004  10.517 -4.5003  0.6071 -1.1601
  186SAPI    C221318   1.977   1.867  10.363  0.2826 -0.5077  0.0108
  186SAPI    HS21319   1.923   1.929  10.288  1.0321  0.1804  0.0149
  186SAPI   O2121320   1.968   1.733  10.319 -0.0378 -0.1317  0.1764
  186SAPI   C2121321   1.854   1.685  10.293 -0.2917 -0.0323 -0.2201
  186SAPI   O2221322   1.745   1.744  10.274 -0.2234  0.3922 -0.0471
  186SAPI   C2221323   1.858   1.532  10.275  0.3979 -0.3994  0.3934
  186SAPI   H2R21324   1.852   1.492  10.379 -0.3833  0.9200  0.8776
  186SAPI   H2S21325   1.763   1.513  10.221  1.2103  1.0174 -1.6565
  186SAPI    C321326   2.120   1.918  10.354 -0.8002 -0.2603 -0.5502
  186SAPI    HX21327   2.178   1.861  10.429 -0.5167 -0.2873 -0.7901
  186SAPI    HY21328   2.121   2.026  10.381  0.3324 -0.3666 -0.1284
  186SAPI   O3121329   2.179   1.898  10.223  1.1002 -0.0453  0.1683
  186SAPI   C3121330   2.310   1.900  10.209 -0.0221 -0.4337 -0.2454
  186SAPI   O3221331   2.387   1.934  10.293 -0.5660  0.1960  0.3323
  186SAPI   C3221332   2.350   1.841  10.069  0.5851 -0.2788  0.5440
  186SAPI   H2X21333   2.401   1.747  10.100 -0.8802 -1.1973  0.2659
  186SAPI   H2Y21334   2.422   1.908  10.018 -0.8726  1.5309  0.7628
  186SAPI   C2321335   1.970   1.463  10.196 -0.4282 -0.4930  0.3708
  186SAPI   H3R21336   1.957   1.354  10.209 -1.5266 -0.3995  0.0746
  186SAPI   H3S21337   2.071   1.487  10.237 -0.3799 -1.2853  0.7299
  186SAPI   C2421338   1.982   1.505  10.051  0.2565 -0.0284  0.8660
  186SAPI   H4R21339   2.077   1.453  10.025 -0.2646 -1.4001  1.6042
  186SAPI   H4S21340   2.002   1.613  10.037 -0.1476  0.0500  0.8796
  186SAPI   C2521341   1.871   1.445   9.965  0.1302 -0.0106 -0.2207
  186SAPI   H5R21342   1.856   1.338   9.981  3.6613 -0.4844  0.8629
  186SAPI   C2621343   1.785   1.510   9.880 -0.6667 -0.0253 -0.6454
  186SAPI   H6R21344   1.710   1.448   9.827 -1.8633  0.0084  0.9250
  186SAPI   C2721345   1.782   1.663   9.864  0.7210 -0.0541 -0.2595
  186SAPI   H7R21346   1.843   1.687   9.774 -0.6344  0.2026 -1.1344
  186SAPI   H7S21347   1.841   1.709   9.946 -1.9772  1.4183  0.9716
  186SAPI   C2821348   1.643   1.723   9.866  0.2621  0.3920 -0.4065
  186SAPI   H8R21349   1.606   1.723   9.970  2.9146  1.0102  0.6268
  186SAPI   C2921350   1.567   1.762   9.759  0.1551 -0.3986  0.2583
  186SAPI   H9R21351   1.463   1.793   9.772  0.8784  2.4558 -0.1585
  186SAPI  C21021352   1.615   1.753   9.610 -0.7564 -0.0182  0.1091
  186SAPI  H10R21353   1.687   1.671   9.592  0.5422  0.9151  0.8646
  186SAPI  H10S21354   1.668   1.848   9.586 -2.4251  0.5754 -1.4352
  186SAPI  C21121355   1.509   1.739   9.505  0.2305 -0.5278 -0.0118
  186SAPI  H11R21356   1.406   1.717   9.536  0.0944  0.3739  0.1967
  186SAPI  C21221357   1.532   1.748   9.373  0.1897  0.2011 -0.2624
  186SAPI  H12R21358   1.450   1.759   9.300  1.0487 -2.6825 -1.8021
  186SAPI  C21321359   1.669   1.773   9.313  0.8730  0.1706 -0.3772
  186SAPI  H13R21360   1.749   1.774   9.390 -0.3669 -0.9589  1.0006
  186SAPI  H13S21361   1.677   1.873   9.265  0.3860  0.3853 -0.0168
  186SAPI  C21421362   1.695   1.667   9.215 -0.2069  0.1673 -0.1304
  186SAPI  H14R21363   1.685   1.569   9.264  0.6370 -1.8243 -3.6295
  186SAPI  C21521364   1.735   1.677   9.091 -0.5202 -0.3123  0.1886
  186SAPI  H15R21365   1.766   1.586   9.038  0.7457 -0.2345  0.7721
  186SAPI  C21621366   1.766   1.808   9.021 -0.6799 -0.1112 -0.5776
  186SAPI  H16R21367   1.746   1.902   9.078  2.8526  0.4506 -0.0210
  186SAPI  H16S21368   1.710   1.822   8.926 -2.1230  0.4798  0.3292
  186SAPI  C21721369   1.918   1.817   8.995  0.6482  0.2947  0.2577
  186SAPI  H17R21370   1.942   1.732   8.927 -0.3406  0.3196 -0.1503
  186SAPI  H17S21371   1.976   1.803   9.088  0.1026  1.0024  0.7155
  186SAPI  C21821372   1.974   1.942   8.919 -0.2059  0.3356  0.4587
  186SAPI  H18R21373   1.959   2.037   8.974 -1.3241  0.9839 -0.8856
  186SAPI  H18S21374   1.926   1.954   8.819  0.8310  2.9315  0.2135
  186SAPI  C21921375   2.126   1.926   8.883  0.3746  0.4866  0.2403
  186SAPI  H19R21376   2.158   2.018   8.831 -1.5126  0.9490 -0.1671
  186SAPI  H19S21377   2.140   1.838   8.816  0.6768 -0.1764  1.1496
  186SAPI  C22021378   2.218   1.901   9.010  0.3725 -0.0350  0.8170
  186SAPI  H20R21379   2.323   1.924   8.982 -0.6970  0.4693 -3.4178
  186SAPI  H20S21380   2.214   1.793   9.036  1.1171 -0.1679  0.4110
  186SAPI  H20T21381   2.172   1.969   9.085 -2.3856 -1.1055  0.2234
  186SAPI   C3321382   2.242   1.800   9.964  0.4298  0.9370 -0.1605
  186SAPI   H3X21383   2.170   1.884   9.965 -0.2410  0.4309 -1.8919
  186SAPI   H3Y21384   2.194   1.707  10.002  2.3738  0.2122  0.6974
  186SAPI   C3421385   2.284   1.775   9.820 -0.5540  0.1936 -0.8833
  186SAPI   H4X21386   2.361   1.696   9.818  0.3646  1.0654 -0.6733
  186SAPI   H4Y21387   2.320   1.870   9.774  0.0420  0.3853 -0.0370
  186SAPI   C3521388   2.167   1.730   9.727  0.9249  0.0264 -0.4811
  186SAPI   H5X21389   2.103   1.820   9.710  1.5479  0.4062 -0.8497
  186SAPI   H5Y21390   2.122   1.646   9.783  2.5761  0.4822  1.6705
  186SAPI   C3621391   2.211   1.675   9.590 -0.3083 -0.5791  0.1712
  186SAPI   H6X21392   2.289   1.597   9.605  1.4226  1.3889  2.0457
  186SAPI   H6Y21393   2.264   1.755   9.535  0.0720  0.1969  1.6135
  186SAPI   C3721394   2.094   1.604   9.504 -0.3976 -0.6572 -0.0616
  186SAPI   H7X21395   2.007   1.673   9.501 -0.7939 -1.0957  0.9953
  186SAPI   H7Y21396   2.063   1.509   9.551  0.0537 -0.8969 -0.2417
  186SAPI   C3821397   2.141   1.587   9.367 -0.6619  0.2831  0.2714
  186SAPI   H8X21398   2.237   1.531   9.355 -1.2189 -0.7079  0.3245
  186SAPI   H8Y21399   2.149   1.690   9.327 -2.6270  0.0231 -0.9344
  186SAPI   C3921400   2.049   1.516   9.262 -0.4645 -0.6280 -0.9324
  186SAPI   H9X21401   1.970   1.592   9.243 -1.4980 -1.5290 -0.3513
  186SAPI   H9Y21402   2.004   1.428   9.313 -3.2970  1.1537 -0.1093
  186SAPI  C31021403   2.128   1.469   9.141  0.4131 -0.0570  0.4444
  186SAPI  H10X21404   2.172   1.367   9.148  0.3633 -0.5273 -3.4956
  186SAPI  H10Y21405   2.205   1.542   9.109  0.8427 -1.9771 -3.5625
  186SAPI  C31121406   2.040   1.450   9.018  0.5244 -0.4698 -0.3231
  186SAPI  H11X21407   2.023   1.547   8.965  0.1399 -0.4065 -0.0910
  186SAPI  H11Y21408   1.941   1.402   9.038  0.9300 -1.6281 -1.0182
  186SAPI  C31221409   2.112   1.347   8.921  0.3834  0.3189  0.2364
  186SAPI  H12X21410   2.108   1.249   8.973  2.8806  0.0781  0.0670
  186SAPI  H12Y21411   2.219   1.374   8.911  0.0674  2.3074  1.5343
  186SAPI  C31321412   2.056   1.354   8.779  0.6181  0.4623 -0.7472
  186SAPI  H13X21413   2.076   1.456   8.741  2.8402  0.2808 -0.2011
  186SAPI  H13Y21414   1.945   1.352   8.782  0.5551  0.4514 -2.3180
  186SAPI  C31421415   2.112   1.257   8.675  0.0946  0.2004 -0.6145
  186SAPI  H14X21416   2.090   1.153   8.706  0.1656 -0.2430 -1.9781
  186SAPI  H14Y21417   2.222   1.272   8.678  0.0978  0.3369 -1.2137
  186SAPI  C31521418   2.067   1.279   8.540 -0.0950 -0.2829 -0.3633
  186SAPI  H15X21419   1.961   1.313   8.534  0.5433  1.8372 -0.6261
  186SAPI  H15Y21420   2.071   1.180   8.490  0.6693 -0.4199 -0.0487
  186SAPI  C31621421   2.139   1.384   8.457 -0.1797  0.7178 -0.3620
  186SAPI  H16X21422   2.240   1.355   8.419 -0.8245 -0.3587 -1.3122
  186SAPI  H16Y21423   2.159   1.462   8.533 -1.4337 -0.6706  1.4691
  186SAPI  C31721424   2.050   1.453   8.352 -0.0105 -0.7477 -0.6304
  186SAPI  H17X21425   2.126   1.508   8.292  1.8605 -0.7332  1.5736
  186SAPI  H17Y21426   1.983   1.520   8.410 -0.4695 -2.0355  0.3612
  186SAPI  C31821427   1.966   1.359   8.267 -0.3357 -0.0073 -0.3910
  186SAPI  H18X21428   1.928   1.403   8.173 -1.5662 -0.0581  0.0607
  186SAPI  H18Y21429   1.879   1.322   8.326 -0.1150  1.5793  1.0073
  186SAPI  H18Z21430   2.022   1.265   8.249 -0.4283 -0.3974  1.1611
  187SAPI   C1221431   3.880   2.771   6.000  0.0983 -0.1656 -0.2731
  187SAPI    H221432   3.857   2.736   6.102  1.3384  2.5212  1.0163
  187SAPI    O221433   3.957   2.662   5.948  0.1891 -0.0485  0.0257
  187SAPI   HO221434   3.959   2.595   6.017 -0.6200  0.2180  0.3095
  187SAPI   C1321435   3.753   2.789   5.933 -0.4652  0.0258  0.5123
  187SAPI    H321436   3.686   2.870   5.967  0.4112  1.6320 -1.4052
  187SAPI    O321437   3.669   2.680   5.941  0.6483  0.1450  0.0744
  187SAPI   HO321438   3.603   2.687   6.010  1.4106 -0.1878  0.8402
  187SAPI   C1421439   3.776   2.833   5.792 -0.3166  0.2334 -0.0519
  187SAPI    H421440   3.845   2.768   5.733  0.6257  0.8865  0.2993
  187SAPI    O421441   3.651   2.844   5.723 -0.0479  0.3319 -0.0935
  187SAPI   HO421442   3.669   2.872   5.633  1.9761  0.1532  0.2023
  187SAPI   C1521443   3.841   2.969   5.800 -0.6831 -0.1932  0.2270
  187SAPI    H521444   3.769   3.032   5.856 -0.7331  0.5747 -0.6827
  187SAPI    O521445   3.855   3.035   5.673  0.2915 -0.1666 -0.1879
  187SAPI   HO521446   3.817   3.123   5.673 -0.5034 -0.4989  0.6938
  187SAPI   C1621447   3.978   2.971   5.872  0.0208  0.1362  0.1207
  187SAPI    H621448   4.045   2.913   5.805 -0.4304 -0.8826  0.5154
  187SAPI    O621449   4.036   3.099   5.896  0.0905 -0.0676 -0.3235
  187SAPI   HO621450   3.996   3.143   5.971  1.2545  1.8315 -0.7377
  187SAPI   C1121451   3.957   2.911   6.014  0.3493  0.2739 -0.4352
  187SAPI    H121452   3.887   2.980   6.066 -0.0978 -1.7073  1.7365
  187SAPI     P21453   4.105   2.956   6.234 -0.1894  0.2519 -0.3953
  187SAPI   O1321454   4.084   3.101   6.228  0.1224  0.2189  0.2244
  187SAPI   O1421455   4.241   2.905   6.267  0.4148  0.2708  0.1370
  187SAPI   O1221456   4.077   2.886   6.085 -0.1511 -0.5427 -0.4979
  187SAPI   O1121457   3.992   2.887   6.325  0.3305 -0.6418  0.2498
  187SAPI    C121458   3.870   2.957   6.354  0.0049  1.4378  0.5175
  187SAPI    HA21459   3.830   3.014   6.268  1.1368 -1.0613 -1.7784
  187SAPI    HB21460   3.794   2.879   6.376  1.4037 -0.2055 -0.2138
  187SAPI    C221461   3.886   3.055   6.475 -0.3584  0.9611 -0.1376
  187SAPI    HS21462   3.915   3.156   6.439  1.3096 -0.3853 -2.8499
  187SAPI   O2121463   3.980   2.991   6.563 -0.1168  0.5509 -0.3943
  187SAPI   C2121464   4.066   3.077   6.621 -0.3222 -0.3374 -0.3711
  187SAPI   O2221465   4.079   3.192   6.588  0.4002  0.4778 -1.0929
  187SAPI   C2221466   4.122   3.025   6.754  1.1193  0.0807 -0.3811
  187SAPI   H2R21467   4.150   2.918   6.740 -0.3615 -0.4007  0.1373
  187SAPI   H2S21468   4.207   3.085   6.793  0.5463  1.1651 -0.7600
  187SAPI    C321469   3.744   3.075   6.555  0.4141 -0.6509 -0.5142
  187SAPI    HX21470   3.713   2.977   6.597 -1.6591  0.4102  0.5677
  187SAPI    HY21471   3.658   3.104   6.492  0.2519 -1.8042 -0.8525
  187SAPI   O3121472   3.764   3.178   6.665  0.5201  1.2652  0.2531
  187SAPI   C3121473   3.717   3.302   6.634 -0.6898 -0.1327 -0.4089
  187SAPI   O3221474   3.687   3.337   6.521 -0.5627  0.1232  0.7369
  187SAPI   C3221475   3.718   3.389   6.762 -0.2255 -0.2609 -0.0133
  187SAPI   H2X21476   3.661   3.483   6.746  0.0049 -0.2483 -0.8353
  187SAPI   H2Y21477   3.824   3.415   6.785 -0.2054 -1.3146  1.1911
  187SAPI   C2321478   4.011   3.018   6.869  0.1752  0.1722 -0.1322
  187SAPI   H3R21479   3.910   2.981   6.842  0.3304 -1.4024  1.2463
  187SAPI   H3S21480   3.991   3.121   6.906  2.1749  0.0685  1.3945
  187SAPI   C2421481   4.066   2.936   6.983  0.1949 -0.7452 -0.0817
  187SAPI   H4R21482   4.145   2.990   7.040 -2.2922 -0.1502  3.0490
  187SAPI   H4S21483   4.106   2.846   6.931  3.3776 -0.0776  0.9856
  187SAPI   C2521484   3.959   2.882   7.077 -0.2361  0.1136  0.2778
  187SAPI   H5R21485   3.872   2.849   7.019 -0.4509  0.8386  0.1716
  187SAPI   C2621486   3.956   2.883   7.213 -0.0002  0.2702 -0.7451
  187SAPI   H6R21487   3.869   2.842   7.267 -2.0879  1.0621 -3.3178
  187SAPI   C2721488   4.074   2.935   7.299  0.7160  0.3487  0.2634
  187SAPI   H7R21489   4.125   3.018   7.245  0.9879  1.2439  1.8534
  187SAPI   H7S21490   4.142   2.848   7.296 -1.3962 -1.4701  2.0004
  187SAPI   C2821491   4.042   2.967   7.444 -0.4026 -0.4524 -0.2288
  187SAPI   H8R21492   3.995   3.062   7.472 -0.8723 -1.4397  2.5807
  187SAPI   C2921493   4.065   2.881   7.543  0.4819  0.3155 -0.3481
  187SAPI   H9R21494   4.044   2.917   7.645 -2.0808  1.3605 -1.1648
  187SAPI  C21021495   4.127   2.750   7.536  0.0927  0.0977  0.5616
  187SAPI  H10R21496   4.234   2.778   7.533 -0.2736  1.8995  2.0080
  187SAPI  H10S21497   4.113   2.699   7.439 -2.1401 -2.3907  2.0375
  187SAPI  C21121498   4.100   2.641   7.637 -0.5950  0.3847 -0.0127
  187SAPI  H11R21499   4.019   2.575   7.602  0.8249 -0.8950 -1.0215
  187SAPI  C21221500   4.145   2.630   7.762  0.4997  0.3867  0.3396
  187SAPI  H12R21501   4.111   2.542   7.818  2.5914 -0.2904  0.6285
  187SAPI  C21321502   4.243   2.720   7.826 -0.2280 -0.7001 -0.1698
  187SAPI  H13R21503   4.311   2.768   7.753  1.7502  0.7665  2.4468
  187SAPI  H13S21504   4.301   2.655   7.896  1.9975  2.1233  0.7927
  187SAPI  C21421505   4.179   2.827   7.913 -0.1160 -0.0978 -0.0628
  187SAPI  H14R21506   4.084   2.875   7.883 -0.1587  0.0675  0.3282
  187SAPI  C21521507   4.233   2.887   8.022 -0.9497  0.4214 -0.3268
  187SAPI  H15R21508   4.183   2.980   8.055 -1.2437  0.2698 -0.3456
  187SAPI  C21621509   4.368   2.850   8.084 -0.0057  0.2399 -0.4349
  187SAPI  H16R21510   4.410   2.943   8.127  2.2295 -1.1866  0.6489
  187SAPI  H16S21511   4.450   2.810   8.020 -0.1793 -1.9350  0.6017
  187SAPI  C21721512   4.352   2.749   8.194  0.3445  0.2807  0.2801
  187SAPI  H17R21513   4.276   2.776   8.271 -1.5821  1.1496 -1.7863
  187SAPI  H17S21514   4.449   2.754   8.247  0.2432  1.4516  0.3779
  187SAPI  C21821515   4.309   2.608   8.150 -0.0729 -0.2949 -0.1302
  187SAPI  H18R21516   4.383   2.585   8.070  0.1366 -1.2228  0.3181
  187SAPI  H18S21517   4.201   2.612   8.124 -0.3373  2.3893  1.0357
  187SAPI  C21921518   4.316   2.492   8.255 -0.0518  0.3342 -0.5910
  187SAPI  H19R21519   4.422   2.497   8.290 -0.4973  1.9916  0.6485
  187SAPI  H19S21520   4.292   2.394   8.209  0.1345 -0.4682  0.9648
  187SAPI  C22021521   4.227   2.521   8.377 -0.0881 -0.2026  0.2507
  187SAPI  H20R21522   4.270   2.608   8.432  0.7392  0.8311 -1.9119
  187SAPI  H20S21523   4.208   2.444   8.455 -0.9165  0.5947  0.8516
  187SAPI  H20T21524   4.126   2.563   8.359 -0.3834 -1.3833 -1.0328
  187SAPI   C3321525   3.663   3.328   6.897  0.5464  0.2839 -0.0816
  187SAPI   H3X21526   3.679   3.402   6.978 -2.2916  0.9647 -0.0494
  187SAPI   H3Y21527   3.713   3.230   6.907 -1.1152 -0.6489 -0.5011
  187SAPI   C3421528   3.504   3.318   6.882  0.0244 -0.5688  0.6245
  187SAPI   H4X21529   3.445   3.408   6.857 -0.8046 -1.1840  0.3156
  187SAPI   H4Y21530   3.464   3.303   6.985 -0.1086 -0.6144  0.5648
  187SAPI   C3521531   3.458   3.203   6.799 -0.1428  0.1389  0.0137
  187SAPI   H5X21532   3.521   3.112   6.803 -0.3766 -0.2406 -2.6215
  187SAPI   H5Y21533   3.485   3.233   6.695  0.0586  2.7026  0.7415
  187SAPI   C3621534   3.314   3.167   6.810  0.2397  0.1921  0.1677
  187SAPI   H6X21535   3.253   3.237   6.749  1.3764  0.5280 -0.6243
  187SAPI   H6Y21536   3.288   3.184   6.916 -0.2058  1.8888 -0.1862
  187SAPI   C3721537   3.278   3.029   6.762  0.0134 -0.0877  0.8217
  187SAPI   H7X21538   3.321   2.947   6.823 -3.0677 -0.5190  2.6047
  187SAPI   H7Y21539   3.315   3.029   6.657  0.6324  0.0224  1.0344
  187SAPI   C3821540   3.122   3.009   6.754 -0.2057  0.7487  0.5896
  187SAPI   H8X21541   3.099   2.956   6.659 -4.2225  0.8475  1.3361
  187SAPI   H8Y21542   3.077   3.108   6.732  1.6552  0.6303 -5.5003
  187SAPI   C3921543   3.050   2.935   6.877 -0.3111 -0.0788  0.8382
  187SAPI   H9X21544   3.065   2.825   6.870  0.9109  0.1588 -2.3019
  187SAPI   H9Y21545   2.941   2.956   6.880 -0.4380 -0.6948  0.5792
  187SAPI  C31021546   3.112   3.001   7.008 -0.1766 -0.6555  0.1234
  187SAPI  H10X21547   3.105   3.111   7.000  0.3941 -0.7236 -1.8340
  187SAPI  H10Y21548   3.219   2.973   7.012 -0.2847 -1.0625  0.1973
  187SAPI  C31121549   3.051   2.956   7.141 -0.1126  0.4129  0.4469
  187SAPI  H11X21550   3.062   2.846   7.148  0.1788  0.4924  1.3449
  187SAPI  H11Y21551   2.945   2.982   7.159 -0.3779  0.9622 -1.5883
  187SAPI  C31221552   3.129   3.011   7.263  1.0814  0.4485  0.0234
  187SAPI  H12X21553   3.109   3.120   7.253  0.6232  0.3623 -0.0521
  187SAPI  H12Y21554   3.238   3.000   7.249  0.8737  0.8715 -2.2783
  187SAPI  C31321555   3.076   2.968   7.402  0.0574  0.1326  0.1103
  187SAPI  H13X21556   3.130   3.022   7.483 -0.6419 -0.8579  1.2748
  187SAPI  H13Y21557   3.105   2.861   7.416  0.3459 -0.1919 -2.4942
  187SAPI  C31421558   2.929   3.008   7.419 -0.0410 -0.5211  0.6575
  187SAPI  H14X21559   2.864   2.952   7.348  2.3731  1.1578 -3.2474
  187SAPI  H14Y21560   2.921   3.116   7.394  0.8413 -0.9398 -1.6293
  187SAPI  C31521561   2.891   2.980   7.564  0.4286 -0.8768 -0.2562
  187SAPI  H15X21562   2.970   3.016   7.633 -0.1904 -0.7485  0.3932
  187SAPI  H15Y21563   2.898   2.870   7.575 -0.9377 -1.0771 -1.1670
  187SAPI  C31621564   2.755   3.022   7.615  0.0677  0.2569  0.6948
  187SAPI  H16X21565   2.684   2.969   7.548  0.7310  1.9309 -1.4380
  187SAPI  H16Y21566   2.732   3.129   7.592 -1.1017 -0.4663 -1.8839
  187SAPI  C31721567   2.731   3.006   7.766 -0.0524  0.4904  0.3960
  187SAPI  H17X21568   2.781   2.912   7.796 -0.9454 -0.1006  0.0767
  187SAPI  H17Y21569   2.621   2.998   7.773 -0.0652  1.1985  1.1866
  187SAPI  C31821570   2.776   3.126   7.843  1.0586  0.0143  0.6994
  187SAPI  H18X21571   2.767   3.096   7.950 -0.8201  1.0808  0.8729
  187SAPI  H18Y21572   2.708   3.213   7.837  0.4022 -0.4598  1.1494
  187SAPI  H18Z21573   2.879   3.157   7.813  0.1454 -1.3553 -4.9877
  188SAPI   C1221574   3.835   0.756   6.100 -0.2399  0.6054 -0.5659
  188SAPI    H221575   3.913   0.833   6.082  0.6068  0.3155  1.6220
  188SAPI    O221576   3.700   0.801   6.119 -0.0212  0.0896 -0.3050
  188SAPI   HO221577   3.696   0.852   6.201  0.8186  1.8775 -1.3040
  188SAPI   C1321578   3.846   0.664   5.977  0.5231 -0.3942 -0.1841
  188SAPI    H321579   3.952   0.633   5.966  1.3441  2.4631 -1.4719
  188SAPI    O321580   3.827   0.742   5.859 -0.0386 -0.0863  0.3484
  188SAPI   HO321581   3.910   0.745   5.810 -1.5171 -1.4927 -2.5210
  188SAPI   C1421582   3.760   0.540   5.994  0.3679 -0.8711  0.1515
  188SAPI    H421583   3.654   0.564   6.019  0.0835 -2.6419  0.8662
  188SAPI    O421584   3.760   0.464   5.874  0.4520 -0.3687 -0.5574
  188SAPI   HO421585   3.670   0.435   5.857  0.6317 -1.2938  0.0232
  188SAPI   C1521586   3.803   0.462   6.115 -0.8942 -0.0564  0.8558
  188SAPI    H521587   3.908   0.431   6.095 -1.5366 -1.3838 -0.6901
  188SAPI    O521588   3.724   0.346   6.131  0.5060 -0.0471 -0.6080
  188SAPI   HO521589   3.633   0.359   6.159  0.1879 -1.7658 -0.7230
  188SAPI   C1621590   3.810   0.548   6.241  0.6138 -0.1224  0.8732
  188SAPI    H621591   3.710   0.583   6.275 -0.9757  0.1549 -3.4331
  188SAPI    O621592   3.865   0.485   6.354 -0.2390  0.0413 -0.3469
  188SAPI   HO621593   3.832   0.532   6.431 -1.0134 -0.7892 -0.1541
  188SAPI   C1121594   3.883   0.687   6.224 -0.2388  0.3921  0.4778
  188SAPI    H121595   3.988   0.656   6.203 -0.8505  0.5418 -3.4223
  188SAPI     P21596   3.979   0.879   6.372 -0.3891  0.0756  0.0276
  188SAPI   O1321597   3.938   1.014   6.413 -0.7740  0.3202 -0.4227
  188SAPI   O1421598   4.076   0.882   6.256 -0.1907  0.6285  0.0913
  188SAPI   O1221599   3.861   0.772   6.341  0.5064 -0.2865 -0.1215
  188SAPI   O1121600   4.055   0.813   6.490 -0.7074 -0.4433  0.0553
  188SAPI    C121601   4.106   0.681   6.504  0.8641 -0.0740  0.3823
  188SAPI    HA21602   4.035   0.624   6.567  1.0452 -2.1476 -1.1758
  188SAPI    HB21603   4.076   0.622   6.414 -2.5276  0.4130  1.0695
  188SAPI    C221604   4.258   0.676   6.539 -0.5260  0.7259  0.1548
  188SAPI    HS21605   4.273   0.576   6.586 -1.4678 -0.1555 -1.3594
  188SAPI   O2121606   4.297   0.785   6.628  0.1192  0.5886 -0.0273
  188SAPI   C2121607   4.252   0.769   6.756  0.5632 -0.0395 -0.1281
  188SAPI   O2221608   4.179   0.684   6.796  0.2204 -0.0024  0.2355
  188SAPI   C2221609   4.305   0.881   6.850 -0.0115 -0.3564 -0.1901
  188SAPI   H2R21610   4.414   0.898   6.834  0.0259  1.0719  1.3185
  188SAPI   H2S21611   4.270   0.979   6.812 -0.4910  0.1690  1.5335
  188SAPI    C321612   4.346   0.687   6.411  0.1614  0.8832 -0.2976
  188SAPI    HX21613   4.333   0.795   6.388  0.9369  0.9319 -0.5439
  188SAPI    HY21614   4.319   0.618   6.329  3.6702  0.1198 -0.9434
  188SAPI   O3121615   4.476   0.665   6.461 -0.7704  0.2906 -0.1653
  188SAPI   C3121616   4.511   0.541   6.495  0.1807  0.1259  0.5566
  188SAPI   O3221617   4.444   0.444   6.467  0.1250  0.0265  0.8519
  188SAPI   C3221618   4.645   0.543   6.570 -0.7035 -0.5214  0.2589
  188SAPI   H2X21619   4.727   0.576   6.503 -0.7856  1.2515  0.9878
  188SAPI   H2Y21620   4.659   0.437   6.599 -1.4226 -1.1811 -1.6350
  188SAPI   C2321621   4.267   0.869   6.996 -0.4500  0.1705  0.0121
  188SAPI   H3R21622   4.158   0.850   7.000 -0.9107  2.2759 -1.1765
  188SAPI   H3S21623   4.285   0.965   7.049 -1.8228  0.0524  0.7509
  188SAPI   C2421624   4.345   0.752   7.069 -0.3754 -1.2718  0.6417
  188SAPI   H4R21625   4.453   0.774   7.058 -0.9860  0.8998 -2.7815
  188SAPI   H4S21626   4.329   0.654   7.018  0.6853 -2.2842  2.1605
  188SAPI   C2521627   4.298   0.744   7.211 -0.3356  0.1831 -0.0801
  188SAPI   H5R21628   4.199   0.695   7.213  0.8495 -2.8288 -3.9507
  188SAPI   C2621629   4.364   0.773   7.325 -0.1838 -0.1981 -0.4659
  188SAPI   H6R21630   4.302   0.766   7.416 -2.0665  1.7517 -1.5064
  188SAPI   C2721631   4.506   0.816   7.343 -0.0299  0.3594 -0.5721
  188SAPI   H7R21632   4.514   0.896   7.265 -0.8961  0.8165 -0.2062
  188SAPI   H7S21633   4.571   0.734   7.305  0.5401  0.9807 -0.9616
  188SAPI   C2821634   4.520   0.858   7.489 -0.2115  0.2667  0.0952
  188SAPI   H8R21635   4.459   0.944   7.522  1.8454  1.7674  0.1885
  188SAPI   C2921636   4.592   0.794   7.583  0.0641  0.8070 -0.2677
  188SAPI   H9R21637   4.591   0.830   7.687 -2.0188 -1.6341  0.6729
  188SAPI  C21021638   4.675   0.674   7.552  0.8006 -0.1612 -0.5260
  188SAPI  H10R21639   4.770   0.679   7.610  0.2063 -1.2521  0.5911
  188SAPI  H10S21640   4.709   0.670   7.447  0.3167  2.6135 -0.8599
  188SAPI  C21121641   4.597   0.546   7.588 -0.0821  0.3820 -0.9667
  188SAPI  H11R21642   4.493   0.539   7.550 -0.9333  1.1113  1.0815
  188SAPI  C21221643   4.643   0.434   7.648 -0.2449 -0.3121  0.1823
  188SAPI  H12R21644   4.564   0.359   7.655 -1.0657  0.4997 -0.1894
  188SAPI  C21321645   4.786   0.399   7.685  0.0526  0.2805  0.0069
  188SAPI  H13R21646   4.860   0.479   7.707 -0.1029  0.2556  0.6342
  188SAPI  H13S21647   4.832   0.328   7.613 -0.6462 -4.8844  4.0848
  188SAPI  C21421648   4.772   0.307   7.804  0.1734  1.0135  0.2928
  188SAPI  H14R21649   4.718   0.213   7.785  0.7984  1.0572 -1.9738
  188SAPI  C21521650   4.789   0.330   7.937 -0.0232  0.4802  0.2238
  188SAPI  H15R21651   4.757   0.248   8.004  0.1044  1.1897  1.1757
  188SAPI  C21621652   4.847   0.452   7.998 -0.1402 -0.0140  0.2088
  188SAPI  H16R21653   4.887   0.525   7.925  0.5748  0.1505  0.7534
  188SAPI  H16S21654   4.936   0.412   8.051  0.9908 -1.8480 -2.8122
  188SAPI  C21721655   4.748   0.530   8.090  0.2558 -0.1373  0.4457
  188SAPI  H17R21656   4.722   0.454   8.167  1.9939  0.0048  1.2215
  188SAPI  H17S21657   4.656   0.564   8.039  0.5357  0.9743  0.6601
  188SAPI  C21821658   4.818   0.643   8.163  0.6556  0.4569 -0.6958
  188SAPI  H18R21659   4.813   0.738   8.105  0.2841  1.7996  1.4142
  188SAPI  H18S21660   4.920   0.616   8.197  0.6409  1.8042  0.5224
  188SAPI  C21921661   4.747   0.659   8.297  0.0219 -0.1553  0.0384
  188SAPI  H19R21662   4.703   0.564   8.336 -0.1931 -0.5193 -1.0474
  188SAPI  H19S21663   4.658   0.722   8.279  0.3825  0.5467  0.6720
  188SAPI  C22021664   4.833   0.736   8.398 -0.1758 -0.6438 -0.0855
  188SAPI  H20R21665   4.769   0.783   8.475 -0.8895 -0.2775 -0.8804
  188SAPI  H20S21666   4.894   0.813   8.346  0.2405 -0.6016  0.4551
  188SAPI  H20T21667   4.905   0.664   8.443  0.5449  0.1874  0.1079
  188SAPI   C3321668   4.639   0.639   6.690  0.2272 -0.3556 -0.2132
  188SAPI   H3X21669   4.563   0.607   6.764 -0.6419  4.0112  1.0747
  188SAPI   H3Y21670   4.600   0.738   6.657 -0.0249 -0.0125  1.0475
  188SAPI   C3421671   4.772   0.651   6.763 -0.3899  0.0128  0.2035
  188SAPI   H4X21672   4.848   0.688   6.691 -1.9884  0.8644 -1.1023
  188SAPI   H4Y21673   4.799   0.545   6.780  0.4241  0.3243  0.9468
  188SAPI   C3521674   4.777   0.724   6.900  0.7257  0.2134  0.5197
  188SAPI   H5X21675   4.690   0.681   6.953  1.6155 -1.8945  0.3817
  188SAPI   H5Y21676   4.746   0.829   6.886  1.5204  0.6183  1.6082
  188SAPI   C3621677   4.907   0.732   6.979 -0.6046 -0.8491 -0.2347
  188SAPI   H6X21678   4.984   0.784   6.918 -1.0712 -1.2007 -1.1505
  188SAPI   H6Y21679   4.938   0.627   6.998  0.2209 -0.5065  0.3412
  188SAPI   C3721680   4.896   0.802   7.121  0.2053 -0.0087  0.0990
  188SAPI   H7X21681   4.797   0.788   7.170  0.5682 -1.3495  0.4775
  188SAPI   H7Y21682   4.903   0.910   7.096 -1.2453  0.0313 -0.2073
  188SAPI   C3821683   5.007   0.751   7.215 -0.4195 -0.8317  0.1061
  188SAPI   H8X21684   5.106   0.772   7.169 -0.2439 -0.7249  0.5299
  188SAPI   H8Y21685   4.992   0.642   7.233 -1.5023 -0.6903  0.1681
  188SAPI   C3921686   5.005   0.830   7.346 -0.6368  0.1238 -0.2286
  188SAPI   H9X21687   4.898   0.824   7.377 -0.3523  2.1106  1.3326
  188SAPI   H9Y21688   5.034   0.936   7.331 -2.7072  0.8175  0.3913
  188SAPI  C31021689   5.089   0.774   7.461  0.3070  0.6496 -0.5685
  188SAPI  H10X21690   5.198   0.757   7.446  0.4464 -0.9318  1.6018
  188SAPI  H10Y21691   5.061   0.667   7.475  2.2020  0.1081 -0.5177
  188SAPI  C31121692   5.060   0.839   7.596 -0.4305 -0.0291  0.5129
  188SAPI  H11X21693   4.957   0.810   7.625 -0.5165 -2.9110 -2.1384
  188SAPI  H11Y21694   5.057   0.950   7.590 -0.3666  0.1271  2.5442
  188SAPI  C31221695   5.147   0.784   7.708 -0.2838 -0.3762  0.7493
  188SAPI  H12X21696   5.253   0.818   7.703  0.2533 -2.0904 -0.7324
  188SAPI  H12Y21697   5.148   0.675   7.692  0.6807 -0.2840  0.0981
  188SAPI  C31321698   5.083   0.821   7.840  0.3425  0.3413 -0.5981
  188SAPI  H13X21699   4.980   0.779   7.840  0.7348 -0.7538  1.2811
  188SAPI  H13Y21700   5.075   0.931   7.842 -0.2542  0.2880  0.4712
  188SAPI  C31421701   5.165   0.772   7.955 -0.9919 -0.0811 -0.0430
  188SAPI  H14X21702   5.271   0.806   7.947 -0.2202 -2.6294 -2.0779
  188SAPI  H14Y21703   5.174   0.662   7.962  2.0517  0.1207  0.4387
  188SAPI  C31521704   5.117   0.827   8.091 -0.6307  0.5743 -0.1949
  188SAPI  H15X21705   5.010   0.799   8.104 -0.2233 -0.4672  1.2508
  188SAPI  H15Y21706   5.116   0.938   8.091 -1.8499  0.5747 -0.3089
  188SAPI  C31621707   5.184   0.768   8.215  0.2196  0.0923  0.8617
  188SAPI  H16X21708   5.172   0.661   8.189 -2.0407  0.7834 -1.3536
  188SAPI  H16Y21709   5.127   0.796   8.306 -0.5956  0.3993  0.2667
  188SAPI  C31721710   5.329   0.811   8.220  0.5164  0.2154  0.1147
  188SAPI  H17X21711   5.339   0.920   8.240  0.0313  0.1252  0.8450
  188SAPI  H17Y21712   5.367   0.779   8.120  0.0375 -0.0433  0.0110
  188SAPI  C31821713   5.410   0.729   8.323  0.4276  0.5738 -0.6833
  188SAPI  H18X21714   5.520   0.739   8.308  0.6482 -1.2705 -0.5050
  188SAPI  H18Y21715   5.398   0.621   8.301 -1.7609  0.0291  2.5884
  188SAPI  H18Z21716   5.383   0.748   8.429  1.3387  0.2750 -0.3827
  189POPC     N21717   1.804   2.979  11.329  0.1802  0.0462  0.3813
  189POPC   C1221718   1.793   3.005  11.174 -0.7868  0.1762 -0.2305
  189POPC  H12A21719   1.890   3.012  11.125 -1.2645  0.3721 -1.1835
  189POPC  H12B21720   1.754   3.104  11.154  1.2041  0.8684 -1.0612
  189POPC   C1321721   1.868   3.100  11.389  0.0635  0.2434  0.1075
  189POPC  H13A21722   1.887   3.074  11.492 -3.0619 -0.1216  0.6773
  189POPC  H13B21723   1.956   3.129  11.334 -0.1618 -1.0318 -0.9732
  189POPC  H13C21724   1.810   3.191  11.397  2.5473  1.9383 -0.0272
  189POPC   C1421725   1.668   2.944  11.391  0.1668  0.0574  0.3176
  189POPC  H14A21726   1.637   2.850  11.348  0.2883  0.4782 -0.7111
  189POPC  H14B21727   1.672   2.946  11.499 -0.5270 -2.5315  0.4557
  189POPC  H14C21728   1.600   3.019  11.354  1.8312  1.4866 -0.0321
  189POPC   C1521729   1.908   2.877  11.347  0.2201 -0.2775 -0.3050
  189POPC  H15A21730   1.863   2.779  11.337  0.6916 -0.5476  0.1432
  189POPC  H15B21731   1.939   2.868  11.450 -0.4784 -2.4915 -0.2287
  189POPC  H15C21732   2.000   2.883  11.291 -0.2651  1.3051 -0.9930
  189POPC   C1121733   1.700   2.909  11.087  0.0994  0.3121 -0.4133
  189POPC  H11A21734   1.716   2.807  11.128  1.0140  0.3455 -0.6571
  189POPC  H11B21735   1.734   2.908  10.981  1.2779  1.4395 -0.0701
  189POPC     P21736   1.452   2.865  11.024 -0.7562 -0.1338  0.3724
  189POPC   O1321737   1.339   2.962  11.010  0.1047  0.0744 -0.7148
  189POPC   O1421738   1.435   2.733  11.086 -0.2887  0.4210 -0.1377
  189POPC   O1221739   1.562   2.950  11.104  0.1563 -0.1863 -0.0091
  189POPC   O1121740   1.518   2.848  10.882 -0.0194 -0.0039 -0.3645
  189POPC    C121741   1.431   2.856  10.764  0.4358 -0.3320  0.0657
  189POPC    HA21742   1.499   2.886  10.682 -0.6944  1.9514 -0.1283
  189POPC    HB21743   1.370   2.949  10.760  0.9797  0.0069 -0.6495
  189POPC    C221744   1.365   2.717  10.726  0.5200 -0.5731 -0.4926
  189POPC    HS21745   1.315   2.682  10.819 -0.6655  1.5545 -0.2635
  189POPC   O2121746   1.461   2.631  10.657 -0.1262 -0.3169 -0.2279
  189POPC   C2121747   1.423   2.501  10.663  0.1045 -0.2682 -0.0229
  189POPC   O2221748   1.340   2.451  10.735  0.3221 -0.6208 -0.2239
  189POPC   C2221749   1.501   2.428  10.557 -0.3144 -0.5802 -0.0114
  189POPC   H2R21750   1.594   2.479  10.522 -1.3427 -0.3011 -2.5496
  189POPC   H2S21751   1.436   2.423  10.467 -0.7010  0.4377  0.1966
  189POPC    C321752   1.243   2.751  10.633 -0.4741  0.2728  0.2496
  189POPC    HX21753   1.188   2.840  10.672  1.2465  1.4566  0.0826
  189POPC    HY21754   1.173   2.665  10.643  2.0457 -1.9194  0.2319
  189POPC   O3121755   1.286   2.775  10.499 -0.1137 -0.1310 -0.5395
  189POPC   C3121756   1.187   2.789  10.421 -0.0904  0.0288  0.3988
  189POPC   O3221757   1.071   2.761  10.442  0.0885 -0.1762 -0.0614
  189POPC   C3221758   1.240   2.868  10.307  0.5514 -0.7738  1.2327
  189POPC   H2X21759   1.349   2.887  10.316  0.6020  0.3444 -0.9917
  189POPC   H2Y21760   1.194   2.968  10.320 -0.7565 -1.1292 -0.3522
  189POPC   C2321761   1.545   2.288  10.596 -0.4238 -0.4099 -0.3666
  189POPC   H3R21762   1.458   2.234  10.638  0.3126 -2.2774 -1.1243
  189POPC   H3S21763   1.623   2.299  10.674 -0.4048  0.4452 -0.4957
  189POPC   C2421764   1.584   2.196  10.475 -0.1550  1.6585 -0.0551
  189POPC   H4R21765   1.649   2.120  10.523  1.2246  3.4663  1.0482
  189POPC   H4S21766   1.655   2.244  10.404  0.7337 -1.3527 -1.3741
  189POPC   C2521767   1.474   2.140  10.385 -0.0452 -0.8449  0.3287
  189POPC   H5R21768   1.426   2.218  10.323  2.4929  0.1074 -0.5610
  189POPC   H5S21769   1.397   2.113  10.461 -0.7741  3.7682  1.5577
  189POPC   C2621770   1.502   2.016  10.294 -1.2083  0.4516 -0.2156
  189POPC   H6R21771   1.404   1.979  10.258 -2.2109  0.9292  1.8703
  189POPC   H6S21772   1.538   1.936  10.363  0.0225  3.5088  2.9853
  189POPC   C2721773   1.604   2.033  10.184  0.4176  0.5733  0.2163
  189POPC   H7R21774   1.646   1.934  10.158 -0.9025 -0.1864  0.9060
  189POPC   H7S21775   1.690   2.079  10.237 -1.8330  1.3935  3.4338
  189POPC   C2821776   1.558   2.117  10.062  0.5401  0.1592  0.1958
  189POPC   H8R21777   1.652   2.149  10.012  1.8808 -2.6944  0.6641
  189POPC   H8S21778   1.508   2.212  10.091  1.7948  2.3678 -4.0394
  189POPC   C2921779   1.456   2.048   9.970 -0.5891  0.0941  0.0252
  189POPC   H9121780   1.444   1.942   9.996  0.6565  0.0769  0.5605
  189POPC  C21021781   1.392   2.112   9.866 -0.0243 -0.6049 -0.0938
  189POPC  H10121782   1.315   2.056   9.810  0.7272 -0.2513 -1.5102
  189POPC  C21121783   1.412   2.255   9.829 -0.6566 -0.7589 -0.2666
  189POPC  H11R21784   1.459   2.317   9.907  1.5398 -2.2178 -0.3558
  189POPC  H11S21785   1.307   2.292   9.819 -0.8006 -1.1649 -0.2757
  189POPC  C21221786   1.475   2.286   9.688  0.3016  0.3513 -0.0134
  189POPC  H12R21787   1.580   2.249   9.691 -0.4551 -1.9499  1.1464
  189POPC  H12S21788   1.493   2.394   9.670  1.3689  0.0390 -0.9181
  189POPC  C21321789   1.386   2.241   9.574 -0.1680 -0.1655 -0.1639
  189POPC  H13R21790   1.287   2.289   9.586  0.3852  0.5763  2.0081
  189POPC  H13S21791   1.363   2.133   9.588 -2.5968  0.2710 -0.4716
  189POPC  C21421792   1.452   2.271   9.433  0.3714  0.3797 -0.3927
  189POPC  H14R21793   1.551   2.226   9.454 -0.4453 -1.2684  0.1207
  189POPC  H14S21794   1.465   2.381   9.420  0.5330  0.4583  0.4018
  189POPC  C21521795   1.392   2.202   9.308  0.0677  0.1562  0.0847
  189POPC  H15R21796   1.283   2.218   9.293 -0.0159  1.0268  1.4413
  189POPC  H15S21797   1.393   2.091   9.318 -0.7027  0.1910  0.5389
  189POPC  C21621798   1.459   2.246   9.178 -0.4118 -1.4220 -0.0077
  189POPC  H16R21799   1.569   2.235   9.191 -0.2391 -1.1824 -1.1575
  189POPC  H16S21800   1.442   2.351   9.147  0.1171 -0.9225  1.2938
  189POPC  C21721801   1.417   2.156   9.055  0.0749  0.0469 -0.7044
  189POPC  H17R21802   1.477   2.186   8.967 -2.8138  0.5266 -2.6838
  189POPC  H17S21803   1.315   2.196   9.035 -0.9427 -1.5629  0.9236
  189POPC  C21821804   1.411   2.003   9.067 -0.1843  0.2840 -0.5849
  189POPC  H18R21805   1.325   1.987   9.135 -0.0861  0.8478 -0.3216
  189POPC  H18S21806   1.505   1.962   9.110 -0.1694 -0.8073 -1.6086
  189POPC  H18T21807   1.382   1.950   8.974 -1.2838 -1.3765  0.6290
  189POPC   C3321808   1.202   2.808  10.168  0.4583 -0.1207  0.7307
  189POPC   H3X21809   1.247   2.873  10.090 -1.7299 -0.5462 -0.9954
  189POPC   H3Y21810   1.093   2.790  10.157  0.7145 -0.5215 -1.5428
  189POPC   C3421811   1.279   2.678  10.160 -0.4688  0.0940 -0.5834
  189POPC   H4X21812   1.252   2.605  10.240  0.3471  0.6921  0.2745
  189POPC   H4Y21813   1.386   2.696  10.184 -0.6849  0.3445  0.2563
  189POPC   C3521814   1.251   2.603  10.031 -0.1090  0.0040  0.2360
  189POPC   H5X21815   1.153   2.549  10.035  1.1682 -2.5619 -0.7367
  189POPC   H5Y21816   1.322   2.524   9.999  0.9968  1.0649  0.0060
  189POPC   C3621817   1.264   2.689   9.900  0.3809  0.3669  0.4183
  189POPC   H6X21818   1.351   2.757   9.913  0.1942  0.5913  0.5128
  189POPC   H6Y21819   1.180   2.758   9.878  0.3023 -0.7029 -3.4110
  189POPC   C3721820   1.276   2.602   9.772 -0.3277 -0.4188  0.3180
  189POPC   H7X21821   1.218   2.508   9.778 -1.2319  0.0830 -0.3228
  189POPC   H7Y21822   1.380   2.572   9.749  0.4838  0.6093  2.4298
  189POPC   C3821823   1.230   2.675   9.644 -0.1168  0.3100 -0.2674
  189POPC   H8X21824   1.292   2.766   9.628 -1.5133  1.1410 -1.1978
  189POPC   H8Y21825   1.128   2.717   9.664  1.0923  2.7117  1.4795
  189POPC   C3921826   1.240   2.597   9.512  0.1474 -0.2149  0.6011
  189POPC   H9X21827   1.179   2.505   9.525 -0.1434 -0.5281 -2.2695
  189POPC   H9Y21828   1.340   2.556   9.487  0.2376  0.3769 -0.0341
  189POPC  C31021829   1.181   2.669   9.387 -0.4395 -0.5778 -0.2303
  189POPC  H10X21830   1.231   2.767   9.368 -0.2877 -0.4568  0.7290
  189POPC  H10Y21831   1.078   2.693   9.419 -0.0063 -1.4608  2.0046
  189POPC  C31121832   1.210   2.593   9.261 -0.5187  0.4101 -0.1481
  189POPC  H11X21833   1.180   2.488   9.282 -0.9119  0.2996 -1.2026
  189POPC  H11Y21834   1.319   2.600   9.238 -0.8016  0.4644 -1.5492
  189POPC  C31221835   1.132   2.646   9.137 -0.0314  0.0712 -0.0477
  189POPC  H12X21836   1.174   2.745   9.110  0.9681  0.2275  1.8949
  189POPC  H12Y21837   1.024   2.652   9.162  0.0001 -0.0820  0.1321
  189POPC  C31321838   1.131   2.547   9.020 -0.1241 -0.0405 -0.1276
  189POPC  H13X21839   1.046   2.577   8.955 -1.1242 -1.4703  0.4560
  189POPC  H13Y21840   1.100   2.443   9.044 -0.9275 -0.7566 -3.6694
  189POPC  C31421841   1.269   2.537   8.956 -0.6690  0.1151  0.0832
  189POPC  H14X21842   1.328   2.465   9.017 -1.7356 -1.1325 -0.3316
  189POPC  H14Y21843   1.313   2.639   8.953 -1.1754  0.3385 -3.2545
  189POPC  C31521844   1.268   2.486   8.805  0.5015  0.6941 -0.2269
  189POPC  H15X21845   1.255   2.568   8.731 -0.5124 -0.5707 -1.5092
  189POPC  H15Y21846   1.184   2.413   8.804 -0.2555  1.4621  1.6065
  189POPC  C31621847   1.399   2.421   8.775 -0.3204  0.5230  0.9880
  189POPC  H16X21848   1.489   2.455   8.830  1.2354  0.6997 -1.5012
  189POPC  H16Y21849   1.419   2.416   8.666  1.3499 -0.1867  1.2972
  189POPC  H16Z21850   1.390   2.314   8.803  0.8373  0.2812  0.4910
  190POPC     N21851   6.123   3.663  11.081 -0.6361  0.6543 -0.4368
  190POPC   C1221852   6.104   3.516  11.040 -0.0967  0.6425 -0.2579
  190POPC  H12A21853   6.157   3.506  10.946 -0.6000  1.6240 -0.6709
  190POPC  H12B21854   6.000   3.506  11.010 -0.6657  2.7021  0.8405
  190POPC   C1321855   6.060   3.763  10.994 -0.6553  0.0845 -0.4827
  190POPC  H13A21856   5.953   3.762  11.010 -0.2060  1.6525  4.2831
  190POPC  H13B21857   6.093   3.863  11.015 -2.2818  0.8043 -1.1335
  190POPC  H13C21858   6.072   3.735  10.891  0.2196 -1.4901  0.0187
  190POPC   C1421859   6.069   3.685  11.214  0.0792 -0.3831  0.3036
  190POPC  H14A21860   6.105   3.782  11.246 -0.1364  0.3545 -1.5606
  190POPC  H14B21861   5.962   3.694  11.203  0.1616 -0.2501 -0.4476
  190POPC  H14C21862   6.086   3.607  11.286 -1.4691 -1.1449 -0.1109
  190POPC   C1521863   6.265   3.697  11.084 -0.2780 -0.0657 -0.8903
  190POPC  H15A21864   6.282   3.799  11.114  1.2149 -1.0361  1.8585
  190POPC  H15B21865   6.313   3.686  10.988  1.1021 -1.5918 -0.0756
  190POPC  H15C21866   6.324   3.636  11.150 -1.2416  0.7058  0.7409
  190POPC   C1121867   6.150   3.396  11.119  0.7155  0.4932  0.0345
  190POPC  H11A21868   6.087   3.375  11.208 -0.6723  1.6786 -0.6300
  190POPC  H11B21869   6.253   3.415  11.156  1.4929  1.0734 -2.2653
  190POPC     P21870   6.109   3.148  11.060 -0.7566  0.1686  0.3548
  190POPC   O1321871   6.010   3.143  11.168  0.0082 -0.2765 -0.1199
  190POPC   O1421872   6.234   3.067  11.071  0.0364 -0.5973 -0.1591
  190POPC   O1221873   6.152   3.294  11.026 -0.0197  0.2640  0.1222
  190POPC   O1121874   6.028   3.108  10.933  0.0002  0.1411  0.0619
  190POPC    C121875   6.089   3.042  10.820  0.1977 -0.1778  0.6727
  190POPC    HA21876   6.006   2.998  10.762 -0.9364 -2.2532  3.5916
  190POPC    HB21877   6.164   2.963  10.843 -1.0767 -1.9154 -0.8918
  190POPC    C221878   6.169   3.144  10.741 -0.7170 -0.1312 -0.6002
  190POPC    HS21879   6.242   3.186  10.814  1.4677 -5.1444  0.5170
  190POPC   O2121880   6.085   3.240  10.687  0.3213  0.7563  0.0277
  190POPC   C2121881   6.125   3.370  10.668  0.9846  0.8135  0.1283
  190POPC   O2221882   6.222   3.417  10.719  0.1592  0.4653 -0.2071
  190POPC   C2221883   6.038   3.441  10.566 -0.1389 -0.4259  0.2336
  190POPC   H2R21884   6.042   3.545  10.604 -0.9288 -0.3252  0.0514
  190POPC   H2S21885   5.934   3.402  10.572 -0.7450  1.1143  0.0144
  190POPC    C321886   6.248   3.073  10.625 -0.5388  0.2992  0.1631
  190POPC    HX21887   6.176   3.033  10.550 -0.8449 -0.9853  1.1013
  190POPC    HY21888   6.293   2.980  10.666 -1.7092 -0.2101  0.3523
  190POPC   O3121889   6.333   3.155  10.552 -0.2298  0.0053  0.1762
  190POPC   C3121890   6.451   3.182  10.619  0.4221 -0.9238 -0.0968
  190POPC   O3221891   6.481   3.167  10.736 -0.0964  0.1822  0.1489
  190POPC   C3221892   6.531   3.257  10.517 -0.3428 -0.2190 -0.3324
  190POPC   H2X21893   6.580   3.343  10.568 -1.6981  0.7181 -0.5472
  190POPC   H2Y21894   6.476   3.293  10.427 -0.5726  0.9205  0.2538
  190POPC   C2321895   6.091   3.430  10.421 -0.1482  0.6594  0.5668
  190POPC   H3R21896   6.075   3.323  10.395  1.7329  0.6544 -0.7755
  190POPC   H3S21897   6.201   3.446  10.425 -0.1577  0.5362  1.7741
  190POPC   C2421898   6.017   3.524  10.323  0.0589  0.1215  0.3724
  190POPC   H4R21899   6.046   3.627  10.350  1.0609 -0.0411 -0.0308
  190POPC   H4S21900   5.907   3.521  10.333 -0.1194 -0.9748 -1.4158
  190POPC   C2521901   6.063   3.509  10.174 -0.5539 -0.6215 -0.5479
  190POPC   H5R21902   6.058   3.401  10.149  1.7468 -0.3907 -2.3210
  190POPC   H5S21903   6.168   3.543  10.167 -1.0235  1.1685  0.4463
  190POPC   C2621904   5.980   3.583  10.066  0.1848  0.8106  0.3563
  190POPC   H6R21905   5.974   3.690  10.096  1.7245  1.4054 -1.2912
  190POPC   H6S21906   5.879   3.542  10.042  0.5485 -0.1343  0.4031
  190POPC   C2721907   6.051   3.564   9.930  0.2505 -0.4041 -0.7402
  190POPC   H7R21908   6.042   3.460   9.891  0.9558 -0.5464 -0.5347
  190POPC   H7S21909   6.159   3.588   9.940  0.2722 -0.4948 -0.7549
  190POPC   C2821910   5.988   3.650   9.815  0.7205 -0.2279 -0.2937
  190POPC   H8R21911   6.068   3.723   9.792 -1.3051  2.3966  0.3844
  190POPC   H8S21912   5.906   3.713   9.857 -1.3963 -3.2907  0.5618
  190POPC   C2921913   5.928   3.567   9.704  0.0159 -0.1662  0.5867
  190POPC   H9121914   5.869   3.478   9.733  0.3731 -0.8316 -0.6384
  190POPC  C21021915   5.933   3.593   9.571 -0.5566 -0.3874  0.2155
  190POPC  H10121916   5.888   3.517   9.505  2.5028 -2.7232  0.5360
  190POPC  C21121917   6.001   3.716   9.511 -0.4269 -0.0877 -0.6644
  190POPC  H11R21918   6.102   3.721   9.557 -1.5694  1.5228  1.8972
  190POPC  H11S21919   5.929   3.798   9.534  0.5119  0.5718 -0.0501
  190POPC  C21221920   6.006   3.713   9.356 -0.4909  0.0227  0.3406
  190POPC  H12R21921   6.053   3.617   9.327 -0.1873 -0.4615  2.2860
  190POPC  H12S21922   6.066   3.799   9.319  0.2223 -0.9458 -0.8034
  190POPC  C21321923   5.866   3.729   9.298  0.5128  0.4511 -0.6056
  190POPC  H13R21924   5.830   3.831   9.319  3.5420  1.3985  0.4558
  190POPC  H13S21925   5.805   3.652   9.349  0.8202 -0.9144 -2.1805
  190POPC  C21421926   5.867   3.702   9.144  0.4872  0.2891  0.1121
  190POPC  H14R21927   5.946   3.754   9.086 -1.1202  1.1190 -1.4439
  190POPC  H14S21928   5.769   3.732   9.099  0.1881 -1.6912 -0.6445
  190POPC  C21521929   5.887   3.551   9.119  0.0303  0.3888 -0.4894
  190POPC  H15R21930   5.822   3.505   9.196  1.8651 -1.2867  0.1445
  190POPC  H15S21931   5.991   3.529   9.151 -0.3896  0.5208  1.0501
  190POPC  C21621932   5.845   3.491   8.986 -0.8305  0.6197  0.0524
  190POPC  H16R21933   5.907   3.545   8.910 -1.0068  0.6743 -0.0515
  190POPC  H16S21934   5.740   3.517   8.963 -0.6270  1.7117  0.2978
  190POPC  C21721935   5.876   3.344   8.976  0.6504  0.4221 -0.2117
  190POPC  H17R21936   5.789   3.285   9.012  0.2661 -0.6377 -2.6228
  190POPC  H17S21937   5.969   3.323   9.034  0.1695 -0.5257  0.2415
  190POPC  C21821938   5.917   3.299   8.831  0.1487 -0.5929 -0.1700
  190POPC  H18R21939   5.950   3.194   8.846 -1.6766 -1.3037 -0.8088
  190POPC  H18S21940   6.003   3.361   8.798  1.7788 -2.7622 -0.1970
  190POPC  H18T21941   5.837   3.307   8.754  0.2089 -0.7195 -0.2445
  190POPC   C3321942   6.631   3.156  10.465 -0.5185  0.0746 -1.1935
  190POPC   H3X21943   6.573   3.078  10.411 -0.8370 -0.7452  0.2909
  190POPC   H3Y21944   6.690   3.101  10.542 -1.1759  0.6152 -0.2782
  190POPC   C3421945   6.733   3.222  10.376  0.1637  0.4500  0.0410
  190POPC   H4X21946   6.817   3.150  10.356  1.6059  2.2453 -0.6598
  190POPC   H4Y21947   6.770   3.304  10.441  0.1709 -1.2820  2.3480
  190POPC   C3521948   6.667   3.274  10.246  0.2424  0.5960  0.3228
  190POPC   H5X21949   6.601   3.357  10.279 -0.7883 -0.1800  0.2691
  190POPC   H5Y21950   6.603   3.191  10.208  1.4241 -1.8865  3.2214
  190POPC   C3621951   6.768   3.324  10.142  0.8664 -0.1996  0.6003
  190POPC   H6X21952   6.822   3.232  10.110 -1.6812 -1.2018 -1.0724
  190POPC   H6Y21953   6.835   3.403  10.184  1.4238  1.6121 -3.2758
  190POPC   C3721954   6.702   3.378  10.011 -0.7026 -0.4682  0.6467
  190POPC   H7X21955   6.664   3.477  10.044 -1.6071 -0.9410  1.0456
  190POPC   H7Y21956   6.620   3.318   9.966  0.9490 -0.1400 -3.1599
  190POPC   C3821957   6.807   3.402   9.908  0.1646  0.4344  0.1668
  190POPC   H8X21958   6.863   3.310   9.881  2.5703  1.3223  1.8435
  190POPC   H8Y21959   6.891   3.467   9.941  0.8082 -1.3077  2.1261
  190POPC   C3921960   6.741   3.461   9.780 -0.1187  0.4908  0.4872
  190POPC   H9X21961   6.682   3.550   9.810 -2.4328 -1.1188  0.9163
  190POPC   H9Y21962   6.669   3.397   9.725  1.3414 -0.0088 -0.9341
  190POPC  C31021963   6.848   3.494   9.666  0.1881  0.0457 -0.9330
  190POPC  H10X21964   6.875   3.391   9.636  0.6888  0.2260 -1.1185
  190POPC  H10Y21965   6.940   3.542   9.707  0.8022 -1.6223 -0.2624
  190POPC  C31121966   6.794   3.569   9.542 -0.1356  0.0214 -0.4725
  190POPC  H11X21967   6.793   3.679   9.557  3.2031  0.3784 -2.1468
  190POPC  H11Y21968   6.686   3.542   9.535 -0.4481  1.1805 -0.3538
  190POPC  C31221969   6.878   3.542   9.419 -0.0527  0.4250  0.0195
  190POPC  H12X21970   6.879   3.432   9.402 -1.2388  0.5554 -0.9603
  190POPC  H12Y21971   6.985   3.564   9.443 -0.4563  1.4228  1.0279
  190POPC  C31321972   6.825   3.610   9.292 -0.0420  0.2999  0.2039
  190POPC  H13X21973   6.803   3.716   9.318 -1.9322  0.4216 -1.6786
  190POPC  H13Y21974   6.730   3.558   9.268 -0.3494  0.8394  0.2325
  190POPC  C31421975   6.917   3.588   9.174  0.0024  0.4224 -0.5559
  190POPC  H14X21976   6.930   3.479   9.159  1.8677  0.7569 -1.7393
  190POPC  H14Y21977   7.019   3.620   9.206  0.5500 -3.1177  1.6929
  190POPC  C31521978   6.867   3.627   9.039 -0.2796  0.2590 -0.0689
  190POPC  H15X21979   6.835   3.733   9.029  0.3770  0.5619  0.8530
  190POPC  H15Y21980   6.773   3.569   9.030  0.3003 -0.7191  0.0232
  190POPC  C31621981   6.957   3.578   8.926  0.6816  0.4403  0.2975
  190POPC  H16X21982   7.028   3.657   8.894  1.6917 -0.8412 -0.7401
  190POPC  H16Y21983   6.890   3.539   8.846  0.6356  2.0931 -0.5179
  190POPC  H16Z21984   7.025   3.498   8.963  1.1593  1.5237  1.8832
  191POPC     N21985   1.712   3.274   6.335  0.4959  0.1676  0.2558
  191POPC   C1221986   1.562   3.241   6.344 -0.0417 -0.8874 -0.0029
  191POPC  H12A21987   1.554   3.135   6.362  0.3369 -1.0400 -0.6728
  191POPC  H12B21988   1.513   3.249   6.248 -0.1569  0.2343  0.1346
  191POPC   C1321989   1.784   3.195   6.438  0.5636  0.7318 -0.3974
  191POPC  H13A21990   1.891   3.208   6.432  0.3440  1.8898 -3.4732
  191POPC  H13B21991   1.765   3.222   6.541  0.5579  1.6400 -0.6239
  191POPC  H13C21992   1.770   3.088   6.429  1.2586  0.5759  0.2543
  191POPC   C1421993   1.768   3.229   6.207  0.0148 -0.0401  0.5841
  191POPC  H14A21994   1.780   3.122   6.202  1.5739  0.0462  1.6948
  191POPC  H14B21995   1.714   3.251   6.116  0.5742  0.0119  0.2647
  191POPC  H14C21996   1.863   3.280   6.197 -0.2538  0.7689  1.9030
  191POPC   C1521997   1.734   3.422   6.354  0.2967  0.4038  1.3595
  191POPC  H15A21998   1.678   3.480   6.282 -0.0468  0.2529  1.5053
  191POPC  H15B21999   1.837   3.455   6.346 -0.3940  2.5743  0.6056
  191POPC  H15C22000   1.691   3.439   6.451 -0.7974 -0.0514  0.9638
  191POPC   C1122001   1.474   3.316   6.442  0.3005 -0.3887 -0.3008
  191POPC  H11A22002   1.525   3.302   6.540  0.0205  1.7808  0.2075
  191POPC  H11B22003   1.377   3.263   6.446  0.1718 -0.1698 -0.4926
  191POPC     P22004   1.363   3.548   6.481  0.2769 -0.1165 -0.1644
  191POPC   O1322005   1.237   3.542   6.406  0.1574 -0.3133 -0.0202
  191POPC   O1422006   1.432   3.678   6.485 -0.1846  0.3023  0.2744
  191POPC   O1222007   1.463   3.454   6.405 -0.3212  0.1054 -0.0604
  191POPC   O1122008   1.344   3.487   6.623 -0.0771  0.0611  0.3453
  191POPC    C122009   1.271   3.539   6.732 -0.0529  0.3264 -0.4039
  191POPC    HA22010   1.184   3.479   6.765 -0.3680  0.2662 -1.3148
  191POPC    HB22011   1.220   3.636   6.716  2.2224  1.4775 -1.1913
  191POPC    C222012   1.368   3.562   6.856 -1.0225  0.5915 -0.9747
  191POPC    HS22013   1.312   3.585   6.949  0.1370 -4.3811  1.2558
  191POPC   O2122014   1.460   3.670   6.824 -0.1386  0.3619 -0.3750
  191POPC   C2122015   1.413   3.786   6.835  0.0489 -0.9796  0.9182
  191POPC   O2222016   1.298   3.819   6.873 -0.1513 -0.1073  0.0989
  191POPC   C2222017   1.506   3.900   6.786 -0.6085 -0.4841  0.9231
  191POPC   H2R22018   1.459   3.999   6.804  0.5706  0.1876  0.4503
  191POPC   H2S22019   1.521   3.874   6.679 -0.1294  0.4909  0.7337
  191POPC    C322020   1.449   3.432   6.886 -0.8306  0.8702  0.3671
  191POPC    HX22021   1.505   3.403   6.794 -1.9553  0.1221 -0.1104
  191POPC    HY22022   1.371   3.352   6.890  2.2834 -2.4779 -0.3734
  191POPC   O3122023   1.518   3.432   7.013  0.3073  0.3322 -0.5371
  191POPC   C3122024   1.632   3.489   7.020 -0.1102 -0.4798  0.5182
  191POPC   O3222025   1.698   3.521   6.926 -0.1092 -0.5994  0.1543
  191POPC   C3222026   1.665   3.506   7.171  0.9693 -0.2885 -0.6018
  191POPC   H2X22027   1.650   3.404   7.212  2.9048  0.2184  1.5824
  191POPC   H2Y22028   1.590   3.582   7.201  1.3187  0.2015 -0.9377
  191POPC   C2322029   1.641   3.892   6.861 -0.3487  0.1075  0.2888
  191POPC   H3R22030   1.705   3.983   6.855  1.1312 -0.5383  3.9965
  191POPC   H3S22031   1.704   3.808   6.823 -0.7130  1.0904 -2.8379
  191POPC   C2422032   1.610   3.887   7.014 -0.6447  0.0258 -0.0703
  191POPC   H4R22033   1.705   3.863   7.065 -0.1644 -0.2918 -1.0987
  191POPC   H4S22034   1.551   3.795   7.037  2.9638 -2.2302  0.9509
  191POPC   C2522035   1.545   4.013   7.077 -0.5222 -0.6400  0.5132
  191POPC   H5R22036   1.459   4.045   7.015  0.7336  0.8084 -0.5537
  191POPC   H5S22037   1.618   4.095   7.057 -0.2941 -1.0196 -0.2282
  191POPC   C2622038   1.515   4.002   7.232  0.3187 -0.4259  0.6995
  191POPC   H6R22039   1.473   3.902   7.254  0.4168 -0.6984 -0.3240
  191POPC   H6S22040   1.439   4.080   7.255 -0.8699 -0.9324 -1.3258
  191POPC   C2722041   1.649   4.027   7.305  0.6838 -0.0064 -0.1084
  191POPC   H7R22042   1.683   4.125   7.266 -0.9466  1.2165  1.3750
  191POPC   H7S22043   1.720   3.944   7.283  0.5157 -0.3114  0.4758
  191POPC   C2822044   1.632   4.035   7.459 -0.1330  0.2637 -0.3887
  191POPC   H8R22045   1.609   3.942   7.515 -0.0725 -0.0090 -0.8164
  191POPC   H8S22046   1.548   4.104   7.483 -1.1272 -1.0186 -0.0556
  191POPC   C2922047   1.751   4.104   7.518 -0.3514  0.5653 -0.1885
  191POPC   H9122048   1.770   4.199   7.465 -2.5160  1.4734  0.5336
  191POPC  C21022049   1.813   4.078   7.635 -0.5765  0.0328 -0.0237
  191POPC  H10122050   1.900   4.138   7.665 -1.3007  0.8208  0.5371
  191POPC  C21122051   1.779   3.964   7.725  0.4051  0.1673 -0.0911
  191POPC  H11R22052   1.869   3.900   7.721  0.7050  0.6385 -2.0998
  191POPC  H11S22053   1.698   3.900   7.684  1.1934 -0.7357 -0.2793
  191POPC  C21222054   1.747   3.999   7.866  0.5438 -0.5104 -0.8786
  191POPC  H12R22055   1.649   4.051   7.880 -1.8318 -4.5672 -0.9699
  191POPC  H12S22056   1.816   4.073   7.911  0.7560 -0.5638 -1.1150
  191POPC  C21322057   1.742   3.869   7.959 -0.1531 -0.5685  0.0700
  191POPC  H13R22058   1.755   3.903   8.064  0.7954  2.9514 -1.0260
  191POPC  H13S22059   1.821   3.800   7.923  3.2490  3.2336 -0.5865
  191POPC  C21422060   1.605   3.799   7.953 -0.1797 -0.3148 -0.9771
  191POPC  H14R22061   1.609   3.771   7.845 -0.6270  1.5286 -1.5193
  191POPC  H14S22062   1.516   3.862   7.977  0.4057 -0.5131  2.0856
  191POPC  C21522063   1.607   3.696   8.063  0.0558 -0.1442  0.2016
  191POPC  H15R22064   1.613   3.741   8.165  1.9824  0.9243 -0.3483
  191POPC  H15S22065   1.691   3.627   8.043 -2.5637 -2.9883 -1.9952
  191POPC  C21622066   1.486   3.606   8.039  0.0312 -0.1334  0.0991
  191POPC  H16R22067   1.496   3.541   7.949 -0.5343 -2.7708  1.8317
  191POPC  H16S22068   1.392   3.665   8.036  0.7987  1.1062 -0.1519
  191POPC  C21722069   1.467   3.504   8.155 -0.8899 -0.4276  0.6376
  191POPC  H17R22070   1.506   3.542   8.252 -0.9822  0.4452  0.3371
  191POPC  H17S22071   1.536   3.423   8.122 -0.0928  0.4723  0.0432
  191POPC  C21822072   1.334   3.448   8.176  0.6078 -0.2098  0.1585
  191POPC  H18R22073   1.268   3.522   8.227  0.8305  0.3883 -0.4060
  191POPC  H18S22074   1.340   3.357   8.240  1.9773 -0.7636 -0.7232
  191POPC  H18T22075   1.279   3.416   8.085 -0.6726  1.7359  0.1888
  191POPC   C3322076   1.797   3.572   7.205 -0.5857 -0.1307  0.5303
  191POPC   H3X22077   1.799   3.681   7.184  2.2113 -0.3465 -0.7157
  191POPC   H3Y22078   1.874   3.523   7.142 -0.2630  1.1714 -0.1137
  191POPC   C3422079   1.828   3.542   7.353 -0.2283 -0.1065  0.1434
  191POPC   H4X22080   1.934   3.571   7.369  0.1300 -1.1477 -0.2178
  191POPC   H4Y22081   1.815   3.433   7.373 -2.2092 -0.2997 -1.7537
  191POPC   C3522082   1.743   3.615   7.452 -0.4455 -0.9297 -0.1962
  191POPC   H5X22083   1.639   3.578   7.448 -0.7885  0.0519 -0.6284
  191POPC   H5Y22084   1.754   3.725   7.443 -0.5089 -0.8741  0.3700
  191POPC   C3622085   1.787   3.584   7.603  0.1797 -0.3617  0.4354
  191POPC   H6X22086   1.714   3.637   7.667 -2.1560  1.0340 -3.0687
  191POPC   H6Y22087   1.886   3.627   7.629  0.0544 -0.8894  1.8532
  191POPC   C3722088   1.785   3.448   7.657  0.3576 -0.0809 -0.6252
  191POPC   H7X22089   1.868   3.395   7.605 -0.9830 -1.6488 -1.2768
  191POPC   H7Y22090   1.694   3.391   7.628  0.1147  0.4329 -0.8999
  191POPC   C3822091   1.809   3.431   7.805  0.1020  0.1834 -1.4587
  191POPC   H8X22092   1.727   3.449   7.877  1.3078 -0.3272  0.1039
  191POPC   H8Y22093   1.890   3.502   7.831 -0.2911 -0.6333  2.7329
  191POPC   C3922094   1.852   3.290   7.842 -0.4205 -0.1973 -0.1509
  191POPC   H9X22095   1.937   3.259   7.777 -2.0340 -0.9944 -1.9550
  191POPC   H9Y22096   1.768   3.222   7.817 -0.4088  0.1863 -1.2684
  191POPC  C31022097   1.898   3.272   7.987 -0.1667 -0.2893 -0.6109
  191POPC  H10X22098   1.993   3.328   7.999 -1.7204  1.9608  2.8635
  191POPC  H10Y22099   1.920   3.167   8.017 -1.5788 -0.5640 -0.4557
  191POPC  C31122100   1.793   3.318   8.090  0.2794  0.2474 -0.3242
  191POPC  H11X22101   1.702   3.271   8.047 -0.6137  1.9024 -0.3144
  191POPC  H11Y22102   1.778   3.428   8.090 -1.2687  0.0505 -0.9799
  191POPC  C31222103   1.814   3.258   8.232 -0.1361  0.3824  0.0166
  191POPC  H12X22104   1.831   3.150   8.216  1.6150  0.6507 -0.1316
  191POPC  H12Y22105   1.723   3.267   8.295 -1.1293  1.2905 -1.5019
  191POPC  C31322106   1.941   3.306   8.312  0.1384 -0.1829  0.1819
  191POPC  H13X22107   1.934   3.410   8.350  1.9328 -0.3974  1.2021
  191POPC  H13Y22108   2.033   3.309   8.251  0.1465  1.6745  0.2283
  191POPC  C31422109   1.958   3.206   8.430 -0.7667 -0.0508 -0.9148
  191POPC  H14X22110   1.953   3.100   8.396  0.0790  0.3238 -2.3234
  191POPC  H14Y22111   1.862   3.221   8.484 -1.0752 -0.5124 -1.3208
  191POPC  C31522112   2.069   3.242   8.522  0.8933 -0.2965  0.5769
  191POPC  H15X22113   2.087   3.350   8.540 -0.3124  0.1262 -0.6072
  191POPC  H15Y22114   2.159   3.205   8.469  0.7501 -0.3213  0.3496
  191POPC  C31622115   2.074   3.166   8.647  0.3469 -0.3484 -0.3608
  191POPC  H16X22116   2.073   3.057   8.624  2.4850 -0.1525 -1.6769
  191POPC  H16Y22117   1.990   3.186   8.718 -1.7342 -0.9814 -2.5167
  191POPC  H16Z22118   2.169   3.186   8.701  0.7743  0.8006 -1.5039
  192POPC     N22119   5.371   0.316   6.102  0.1310 -0.5128  0.3675
  192POPC   C1222120   5.494   0.312   6.185  0.7625  0.2972  0.1502
  192POPC  H12A22121   5.578   0.270   6.131  2.6113  0.3812  2.7056
  192POPC  H12B22122   5.478   0.247   6.270  1.1270  2.0731  1.6502
  192POPC   C1322123   5.393   0.423   5.990  0.0404  0.5066  0.3662
  192POPC  H13A22124   5.394   0.522   6.033  2.4961  1.0457 -0.7750
  192POPC  H13B22125   5.485   0.388   5.944 -0.4009  0.9410 -0.8884
  192POPC  H13C22126   5.312   0.426   5.919  0.9466  0.9548 -0.6834
  192POPC   C1422127   5.347   0.186   6.036 -0.3795 -0.6553  0.5013
  192POPC  H14A22128   5.297   0.114   6.100 -0.0662 -0.3762  1.0672
  192POPC  H14B22129   5.282   0.204   5.951 -1.1948  1.7426  1.5239
  192POPC  H14C22130   5.441   0.143   6.006 -0.1166 -0.8263  1.5214
  192POPC   C1522131   5.241   0.348   6.177  0.0007 -0.0414  0.8276
  192POPC  H15A22132   5.236   0.453   6.204 -1.8243 -0.0843  0.7929
  192POPC  H15B22133   5.228   0.287   6.265 -0.5992  1.0244  1.5130
  192POPC  H15C22134   5.156   0.328   6.114 -0.3135 -3.0430  2.0520
  192POPC   C1122135   5.556   0.450   6.245 -0.1707  0.0639  0.4184
  192POPC  H11A22136   5.643   0.416   6.305  0.4716 -0.6796 -0.8701
  192POPC  H11B22137   5.482   0.499   6.312 -0.2799  0.5677 -0.0651
  192POPC     P22138   5.736   0.568   6.102  0.0066  0.2147 -0.3424
  192POPC   O1322139   5.760   0.701   6.040  0.0362 -0.2745  0.0682
  192POPC   O1422140   5.797   0.446   6.040  0.3689  0.2405 -0.1085
  192POPC   O1222141   5.587   0.549   6.147 -0.4990  0.5041  0.5739
  192POPC   O1122142   5.806   0.588   6.240  0.0491 -0.7404 -0.1078
  192POPC    C122143   5.949   0.583   6.250  0.2403  0.0238 -0.1825
  192POPC    HA22144   5.972   0.649   6.336 -0.3494 -0.6342  0.4951
  192POPC    HB22145   5.995   0.628   6.159 -0.8036  1.4552 -0.0421
  192POPC    C222146   6.014   0.437   6.281  0.0542 -0.0219  0.1951
  192POPC    HS22147   5.995   0.365   6.199 -0.7237 -1.3522  1.5013
  192POPC   O2122148   5.935   0.394   6.397 -1.0783  0.3214  0.7290
  192POPC   C2122149   5.919   0.259   6.410  0.4187 -0.6272 -0.0539
  192POPC   O2222150   5.971   0.181   6.339  0.4344 -0.1896  0.3702
  192POPC   C2222151   5.845   0.231   6.543 -0.1443 -0.1978 -0.3866
  192POPC   H2R22152   5.760   0.300   6.561  0.7578  0.6113  0.9477
  192POPC   H2S22153   5.916   0.247   6.627  0.8440 -1.7863 -0.8782
  192POPC    C322154   6.155   0.445   6.333 -0.4372  0.3521 -0.2470
  192POPC    HX22155   6.228   0.467   6.252 -0.0727 -2.3260 -0.7433
  192POPC    HY22156   6.194   0.346   6.364  0.6794  0.6941 -0.4923
  192POPC   O3122157   6.166   0.550   6.431  0.5277 -0.7657 -0.4244
  192POPC   C3122158   6.168   0.526   6.559  1.2481 -0.0623  0.0902
  192POPC   O3222159   6.156   0.415   6.610  0.4932  0.6511 -0.6809
  192POPC   C3222160   6.185   0.649   6.645 -0.9225 -0.2264 -0.0968
  192POPC   H2X22161   6.219   0.737   6.586  1.3818  0.1535  1.6533
  192POPC   H2Y22162   6.266   0.622   6.716 -0.2908 -0.6833 -0.9793
  192POPC   C2322163   5.801   0.075   6.561  0.0780  0.4098  0.5917
  192POPC   H3R22164   5.879   0.014   6.511  0.9869  2.6538 -0.8866
  192POPC   H3S22165   5.703   0.053   6.514  0.6038 -0.7279  0.0064
  192POPC   C2422166   5.793   0.037   6.708 -0.3406 -0.1036 -0.1346
  192POPC   H4R22167   5.704   0.090   6.749 -0.9745  0.2344 -1.8393
  192POPC   H4S22168   5.875   0.076   6.773  0.6654  1.0896 -2.0133
  192POPC   C2522169   5.787  -0.113   6.724 -0.1275 -0.0881 -0.0956
  192POPC   H5R22170   5.887  -0.161   6.721  0.3649  0.9551 -2.0674
  192POPC   H5S22171   5.739  -0.154   6.633  0.9089 -3.1444  0.6417
  192POPC   C2622172   5.718  -0.160   6.851 -0.0951  0.0558 -0.0304
  192POPC   H6R22173   5.720  -0.271   6.850  1.0863  0.0685 -0.5051
  192POPC   H6S22174   5.614  -0.121   6.855 -0.1301  0.0720 -0.7955
  192POPC   C2722175   5.789  -0.122   6.983 -0.0477  0.0191  0.3775
  192POPC   H7R22176   5.769  -0.021   7.026  1.1592 -0.2873  1.7431
  192POPC   H7S22177   5.896  -0.107   6.959 -0.9287  3.4486 -2.3199
  192POPC   C2822178   5.761  -0.224   7.094  0.1978 -0.5359  0.5097
  192POPC   H8R22179   5.789  -0.323   7.052  3.8121 -0.1861  1.7663
  192POPC   H8S22180   5.651  -0.220   7.109  0.3045  1.0982  1.0876
  192POPC   C2922181   5.835  -0.204   7.218 -0.0786 -0.0046 -0.1219
  192POPC   H9122182   5.943  -0.207   7.199 -0.2676 -0.9789 -1.1215
  192POPC  C21022183   5.779  -0.174   7.342  0.1772 -0.1871  0.0267
  192POPC  H10122184   5.851  -0.172   7.426  1.8103 -1.2520 -1.2618
  192POPC  C21122185   5.634  -0.168   7.378  0.3637  0.3155 -0.2728
  192POPC  H11R22186   5.612  -0.239   7.460 -0.4428  1.2201  0.3236
  192POPC  H11S22187   5.574  -0.206   7.292 -0.3357  2.9049 -1.0282
  192POPC  C21222188   5.575  -0.024   7.399  0.1690 -0.0510  0.3201
  192POPC  H12R22189   5.601   0.004   7.503 -1.0774 -0.5961  0.7939
  192POPC  H12S22190   5.464  -0.030   7.397  0.2263 -1.7758  0.6301
  192POPC  C21322191   5.625   0.077   7.301  0.4275 -0.1774 -0.2036
  192POPC  H13R22192   5.606   0.036   7.200 -3.9418  0.5650  0.1320
  192POPC  H13S22193   5.735   0.085   7.318  0.0330  1.9648  1.8962
  192POPC  C21422194   5.558   0.224   7.298 -0.3364 -0.1754  0.6412
  192POPC  H14R22195   5.633   0.293   7.254  1.2805 -2.8081 -0.9963
  192POPC  H14S22196   5.538   0.247   7.405 -0.9208 -4.4935  1.6325
  192POPC  C21522197   5.431   0.223   7.211 -0.0266 -0.0093 -0.5261
  192POPC  H15R22198   5.350   0.160   7.254 -0.0021 -0.4155 -1.0648
  192POPC  H15S22199   5.461   0.169   7.119 -4.1348 -1.9532 -0.9233
  192POPC  C21622200   5.378   0.360   7.167 -0.5798  0.6624 -0.1397
  192POPC  H16R22201   5.462   0.406   7.110  1.0101 -1.3628  0.4414
  192POPC  H16S22202   5.366   0.430   7.253  1.0919  2.7574 -1.4828
  192POPC  C21722203   5.244   0.351   7.091  0.5260 -0.7355  0.4819
  192POPC  H17R22204   5.174   0.274   7.130  0.2829 -1.4818 -1.3286
  192POPC  H17S22205   5.256   0.308   6.990 -1.7230  1.2142 -0.7150
  192POPC  C21822206   5.168   0.484   7.072 -0.1039  0.1636  0.3188
  192POPC  H18R22207   5.168   0.534   7.171  1.8365  2.1293 -0.5858
  192POPC  H18S22208   5.066   0.459   7.035  0.5460  0.3297 -1.6911
  192POPC  H18T22209   5.222   0.553   7.003  2.6167 -2.2779 -0.1748
  192POPC   C3322210   6.059   0.695   6.722 -0.2003 -0.1389 -0.7845
  192POPC   H3X22211   6.041   0.630   6.811 -1.5284  0.9640 -0.2179
  192POPC   H3Y22212   5.970   0.692   6.656 -0.9170  0.9836  0.0965
  192POPC   C3422213   6.077   0.843   6.755  0.4078  0.5596  0.5101
  192POPC   H4X22214   6.061   0.899   6.661  1.3793 -0.6836 -0.4205
  192POPC   H4Y22215   6.179   0.860   6.795  0.0920  0.1430  1.5532
  192POPC   C3522216   5.983   0.901   6.856  0.7499  0.2877 -0.7358
  192POPC   H5X22217   5.876   0.873   6.844  0.9231 -0.2881 -0.9739
  192POPC   H5Y22218   5.983   1.011   6.842  0.4724 -0.0285 -3.9749
  192POPC   C3622219   6.026   0.876   7.001 -0.6559  0.2380 -1.3244
  192POPC   H6X22220   6.124   0.921   7.029 -0.0927 -1.4200 -0.4762
  192POPC   H6Y22221   6.043   0.766   7.008  2.4517  0.6753 -0.5792
  192POPC   C3722222   5.931   0.918   7.108  0.1237 -0.9534 -0.1956
  192POPC   H7X22223   5.824   0.912   7.080  0.3687  0.2744 -1.5341
  192POPC   H7Y22224   5.943   1.027   7.125 -0.9197 -0.9291  0.4349
  192POPC   C3822225   5.957   0.849   7.237  0.1979 -0.1731  0.1095
  192POPC   H8X22226   6.061   0.857   7.277 -0.9503  0.4854  3.3027
  192POPC   H8Y22227   5.933   0.742   7.219  2.0748 -0.4067 -1.3472
  192POPC   C3922228   5.858   0.900   7.346  0.8791 -0.0709  0.1044
  192POPC   H9X22229   5.752   0.892   7.314 -0.0549  2.8521  2.0596
  192POPC   H9Y22230   5.869   1.010   7.359  1.5766 -0.0888 -0.3198
  192POPC  C31022231   5.884   0.823   7.479  0.5770 -0.2529 -0.3005
  192POPC  H10X22232   5.988   0.834   7.515  0.7846 -2.7299  0.0116
  192POPC  H10Y22233   5.869   0.715   7.461  0.1656 -0.2566  0.0468
  192POPC  C31122234   5.787   0.870   7.585 -0.0209 -0.8100  0.3231
  192POPC  H11X22235   5.686   0.838   7.551 -0.4426  0.6843  0.0867
  192POPC  H11Y22236   5.789   0.981   7.586 -0.8397 -0.7531 -1.1623
  192POPC  C31222237   5.816   0.822   7.726  0.0077 -0.0857 -0.0487
  192POPC  H12X22238   5.832   0.712   7.720  1.1215  0.0753 -0.3327
  192POPC  H12Y22239   5.724   0.834   7.787 -0.5679  2.7830 -1.3004
  192POPC  C31322240   5.937   0.891   7.803 -0.1113 -0.2064  0.2885
  192POPC  H13X22241   5.945   0.995   7.767 -0.7281 -0.1350  0.3405
  192POPC  H13Y22242   6.031   0.839   7.773  0.6860  0.3503  1.7198
  192POPC  C31422243   5.909   0.879   7.949 -0.0613 -0.2438  0.3410
  192POPC  H14X22244   5.895   0.775   7.985  0.5074 -0.4716 -0.0934
  192POPC  H14Y22245   5.818   0.937   7.976  0.1282 -0.3900  1.3403
  192POPC  C31522246   6.024   0.943   8.037  0.4343  0.2925  0.1487
  192POPC  H15X22247   6.031   1.052   8.018  1.8098  0.3579  0.9069
  192POPC  H15Y22248   6.119   0.894   8.008  0.6902 -0.5061  2.1214
  192POPC  C31622249   6.001   0.920   8.187  0.1685  0.3136 -0.2307
  192POPC  H16X22250   5.906   0.970   8.218 -2.0667 -2.7102 -1.7441
  192POPC  H16Y22251   6.090   0.953   8.245  1.6294 -1.9806 -1.0183
  192POPC  H16Z22252   5.989   0.812   8.209  1.0632 -0.1301 -1.7676
  193SOD    SOD22253   0.586   2.674  16.675  0.2377  0.0253 -0.1316
  194SOD    SOD22254   5.618   1.323  11.142  0.4902 -0.4163 -0.0691
  195SOD    SOD22255   1.258   6.417  14.934  0.1885  0.1400  0.2719
  196SOD    SOD22256   4.986   2.423  12.571  0.3031 -0.2088  0.2235
  197SOD    SOD22257   3.760   2.503   5.326 -0.2120  0.0524 -0.1436
  198SOD    SOD22258   3.972   6.531  11.107 -0.1442 -0.0768  0.0983
  199SOD    SOD22259   2.276   2.183  13.404 -0.0077  0.1954 -0.3767
  200SOD    SOD22260   5.272   1.467   2.063 -0.3408  0.5470 -0.1017
  201SOD    SOD22261   1.581   3.472  11.218 -0.2269  0.0601  0.2761
  202SOD    SOD22262   3.022   2.278  16.673 -0.5238  0.6400  0.1298
  203SOD    SOD22263   3.058   5.860  12.569 -0.6279 -0.0847 -0.2088
  204SOD    SOD22264   4.591   0.052  13.359  0.2734 -0.0713  0.0094
  205SOD    SOD22265   6.395   0.865  12.597  0.2128  0.3529  0.2513
  206SOD    SOD22266   2.478   6.316   3.558 -0.2254 -0.0318  0.2717
  207SOD    SOD22267   3.562   3.117  10.980 -0.4440  0.0177  0.3055
  208SOD    SOD22268   6.721   2.204  14.342  0.1563 -0.5410 -0.8233
  209SOD    SOD22269   2.661   2.895  11.265 -0.1299  0.1684 -0.1394
  210SOD    SOD22270   1.020   5.023  14.493  0.0539  0.1586 -0.8638
  211SOD    SOD22271   3.029   3.834  10.947 -0.2291  0.0495  0.2375
  212SOD    SOD22272   6.243   0.695  10.537 -0.0564  0.0785 -0.0367
  213SOD    SOD22273   2.637   4.424  16.143  0.0464 -0.4602 -0.1306
  214SOD    SOD22274   1.168   5.471  16.681  0.0698 -0.4997 -0.3498
  215SOD    SOD22275   1.601   6.738  10.912  0.1466 -0.0782 -0.0310
  216SOD    SOD22276   6.000   5.667  11.058  0.1778  0.4916 -0.2149
  217SOD    SOD22277   3.115   1.240   5.215  0.2737  0.0255 -0.0355
  218SOD    SOD22278   0.870   3.945   5.815  0.4422 -0.4184  0.3749
  219SOD    SOD22279   6.319   1.514   4.091 -0.0091  0.0995 -0.1271
  220SOD    SOD22280   2.627   3.150   3.015  0.0391 -0.1760  0.0643
  221SOD    SOD22281   4.411   5.349   5.019  0.1525 -0.3112  0.1086
  222SOD    SOD22282   1.052   1.052  14.469  0.0694 -0.2915  0.0711
  223SOD    SOD22283   0.939   4.869   5.772  0.5481  0.0681  0.1180
  224SOD    SOD22284   4.855   3.075  12.527 -0.3953 -0.3704  0.0855
  225SOD    SOD22285   1.582   6.061   0.073  0.7863  0.1317  0.2614
  226SOD    SOD22286   3.960   4.221   4.222 -0.0539  0.1199  0.1712
  227SOD    SOD22287   5.068   1.761   6.142 -0.5933  0.1777  0.4816
  228SOD    SOD22288   0.265   5.400   1.255  0.0121 -0.1617  0.3984
  229SOD    SOD22289   1.217   0.624   4.908  0.3607 -0.1128  0.2550
  230SOD    SOD22290   5.655   1.042   5.714 -0.0080  0.3592  0.3803
  231SOD    SOD22291   6.263   1.960  10.482  0.5549  0.0463 -0.4537
  232SOD    SOD22292   4.932   2.942   5.595  0.5280 -0.2835  0.2975
  233SOD    SOD22293   4.966   6.621   4.636  0.3493  0.2942  0.1817
  234SOD    SOD22294   3.126   2.579  13.501 -0.0128  1.0508  0.6003
  235SOD    SOD22295   6.317   4.033  16.863  0.4152  0.1941  0.3319
  236SOD    SOD22296   3.008   2.342   5.755 -0.1445 -0.2839  0.2806
  237SOD    SOD22297   6.044   3.389  11.691  0.2442  0.0698 -0.0367
  238SOD    SOD22298   1.412   4.443  11.681 -0.1504  0.5992 -0.0745
  239SOD    SOD22299   0.023   4.787  15.235 -0.3444  0.1506  0.2064
  240SOD    SOD22300   3.008   0.407  15.646  0.1569  0.4335 -0.3697
  241SOD    SOD22301   0.058   3.125  10.927  0.2925  0.1920  0.1706
  242SOD    SOD22302   1.173   0.883  12.793  0.1696  0.0012  0.1874
  243SOD    SOD22303   5.463   4.453   1.986  0.2911  0.1013  0.3037
  244SOD    SOD22304   3.395   3.799  16.099 -0.3793  0.1941 -0.0655
  245SOD    SOD22305   6.191   6.081  13.716 -0.2298 -0.4894 -0.3600
  246SOD    SOD22306   2.689   5.881   1.548 -0.5980  0.1326 -0.2586
  247SOD    SOD22307   5.557   6.667   0.901 -0.4279 -0.1952  0.0444
  248SOD    SOD22308   5.269   3.535  16.144  0.0992  0.1536  0.2683
  249SOD    SOD22309   3.873   3.392  11.712  0.3627  0.0626 -0.0978
  250SOD    SOD22310   0.404   1.461   0.506 -0.0731  0.1250 -0.3068
  251SOD    SOD22311   1.069   2.555  14.836 -0.4391  0.1764  0.1933
  252SOD    SOD22312   5.473   4.497   3.327  0.1116 -0.5991 -0.5167
  253SOD    SOD22313   2.048   0.149   4.767 -0.2654 -0.3562 -0.0038
  254SOD    SOD22314   4.378   6.285   0.504  0.4503 -0.3007 -0.1145
  255SOD    SOD22315   1.590   1.125   5.632  0.2216 -0.0877  0.3267
  256SOD    SOD22316   1.698   5.244   2.334 -0.1414  0.0421 -0.0837
  257SOD    SOD22317   2.600   3.883  10.960  0.2280 -0.2663 -0.1602
  258SOD    SOD22318   1.673   4.605  12.648  0.1074  0.0652 -0.4480
  259SOD    SOD22319   2.427   5.975  14.575  0.0038 -0.1207 -0.2948
  260SOD    SOD22320   1.161   4.533  14.312  0.1562 -0.6111  0.0944
  261SOD    SOD22321   0.688   3.577  16.753  0.3486  0.3117 -0.3038
  262SOD    SOD22322   0.558   1.906   5.447 -0.2571  0.3296  0.1019
  263SOD    SOD22323   0.538   4.220   3.607  0.2669 -0.2696 -0.0883
  264SOD    SOD22324   1.215   5.971   5.956  0.4914 -0.5760  0.7697
  265SOD    SOD22325   2.239   3.369   0.872  0.4130 -0.0399  0.0230
  266SOD    SOD22326   2.293   2.812  13.718  0.0053  0.4930 -0.2690
  267SOD    SOD22327   0.947   5.628  10.928 -0.0160 -0.3497  0.2088
  268SOD    SOD22328   1.630   1.891   4.887  0.6275 -0.0491  0.4992
  269SOD    SOD22329   3.439   0.501   3.714  0.2492 -0.1047 -0.1306
  270CLA    CLA22330   4.616   1.087  14.024 -0.1496 -0.3363 -0.0129
  271CLA    CLA22331   1.613   4.353  16.597 -0.1208  0.3219 -0.7610
  272CLA    CLA22332   4.775   6.545  12.127 -0.2093 -0.2915 -0.2549
  273CLA    CLA22333   0.919   2.888  13.767  0.3543  0.3846 -0.0829
  274CLA    CLA22334   4.244   2.292   4.436 -0.1486 -0.0953  0.1995
  275CLA    CLA22335   4.518   1.039  11.735  0.0349 -0.3491 -0.0952
  276CLA    CLA22336   1.351   1.596   5.233 -0.4274  0.3991 -0.0964
  277CLA    CLA22337   6.709   0.633  12.185  0.0775 -0.1952 -0.0040
  278CLA    CLA22338   1.795   3.531  12.514 -0.0585  0.2073 -0.0106
  279CLA    CLA22339   1.505   0.309   4.709  0.2307 -0.3697 -0.2711
  280CLA    CLA22340   2.030   2.388   2.568 -0.5090  0.1414  0.3411
  281CLA    CLA22341   4.133   5.573  12.841 -0.2260 -0.2162 -0.0296
  282CLA    CLA22342   6.723   3.046   0.037 -0.5760 -0.1594 -0.0107
  283CLA    CLA22343   5.756   2.345   2.332 -0.1053  0.2603 -0.0095
  284CLA    CLA22344   0.281   6.086  14.109 -0.1381 -0.1567  0.2752
  285CLA    CLA22345   3.675   2.681  12.222 -0.2524  0.4685 -0.0404
  286CLA    CLA22346   1.079   4.789  14.346  0.2857 -0.2020 -0.3540
  287CLA    CLA22347   2.184   0.923   5.398  0.3996  0.1875  0.1100
  288CLA    CLA22348   1.322   2.142  15.491 -0.0819  0.1806  0.3388
  289CLA    CLA22349   2.971   1.335  12.228 -0.4166  0.6457  0.0637
  290CLA    CLA22350   4.216   0.325  12.672  0.3456  0.1405 -0.3936
  291CLA    CLA22351   5.580   0.793  16.844  0.0459  0.6094  0.0798
  292CLA    CLA22352   1.674   5.111   3.793 -0.0839  0.0277 -0.0651
  293CLA    CLA22353   0.450   3.312  16.257 -0.1889  0.1738 -0.0344
  294CLA    CLA22354   2.020   4.267  12.818 -0.5380  0.0176 -0.0778
  295CLA    CLA22355   5.988   4.644   0.777  0.2647  0.1294  0.3979
  296CLA    CLA22356   6.673   6.021  15.669 -0.2399  0.7644  0.1402
  297CLA    CLA22357   4.715   5.906   0.722  0.2294  0.1600 -0.0071
  298CLA    CLA22358   2.897   6.665   2.012  0.3041 -0.5947 -0.5645
  299CLA    CLA22359   2.824   5.446  16.316 -0.1841 -0.3825  0.4609
  300CLA    CLA22360   5.258   2.531  11.920 -0.7373 -0.0669  0.5926
  301CLA    CLA22361   0.656   6.214  15.083  0.0479  0.4515  0.1411
  302CLA    CLA22362   6.409   2.526   0.682 -0.0781 -0.0654  0.1582
  303CLA    CLA22363   4.070   5.379  14.852 -0.4708  0.2304 -0.7110
  304CLA    CLA22364   1.977   5.280  16.312 -0.2829  0.4365 -0.3238
  305CLA    CLA22365   2.919   2.120  13.667 -0.0103 -0.0257 -0.0183
  306CLA    CLA22366   5.202   4.558  14.673 -0.0991 -0.1066 -0.2119
  307CLA    CLA22367   1.781   3.684  15.470  0.0559 -0.0117 -0.1882
  308CLA    CLA22368   1.199   0.604  15.020  0.3735  0.3500 -0.3636
  309CLA    CLA22369   3.602   4.033   4.578  0.2826  0.4390 -0.3203
  310CLA    CLA22370   3.478   4.075   4.110  0.2302 -0.3788  0.3298
  311CLA    CLA22371   4.840   4.967   3.961  0.3940 -0.3040  0.1400
  312CLA    CLA22372   5.747   5.704   2.641  0.1680 -0.3111  0.0247
  313CLA    CLA22373   5.340   6.321   1.261  0.2011 -0.1067 -0.1960
  314CLA    CLA22374   3.394   3.449   0.332  0.5487  0.2340 -0.3525
  315CLA    CLA22375   3.790   3.167  15.579  0.1758 -0.2386  0.2048
  316CLA    CLA22376   0.136   2.186   5.325  0.3836  0.2424  0.1671
  317CLA    CLA22377   6.388   1.759   2.703 -0.2519  0.0179 -0.4376
  318CLA    CLA22378   4.913   5.114  14.537 -0.0014 -0.2307  0.3802
  319CLA    CLA22379   2.279   6.235   0.875  0.2687  0.0546  0.1969
  320CLA    CLA22380   4.448   1.552   2.909 -0.0587 -0.2193 -0.0899
  321CLA    CLA22381   4.617   4.221  15.991  0.1129 -0.4888 -0.0507
  322CLA    CLA22382   3.135   3.547  11.464 -0.1412  0.4625 -0.0497
  323TIP3   OH222383   3.103   2.012  14.226  0.6239 -0.4014  0.4048
  323TIP3    H122384   3.087   2.018  14.131  0.9433 -2.2569  0.2111
  323TIP3    H222385   3.176   1.951  14.235  0.4835 -0.3899  1.8688
  324TIP3   OH222386   5.756   6.365   0.120  0.1292  0.1142 -0.0905
  324TIP3    H122387   5.687   6.432   0.120 -0.2793 -0.2752 -1.4105
  324TIP3    H222388   5.777   6.353   0.213 -1.2430  0.5900  0.3116
  325TIP3   OH222389   0.511   2.288  15.054 -0.0298  0.1708 -0.1198
  325TIP3    H122390   0.529   2.198  15.026  0.2444  0.0715  0.3600
  325TIP3    H222391   0.430   2.281  15.105  0.5137  0.0254  0.7496
  326TIP3   OH222392   5.002   0.282  12.250 -0.0581  0.1713  0.3425
  326TIP3    H122393   5.035   0.329  12.173  1.0590  0.5273  1.0132
  326TIP3    H222394   4.971   0.198  12.215 -1.3189  1.0661 -0.7473
  327TIP3   OH222395   5.839   0.560  15.662  0.3276  0.0857  0.2958
  327TIP3    H122396   5.870   0.567  15.572 -1.0643  2.7773 -0.1057
  327TIP3    H222397   5.906   0.511  15.708  2.0105  0.2932 -1.8092
  328TIP3   OH222398   4.076   2.926   3.018 -0.5687 -0.2105 -0.3025
  328TIP3    H122399   4.005   2.976   2.979 -0.4583  0.1364 -0.0627
  328TIP3    H222400   4.145   2.990   3.034 -0.6739 -0.3111  0.6121
  329TIP3   OH222401   1.116   2.275   2.897 -0.0120 -0.3615  0.1724
  329TIP3    H122402   1.059   2.340   2.855 -0.0384 -0.9860 -0.7803
  329TIP3    H222403   1.136   2.212   2.828  0.3639 -1.1420  0.9741
  330TIP3   OH222404   5.385   0.753  12.450  0.4886 -0.6938 -0.2930
  330TIP3    H122405   5.390   0.698  12.528  0.1525  0.0075  0.2351
  330TIP3    H222406   5.292   0.772  12.439  0.4422 -1.4043 -1.3154
  331TIP3   OH222407   4.100   2.093  12.884 -0.2369  0.3224  0.0966
  331TIP3    H122408   4.148   2.162  12.930  2.2579 -2.0970  1.4541
  331TIP3    H222409   4.123   2.104  12.792  1.1179  0.6010  0.4525
  332TIP3   OH222410   3.005   0.665   4.679  0.1275 -0.3259  0.3344
  332TIP3    H122411   2.992   0.756   4.653  1.2672  0.2656  1.7023
  332TIP3    H222412   3.011   0.668   4.775 -0.4099 -1.9264  0.4462
  333TIP3   OH222413   0.768   3.564  16.277 -0.3981  0.2708  0.2485
  333TIP3    H122414   0.855   3.537  16.306 -1.0033 -0.4049  1.4995
  333TIP3    H222415   0.739   3.494  16.218 -1.1839 -0.9137  1.9840
  334TIP3   OH222416   2.556   0.287   4.364 -0.4503  0.1370 -0.0546
  334TIP3    H122417   2.485   0.328   4.313 -0.0807  0.1991 -0.5236
  334TIP3    H222418   2.528   0.296   4.455 -0.9717  0.3077 -0.2285
  335TIP3   OH222419   3.951   1.851   1.326  0.8888  0.2003 -0.3540
  335TIP3    H122420   3.954   1.945   1.343 -0.4621  0.5823 -1.9981
  335TIP3    H222421   3.873   1.839   1.272  1.3999 -1.7821 -0.7105
  336TIP3   OH222422   5.255   0.908  16.059 -0.3312  0.4064  0.1681
  336TIP3    H122423   5.188   0.975  16.074 -0.7805 -0.0952  0.4424
  336TIP3    H222424   5.207   0.825  16.065  0.3219  0.0423  0.4007
  337TIP3   OH222425   2.287   3.824  16.629 -0.3043  0.2353 -0.2139
  337TIP3    H122426   2.193   3.815  16.616 -0.4536 -0.4070  1.1602
  337TIP3    H222427   2.310   3.751  16.687  0.3938  2.4476  2.5057
  338TIP3   OH222428   4.144   0.843  14.030  0.3361 -0.2747  0.0330
  338TIP3    H122429   4.126   0.847  14.124  0.9026 -1.5273  0.2128
  338TIP3    H222430   4.221   0.899  14.017  0.0447  0.1802  0.2509
  339TIP3   OH222431   6.524   3.156   5.174  0.4396  0.2620  0.4442
  339TIP3    H122432   6.586   3.188   5.240  0.2395  3.5191 -0.7654
  339TIP3    H222433   6.440   3.193   5.200 -0.2180 -0.8273 -0.0969
  340TIP3   OH222434   0.885   3.822   3.263 -0.3007  0.1660  0.3053
  340TIP3    H122435   0.901   3.780   3.178  0.4692  0.2366  0.4046
  340TIP3    H222436   0.823   3.892   3.244  0.2224  0.4794 -0.2871
  341TIP3   OH222437   2.494   0.245   1.560 -0.3657  0.0764 -0.1929
  341TIP3    H122438   2.550   0.169   1.572 -1.0592 -0.5542 -0.8494
  341TIP3    H222439   2.503   0.295   1.641  1.3305  0.1361 -0.3733
  342TIP3   OH222440   4.338   0.360  14.328 -0.3287  0.7021 -0.1095
  342TIP3    H122441   4.384   0.305  14.264  2.1813 -0.0877  2.2052
  342TIP3    H222442   4.390   0.440  14.332 -0.6371  0.8694  0.6832
  343TIP3   OH222443   0.869   6.410  15.913  0.0864 -0.1017  0.6823
  343TIP3    H122444   0.946   6.451  15.954 -1.3904  1.5501  1.9529
  343TIP3    H222445   0.900   6.381  15.828  2.5215 -0.9307  1.7620
  344TIP3   OH222446   4.220   1.776   3.214  0.5739  0.3721  0.1924
  344TIP3    H122447   4.131   1.747   3.234  0.2468  0.8888 -0.4658
  344TIP3    H222448   4.274   1.742   3.285  0.5493 -3.3833 -1.3542
  345TIP3   OH222449   0.461   6.797   0.218 -0.4894 -1.1148 -0.0203
  345TIP3    H122450   0.539   6.762   0.174 -1.4600 -3.0024 -0.3485
  345TIP3    H222451   0.484   6.798   0.311  0.5146  0.0118 -0.2605
  346TIP3   OH222452   2.986   2.269  14.378  0.4823 -0.1232  0.4925
  346TIP3    H122453   3.041   2.298  14.452  0.4395 -0.6574  0.7396
  346TIP3    H222454   3.029   2.189  14.347 -1.1734 -1.6219  1.8860
  347TIP3   OH222455   0.596   4.840   3.897  0.9112  0.0971  0.1859
  347TIP3    H122456   0.568   4.806   3.982  0.6916 -0.1682  0.0123
  347TIP3    H222457   0.537   4.913   3.880 -0.4684 -1.1562 -0.6924
  348TIP3   OH222458   1.770   5.512   0.893  0.6291  0.2653  0.5519
  348TIP3    H122459   1.691   5.530   0.841  0.9041  1.3955  0.4997
  348TIP3    H222460   1.821   5.593   0.887  0.4758  0.5960  2.9254
  349TIP3   OH222461   6.526   6.641  15.851 -0.1187 -0.6350 -0.6287
  349TIP3    H122462   6.586   6.594  15.908 -0.3532 -0.0405  0.1131
  349TIP3    H222463   6.582   6.693  15.794  0.1303 -1.5268 -1.2187
  350TIP3   OH222464   0.364   1.852   3.632 -0.1559  0.2972  0.3198
  350TIP3    H122465   0.341   1.796   3.706  0.8832 -0.3518  0.1707
  350TIP3    H222466   0.300   1.831   3.565 -0.4416  0.0926  0.6515
  351TIP3   OH222467   3.609   2.889  13.988 -0.1959  0.2190  0.6759
  351TIP3    H122468   3.517   2.863  13.984 -0.7058  1.9308  0.5256
  351TIP3    H222469   3.626   2.906  14.081 -0.5753  1.6529  0.5039
  352TIP3   OH222470   4.855   5.090  10.275  0.5921  0.1485 -0.8557
  352TIP3    H122471   4.948   5.072  10.286  1.1222  2.9150 -0.2066
  352TIP3    H222472   4.820   5.097  10.364  1.0631  4.6013 -0.7952
  353TIP3   OH222473   3.092   4.153   4.491  0.3941 -0.8238  0.1390
  353TIP3    H122474   3.186   4.144   4.475  0.6335  0.1014  0.9468
  353TIP3    H222475   3.086   4.193   4.578 -0.6412  2.1956 -1.1720
  354TIP3   OH222476   1.855   1.533  11.291  0.2734  0.1994 -0.0448
  354TIP3    H122477   1.938   1.580  11.289  0.7835 -0.5826  1.3236
  354TIP3    H222478   1.854   1.483  11.210  0.1438  1.8024 -1.0812
  355TIP3   OH222479   3.630   0.095   0.851 -0.1201 -0.3945 -0.0094
  355TIP3    H122480   3.541   0.081   0.883 -0.6669  1.9782 -0.3147
  355TIP3    H222481   3.646   0.022   0.792 -2.4565 -0.0734 -1.1437
  356TIP3   OH222482   0.869   6.075   4.376  0.4751  0.1814 -0.2814
  356TIP3    H122483   0.888   5.982   4.392  3.6044  0.5878 -0.8961
  356TIP3    H222484   0.779   6.087   4.405  0.8594 -2.4335  2.4382
  357TIP3   OH222485   4.340   1.696  11.730 -0.1440 -0.4221 -0.1144
  357TIP3    H122486   4.401   1.632  11.766  2.3321  0.5882 -2.1757
  357TIP3    H222487   4.366   1.779  11.769 -0.0843  0.0520 -1.1261
  358TIP3   OH222488   2.286   6.061  13.959 -0.3708  0.5136 -0.3155
  358TIP3    H122489   2.210   6.074  14.016  0.3097  0.6326  0.5885
  358TIP3    H222490   2.340   6.139  13.972 -0.6131  0.9709 -1.8098
  359TIP3   OH222491   1.469   5.691  15.164 -0.0125 -0.4289 -0.1627
  359TIP3    H122492   1.474   5.619  15.227 -1.2035  0.4945  1.0371
  359TIP3    H222493   1.397   5.667  15.105 -0.8215  0.0320  0.6118
  360TIP3   OH222494   6.080   2.280  14.845  0.3971 -0.3877  0.4101
  360TIP3    H122495   5.991   2.298  14.876  0.0607 -1.0484 -0.1556
  360TIP3    H222496   6.136   2.301  14.920 -0.3800 -1.8206  1.4438
  361TIP3   OH222497   4.906   5.418   3.821 -0.9019 -0.4366 -0.0400
  361TIP3    H122498   4.956   5.499   3.835 -1.0202 -0.1172 -1.3597
  361TIP3    H222499   4.972   5.353   3.796 -0.9942 -0.3324 -0.5605
  362TIP3   OH222500   6.666   1.999   2.278  0.3883  0.0689 -0.2529
  362TIP3    H122501   6.713   2.029   2.200  0.2705 -1.3862 -0.9263
  362TIP3    H222502   6.653   1.905   2.263 -0.7386  0.0010  0.9523
  363TIP3   OH222503   5.017   0.896  15.777 -0.3624  0.3331 -0.0970
  363TIP3    H122504   4.987   0.875  15.688  2.9100  0.4189 -1.3545
  363TIP3    H222505   5.054   0.814  15.809  0.3849  0.8205  0.3141
  364TIP3   OH222506   1.016   2.371   5.552  0.3722  1.2646  0.7774
  364TIP3    H122507   0.962   2.294   5.534  1.1636  0.8671  0.0306
  364TIP3    H222508   0.957   2.432   5.596  0.1488 -0.4341  2.9929
  365TIP3   OH222509   5.144   0.384   0.508  0.5446 -0.8967 -0.2611
  365TIP3    H122510   5.203   0.344   0.444  1.2963  0.5251 -0.4935
  365TIP3    H222511   5.166   0.341   0.591  1.5177 -0.7965 -0.4520
  366TIP3   OH222512   3.224   3.389   2.522  0.5186 -0.3856  0.6183
  366TIP3    H122513   3.299   3.386   2.582  1.6577  0.0488 -0.7316
  366TIP3    H222514   3.208   3.298   2.499  1.1449 -0.4180  0.3010
  367TIP3   OH222515   4.300   4.149   6.105 -0.3159  0.0851 -0.5221
  367TIP3    H122516   4.243   4.225   6.117 -0.8262 -0.3148 -0.3250
  367TIP3    H222517   4.245   4.075   6.132 -0.0647 -0.4227 -1.3778
  368TIP3   OH222518   0.505   0.151   3.066 -0.0040 -0.1125  0.6660
  368TIP3    H122519   0.435   0.153   3.000 -0.3705 -0.5844  1.0349
  368TIP3    H222520   0.508   0.240   3.100 -0.1976 -0.0069  0.4115
  369TIP3   OH222521   5.547   3.629  12.630  0.0394 -0.2190  0.3718
  369TIP3    H122522   5.569   3.721  12.645  1.3922 -0.4595  0.0142
  369TIP3    H222523   5.597   3.581  12.696 -0.3629 -0.7204  0.3161
  370TIP3   OH222524   0.420   5.487  16.313 -0.4234  0.3710 -0.0116
  370TIP3    H122525   0.491   5.427  16.338 -0.6045 -0.2731 -0.9758
  370TIP3    H222526   0.345   5.429  16.297 -0.5238  0.8173 -1.2475
  371TIP3   OH222527   1.822   3.193   0.941 -0.4073 -0.3440  0.3046
  371TIP3    H122528   1.790   3.135   1.011 -0.2848 -1.3004 -0.4151
  371TIP3    H222529   1.749   3.201   0.881  0.6471 -2.7160 -1.4612
  372TIP3   OH222530   6.779   4.816   4.911  0.2799  0.4660  0.0679
  372TIP3    H122531   6.733   4.900   4.910 -0.2388  0.1941 -0.6614
  372TIP3    H222532   6.816   4.809   4.823 -0.5608 -0.5153 -0.2373
  373TIP3   OH222533   2.909   5.108  16.989 -0.4593  0.3636 -1.0242
  373TIP3    H122534   2.928   5.202  16.981  0.8088  0.2984  0.8447
  373TIP3    H222535   2.841   5.103  17.056 -0.3436 -0.0929 -0.9410
  374TIP3   OH222536   3.693   6.325   3.060  0.0324  0.1967 -0.5945
  374TIP3    H122537   3.779   6.363   3.041 -0.1484 -0.3119 -2.6956
  374TIP3    H222538   3.631   6.396   3.044 -0.1957 -0.4700 -3.1763
  375TIP3   OH222539   4.380   6.350   1.363  0.7655 -0.1611  0.0202
  375TIP3    H122540   4.429   6.276   1.327  1.1491  0.1680 -0.1363
  375TIP3    H222541   4.448   6.411   1.394  0.4626 -0.7212  1.9026
  376TIP3   OH222542   0.881   6.759   4.823 -0.0440 -0.7361 -0.2740
  376TIP3    H122543   0.949   6.781   4.759  0.8551 -1.3852  0.4170
  376TIP3    H222544   0.929   6.713   4.893 -1.0353 -0.2677  0.7413
  377TIP3   OH222545   0.192   4.267  11.035  0.3363  0.4427  0.8370
  377TIP3    H122546   0.225   4.234  10.952 -0.6979  3.2324 -0.8443
  377TIP3    H222547   0.270   4.276  11.090  1.3325  0.2841 -0.5084
  378TIP3   OH222548   1.955   2.795  11.801  0.2011  0.5518  0.4781
  378TIP3    H122549   2.048   2.802  11.779  0.1667 -1.6082 -0.5370
  378TIP3    H222550   1.909   2.808  11.718 -0.5465  2.8295  1.1616
  379TIP3   OH222551   0.889   0.074  14.425 -0.7400 -0.5333 -0.1812
  379TIP3    H122552   0.908   0.011  14.355 -0.9562  0.0719 -0.7987
  379TIP3    H222553   0.834   0.026  14.486  1.2567 -1.7798  0.7422
  380TIP3   OH222554   0.331   3.767  14.706  0.9467 -0.2713  0.3328
  380TIP3    H122555   0.295   3.738  14.622 -0.0266  1.0495  0.2585
  380TIP3    H222556   0.274   3.726  14.771 -0.6694  1.6192  0.2199
  381TIP3   OH222557   4.332   6.189   5.888  0.5059 -0.1213  0.0815
  381TIP3    H122558   4.307   6.108   5.931  0.7237 -0.3728 -0.2572
  381TIP3    H222559   4.250   6.236   5.875  0.4022 -0.1981  0.4539
  382TIP3   OH222560   1.536   3.285   4.519 -0.0993 -0.0287  0.1283
  382TIP3    H122561   1.441   3.289   4.507  0.2208  0.5104 -3.2401
  382TIP3    H222562   1.554   3.344   4.592 -2.3789 -0.8049  1.4046
  383TIP3   OH222563   3.011   3.950  15.078 -0.1420 -0.5662 -0.2179
  383TIP3    H122564   3.014   4.023  15.015 -1.6567 -2.3123 -2.4927
  383TIP3    H222565   3.103   3.933  15.099  0.3597  0.6848 -1.2414
  384TIP3   OH222566   3.960   4.601  16.834  0.3515  0.7152  0.1161
  384TIP3    H122567   4.029   4.543  16.865 -0.8969 -2.3531 -2.2420
  384TIP3    H222568   3.883   4.576  16.885 -0.4060 -0.5144 -1.5024
  385TIP3   OH222569   0.143   2.262   0.027  0.2849 -0.2563 -0.1331
  385TIP3    H122570   0.054   2.271  -0.007 -0.1173 -0.6420  0.7840
  385TIP3    H222571   0.173   2.177  -0.004  0.0885 -0.4066  0.0833
  386TIP3   OH222572   4.756   0.116   0.464  0.2846 -0.1974  0.3858
  386TIP3    H122573   4.815   0.190   0.447  0.7111 -0.7036 -0.4147
  386TIP3    H222574   4.750   0.071   0.380 -0.2650 -0.8652  0.7748
  387TIP3   OH222575   4.219   6.568  14.556 -0.2040 -0.0331  0.6734
  387TIP3    H122576   4.163   6.532  14.487 -0.1553 -0.5647  0.9105
  387TIP3    H222577   4.158   6.596  14.624 -0.2077 -0.2199  0.7472
  388TIP3   OH222578   0.859   2.951  12.137 -0.2142  0.0603 -0.0913
  388TIP3    H122579   0.861   2.857  12.152  1.2325  0.1065  0.1289
  388TIP3    H222580   0.806   2.962  12.058 -1.6725 -0.7888  0.7161
  389TIP3   OH222581   3.663   1.312  12.208 -0.3696 -0.0967 -0.8433
  389TIP3    H122582   3.698   1.324  12.296 -3.4698 -0.2144  0.5405
  389TIP3    H222583   3.661   1.217  12.195  0.3738 -0.0713 -1.2044
  390TIP3   OH222584   6.197   3.562  16.735  0.3313  0.1355  0.5259
  390TIP3    H122585   6.112   3.598  16.710  0.4638  0.2870  0.2877
  390TIP3    H222586   6.192   3.469  16.713  0.7045  0.4036 -0.7862
  391TIP3   OH222587   2.958   3.965   4.292  0.5019 -0.2367  0.2999
  391TIP3    H122588   3.035   4.003   4.336 -0.3367 -2.0903  3.7474
  391TIP3    H222589   2.892   4.034   4.295  1.2414  0.5262 -0.4475
  392TIP3   OH222590   4.860   3.995   2.796 -0.0449 -0.9367  0.5698
  392TIP3    H122591   4.894   4.065   2.851  1.4001 -0.1145 -1.2815
  392TIP3    H222592   4.921   3.922   2.810  1.2227 -0.2260 -1.0128
  393TIP3   OH222593   5.300   6.411   5.869 -0.0083  0.2915 -0.3730
  393TIP3    H122594   5.236   6.420   5.940 -0.2312 -0.2529 -0.4973
  393TIP3    H222595   5.248   6.390   5.792  0.3942 -1.5282 -0.2019
  394TIP3   OH222596   2.886   5.239  14.321 -0.0038 -0.3217  0.2282
  394TIP3    H122597   2.850   5.230  14.232  1.2460 -1.3264 -0.1997
  394TIP3    H222598   2.948   5.167  14.330  1.1130  0.7129  1.3172
  395TIP3   OH222599   5.139   1.459   2.270  0.1618  0.1202  0.3400
  395TIP3    H122600   5.125   1.501   2.355  0.8089  0.5868  0.2257
  395TIP3    H222601   5.065   1.400   2.260 -0.4914  0.8432  0.7535
  396TIP3   OH222602   2.731   3.723  12.542 -0.0194 -0.1152  0.1778
  396TIP3    H122603   2.745   3.653  12.607  0.3551  0.2893  0.5414
  396TIP3    H222604   2.761   3.802  12.586 -0.3926  0.2701 -0.2530
  397TIP3   OH222605   3.971   4.320  14.734 -0.7608 -0.0043 -0.0412
  397TIP3    H122606   3.968   4.398  14.679  0.1808 -0.6534 -1.0448
  397TIP3    H222607   4.053   4.328  14.782 -1.4360  0.4111  1.0877
  398TIP3   OH222608   5.807   2.038  14.734 -0.2100  0.9410 -0.0804
  398TIP3    H122609   5.755   2.103  14.781  1.1604  1.3765  0.9183
  398TIP3    H222610   5.745   1.993  14.677 -1.8128  0.8838  1.6247
  399TIP3   OH222611   1.558   5.801   3.641 -0.1113  0.2257 -0.4772
  399TIP3    H122612   1.534   5.736   3.707 -1.2722  0.7745 -0.3204
  399TIP3    H222613   1.501   5.876   3.661  0.3062  0.8047 -1.4285
  400TIP3   OH222614   0.716   3.390  15.262  0.0731 -0.0203 -0.2835
  400TIP3    H122615   0.686   3.478  15.241 -0.3520 -0.4676 -1.6369
  400TIP3    H222616   0.679   3.335  15.194  1.3573 -1.0728 -0.1705
  401TIP3   OH222617   0.329   0.652  13.985  0.1538 -0.0662 -0.2338
  401TIP3    H122618   0.259   0.686  14.040  0.5449  0.1178  0.1669
  401TIP3    H222619   0.322   0.700  13.903 -0.5899 -0.5164 -0.4323
  402TIP3   OH222620   5.183   4.056   5.696  0.1045  0.2417 -0.4444
  402TIP3    H122621   5.199   4.150   5.706  0.5387  0.2623 -1.2707
  402TIP3    H222622   5.165   4.044   5.603  2.0819 -0.7620 -0.7498
  403TIP3   OH222623   3.731   5.535  16.790 -0.3723  0.1602  0.2173
  403TIP3    H122624   3.703   5.517  16.700  0.5337 -3.2832  0.4470
  403TIP3    H222625   3.723   5.450  16.834  2.2434  0.9656  2.5143
  404TIP3   OH222626   1.054   5.499   2.790 -0.5009 -0.3368 -0.2324
  404TIP3    H122627   1.074   5.426   2.848 -0.6159 -0.6990 -0.6521
  404TIP3    H222628   1.128   5.560   2.802 -1.0340  0.0906  1.0917
  405TIP3   OH222629   3.805   3.230  13.517 -0.7272  0.1193 -0.6006
  405TIP3    H122630   3.842   3.282  13.446 -0.8154  0.6170 -0.2881
  405TIP3    H222631   3.823   3.139  13.492  1.0222  0.3451 -0.2969
  406TIP3   OH222632   2.545   0.367   3.715  0.2073  0.0627 -0.0037
  406TIP3    H122633   2.556   0.276   3.687  0.5914 -0.7559  2.5681
  406TIP3    H222634   2.527   0.414   3.634  0.9910 -2.1219 -1.5586
  407TIP3   OH222635   2.001   1.912  12.302  0.3993  0.2143  0.7667
  407TIP3    H122636   2.068   1.877  12.244  0.8756  0.8906  0.8890
  407TIP3    H222637   1.932   1.943  12.242 -0.0498 -0.9482  0.6648
  408TIP3   OH222638   0.845   3.416  16.701  0.4923  0.3729  0.0358
  408TIP3    H122639   0.870   3.344  16.643 -0.5608 -0.5000  0.6242
  408TIP3    H222640   0.856   3.380  16.789 -1.2742  0.4515  0.3346
  409TIP3   OH222641   5.946   6.708  16.080  0.3081 -0.2938  0.3156
  409TIP3    H122642   5.854   6.716  16.105 -0.6436 -0.5103 -2.7380
  409TIP3    H222643   5.980   6.636  16.133 -1.2270 -0.1473  1.5504
  410TIP3   OH222644   5.259   4.622   4.641  0.2453 -0.2445 -0.2079
  410TIP3    H122645   5.246   4.715   4.619  1.8459  0.2346  0.7450
  410TIP3    H222646   5.217   4.612   4.727  1.3640 -0.0154  0.3795
  411TIP3   OH222647   0.215   3.719   0.459 -0.5094  0.0118  0.3731
  411TIP3    H122648   0.138   3.687   0.413 -2.1521  1.9825  1.5539
  411TIP3    H222649   0.225   3.809   0.428  1.2045 -0.1478  0.3974
  412TIP3   OH222650   5.945   2.721   3.535  0.1762  0.0667 -0.2081
  412TIP3    H122651   5.975   2.792   3.478 -0.0225 -2.1315 -3.3112
  412TIP3    H222652   6.023   2.667   3.549 -0.2991 -0.6903 -0.4344
  413TIP3   OH222653   4.168   5.734  14.243 -0.5534 -0.2194  0.0465
  413TIP3    H122654   4.156   5.818  14.197 -1.3349  0.7652  1.9180
  413TIP3    H222655   4.193   5.672  14.174 -3.2483  0.7587 -2.0165
  414TIP3   OH222656   1.568   1.906   0.013  0.8287  0.4436 -0.3378
  414TIP3    H122657   1.568   1.995  -0.021  0.1143  0.8195  0.5729
  414TIP3    H222658   1.563   1.917   0.108 -0.5298 -0.5481 -0.2534
  415TIP3   OH222659   5.815   4.210  15.522  0.2327 -0.1055  0.5330
  415TIP3    H122660   5.863   4.128  15.508 -0.0249 -0.4098  1.3662
  415TIP3    H222661   5.814   4.252  15.436 -0.1464 -1.2566 -0.0488
  416TIP3   OH222662   2.522   6.166   3.386 -0.2526  0.2865 -0.1214
  416TIP3    H122663   2.550   6.191   3.297  0.3718  1.8098  0.4737
  416TIP3    H222664   2.483   6.079   3.375 -0.1768  0.4379 -1.8859
  417TIP3   OH222665   3.906   4.014   5.337 -0.1779 -0.1986  0.0846
  417TIP3    H122666   3.850   4.073   5.286 -1.6220  1.6374  3.4680
  417TIP3    H222667   3.853   3.936   5.350 -0.4385 -0.0180  0.1124
  418TIP3   OH222668   1.543   4.606   3.023 -0.1799  0.2845 -0.6568
  418TIP3    H122669   1.524   4.578   3.113  1.8528  0.9409  0.0378
  418TIP3    H222670   1.459   4.600   2.977 -1.3168  0.1570  1.3404
  419TIP3   OH222671   2.388   0.346   3.934 -0.1350 -0.5042 -0.1503
  419TIP3    H122672   2.396   0.407   4.008  0.2484 -0.7120 -0.0212
  419TIP3    H222673   2.455   0.374   3.872 -0.4295 -0.3573 -0.4037
  420TIP3   OH222674   6.707   2.252   3.611  0.0177 -0.0461  0.0928
  420TIP3    H122675   6.787   2.212   3.577 -1.0738 -2.1360 -0.1648
  420TIP3    H222676   6.682   2.316   3.545  1.8162  1.1621  0.5169
  421TIP3   OH222677   3.243   4.325  12.563 -0.4890 -0.1749  0.4071
  421TIP3    H122678   3.154   4.358  12.558 -0.1968  0.5911  0.0748
  421TIP3    H222679   3.280   4.369  12.640  0.5993  2.1131 -1.2789
  422TIP3   OH222680   4.890   0.656  13.562 -0.3208  0.5024  0.7397
  422TIP3    H122681   4.928   0.735  13.524  0.5331 -0.8926 -1.5546
  422TIP3    H222682   4.795   0.668  13.551 -0.1249 -0.2270 -3.0580
  423TIP3   OH222683   4.308   3.182   3.235  0.2077  0.3170  0.0754
  423TIP3    H122684   4.233   3.238   3.215  0.0308  0.4933  1.1667
  423TIP3    H222685   4.357   3.177   3.152 -1.3368 -0.3323 -0.8522
  424TIP3   OH222686   4.987   4.634   1.232 -0.0774  0.2391  0.1735
  424TIP3    H122687   4.990   4.567   1.163  0.3463  1.1542 -0.7320
  424TIP3    H222688   5.048   4.604   1.299  0.1995 -0.2222 -0.2815
  425TIP3   OH222689   2.871   5.610  14.973 -0.0527  0.6440  0.2326
  425TIP3    H122690   2.798   5.571  14.926  0.4285  1.4187 -1.2047
  425TIP3    H222691   2.850   5.703  14.977  1.2570  1.0257 -1.0220
  426TIP3   OH222692   2.949   6.187  15.313 -0.7156 -0.0574  0.1601
  426TIP3    H122693   2.929   6.264  15.261  0.5981 -0.8321 -1.6016
  426TIP3    H222694   2.902   6.116  15.270 -0.6202 -0.5298  0.8123
  427TIP3   OH222695   2.143   1.042  14.235  0.2940  0.2732  0.4070
  427TIP3    H122696   2.155   0.948  14.223 -0.5648  0.4504 -2.5751
  427TIP3    H222697   2.228   1.080  14.212 -0.4490  0.3968 -2.4503
  428TIP3   OH222698   2.588   6.726  12.563 -0.5868  0.0184  0.5318
  428TIP3    H122699   2.593   6.726  12.658  2.2163  0.7107  0.4713
  428TIP3    H222700   2.510   6.777  12.543 -0.3184  1.2855  2.4841
  429TIP3   OH222701   3.472   5.269   3.136  0.3159 -0.2307 -0.6617
  429TIP3    H122702   3.552   5.290   3.184 -0.2595  0.7191 -0.0753
  429TIP3    H222703   3.492   5.292   3.045  0.1426  1.7422 -0.2396
  430TIP3   OH222704   3.572   1.181   2.416  0.3580  0.3626 -0.4356
  430TIP3    H122705   3.663   1.184   2.448  1.1244 -0.7916 -2.3573
  430TIP3    H222706   3.563   1.261   2.365  0.6578 -0.0309 -1.1157
  431TIP3   OH222707   4.836   5.700  12.059 -0.0325 -0.1780  0.6054
  431TIP3    H122708   4.793   5.727  12.140 -0.0205 -0.2641  0.6413
  431TIP3    H222709   4.798   5.614  12.039  0.4454 -0.4620  0.8861
  432TIP3   OH222710   1.410   4.413  11.442  0.0796  0.3181 -0.3753
  432TIP3    H122711   1.365   4.332  11.418  1.3922 -0.4711 -0.2511
  432TIP3    H222712   1.427   4.456  11.358  0.8021 -0.3241 -0.5657
  433TIP3   OH222713   0.870   5.226   0.138 -0.6690 -0.2358 -0.5991
  433TIP3    H122714   0.787   5.182   0.119 -0.3447 -0.9351 -0.4174
  433TIP3    H222715   0.935   5.157   0.135 -0.6650 -0.7190  3.9944
  434TIP3   OH222716   4.467   5.914   3.064 -0.2998 -0.5771 -1.0432
  434TIP3    H122717   4.460   5.822   3.090  1.9821 -0.5846 -0.2367
  434TIP3    H222718   4.539   5.915   3.001  0.4928  0.7914 -0.1515
  435TIP3   OH222719   5.438   6.172   0.971  0.1867 -0.2196  0.5623
  435TIP3    H122720   5.425   6.249   1.027  0.3992  2.2564 -2.5133
  435TIP3    H222721   5.355   6.125   0.976 -0.6965  1.3131  1.0170
  436TIP3   OH222722   3.788   1.539  14.631 -0.2999 -0.1600 -0.1290
  436TIP3    H122723   3.841   1.509  14.705  0.3076 -0.2524 -0.5944
  436TIP3    H222724   3.725   1.599  14.670  0.0447 -0.1697  0.4585
  437TIP3   OH222725   5.590   4.824  16.724  0.0477  0.3988 -0.5854
  437TIP3    H122726   5.567   4.737  16.758 -0.7190  0.5481 -0.6986
  437TIP3    H222727   5.636   4.806  16.642  1.6088  0.0451  0.3259
  438TIP3   OH222728   6.394   4.331  14.561  0.2275  0.0113  0.3526
  438TIP3    H122729   6.416   4.402  14.621  0.6263  0.4134 -0.2592
  438TIP3    H222730   6.315   4.362  14.516  1.7195  1.1719 -1.6381
  439TIP3   OH222731   4.893   3.474   2.379 -0.1844 -0.1359 -0.2012
  439TIP3    H122732   4.836   3.423   2.321 -0.4193 -1.2977  0.9798
  439TIP3    H222733   4.953   3.520   2.321 -0.9311 -0.6259 -1.3819
  440TIP3   OH222734   2.345   3.134  12.700 -0.4990  0.9101  0.5424
  440TIP3    H122735   2.357   3.202  12.634  1.7744  0.2594  0.1994
  440TIP3    H222736   2.262   3.157  12.743 -1.1159  2.3860 -1.2807
  441TIP3   OH222737   0.580   5.430  14.008  0.1449  0.0354  0.5327
  441TIP3    H122738   0.667   5.457  14.038 -0.0605  0.0446  1.1387
  441TIP3    H222739   0.533   5.513  13.995 -0.1087  0.0110  1.2448
  442TIP3   OH222740   6.320   0.415  14.145 -0.0454  0.1052 -0.4422
  442TIP3    H122741   6.286   0.382  14.062  1.1885 -0.3918 -0.7652
  442TIP3    H222742   6.334   0.337  14.198  0.2183  0.3284 -0.1788
  443TIP3   OH222743   5.356   4.664  11.597 -0.1621  0.1295 -0.7521
  443TIP3    H122744   5.442   4.699  11.621 -0.3474  1.0271 -1.3643
  443TIP3    H222745   5.358   4.659  11.502 -1.1643  1.1917 -0.8494
  444TIP3   OH222746   3.585   6.041   1.336  0.6637  0.2468 -0.9198
  444TIP3    H122747   3.556   6.113   1.392  5.1139 -0.8298  3.4581
  444TIP3    H222748   3.666   6.073   1.297  0.1225 -0.7792 -3.0223
  445TIP3   OH222749   4.073   1.076  14.245  0.0364 -0.5149 -0.1079
  445TIP3    H122750   4.167   1.058  14.244 -0.0318 -1.0833  1.1847
  445TIP3    H222751   4.067   1.171  14.258  0.4504 -0.5556  0.4560
  446TIP3   OH222752   1.316   4.826   4.955  0.7366 -0.6409 -0.4583
  446TIP3    H122753   1.257   4.852   4.884  2.1768 -0.9385 -1.8352
  446TIP3    H222754   1.293   4.735   4.973  1.2737 -1.0185 -1.5715
  447TIP3   OH222755   4.269   4.680  17.065 -0.0751 -0.4698 -0.3305
  447TIP3    H122756   4.273   4.625  17.144  0.6416  0.9936  0.6999
  447TIP3    H222757   4.313   4.761  17.090 -0.6068  0.3730 -1.9789
  448TIP3   OH222758   1.073   6.079   6.110  0.3031  0.1038  0.0926
  448TIP3    H122759   1.088   6.158   6.162 -1.0562  0.6155 -0.2409
  448TIP3    H222760   1.015   6.026   6.164  1.0555 -0.6056  0.2292
  449TIP3   OH222761   2.374   2.160   3.886  0.1043 -0.0311 -0.2318
  449TIP3    H122762   2.462   2.122   3.879 -0.7154 -1.8188 -1.5659
  449TIP3    H222763   2.368   2.188   3.977  1.4713 -1.4225  0.3449
  450TIP3   OH222764   0.464   3.327  15.518  0.2341  0.7680 -0.0342
  450TIP3    H122765   0.431   3.341  15.429 -0.8375 -2.4953 -0.2792
  450TIP3    H222766   0.516   3.247  15.513 -0.1040  0.3098  2.2993
  451TIP3   OH222767   2.253   3.100  16.250  0.0681  0.5880 -0.0286
  451TIP3    H122768   2.182   3.037  16.249 -1.0401  1.7783 -1.4670
  451TIP3    H222769   2.258   3.130  16.341 -1.1917  0.3814  0.1208
  452TIP3   OH222770   6.244   2.843   4.181 -0.4071 -0.3074  0.5696
  452TIP3    H122771   6.314   2.792   4.141 -1.1093 -0.8742  0.0431
  452TIP3    H222772   6.278   2.866   4.268 -0.2943 -2.1402  1.0405
  453TIP3   OH222773   5.298   0.810   4.443 -0.1596  0.1912 -1.0082
  453TIP3    H122774   5.299   0.902   4.472 -0.4281 -0.7866  2.6849
  453TIP3    H222775   5.387   0.779   4.459 -0.8005 -0.8931  0.7942
  454TIP3   OH222776   0.142   0.163   4.147  0.7287 -0.0001 -0.2329
  454TIP3    H122777   0.167   0.247   4.185  3.1662 -0.3162 -0.9980
  454TIP3    H222778   0.068   0.134   4.200  0.4574  2.1376  0.6668
  455TIP3   OH222779   1.910   6.150  14.365 -0.4947  0.4839 -0.6444
  455TIP3    H122780   1.931   6.223  14.306 -0.5855  0.9622 -0.0990
  455TIP3    H222781   1.814   6.145  14.363 -0.5566  1.1306  0.1894
  456TIP3   OH222782   4.531   4.536   2.807  0.0855  0.7279  0.2155
  456TIP3    H122783   4.508   4.577   2.724 -0.3291  2.3831  1.0882
  456TIP3    H222784   4.469   4.574   2.870  0.3536 -0.5223  1.2708
  457TIP3   OH222785   4.201   6.304  15.556  0.4260 -0.0069  0.2752
  457TIP3    H122786   4.214   6.264  15.470  0.3023 -1.9160  1.0971
  457TIP3    H222787   4.146   6.379  15.539 -0.7434 -1.1309 -1.1700
  458TIP3   OH222788   2.285   1.374   4.515 -0.0038  0.0708 -0.0575
  458TIP3    H122789   2.305   1.453   4.464 -2.0300  1.4524  1.1113
  458TIP3    H222790   2.197   1.349   4.487 -0.4997 -0.0862  1.5189
  459TIP3   OH222791   2.519   3.338   1.053  0.4073 -0.4623  0.0715
  459TIP3    H122792   2.610   3.356   1.031  0.6662 -2.5235 -0.7904
  459TIP3    H222793   2.471   3.415   1.022  1.8374  0.7546  0.7454
  460TIP3   OH222794   2.442   1.117  14.248 -0.0687  0.0862  0.4168
  460TIP3    H122795   2.529   1.078  14.239  0.1499  0.5534  0.4911
  460TIP3    H222796   2.397   1.061  14.311  1.1508  1.4837  2.6437
  461TIP3   OH222797   1.695   0.849   2.352 -0.2098 -0.3077  0.0255
  461TIP3    H122798   1.732   0.762   2.369  2.3117  0.7768  0.5596
  461TIP3    H222799   1.713   0.866   2.260  2.9734  1.1246  0.7703
  462TIP3   OH222800   4.811   2.362   4.084 -0.1486  0.6162 -0.1038
  462TIP3    H122801   4.732   2.380   4.032 -0.7971 -0.0088  0.6316
  462TIP3    H222802   4.843   2.448   4.110 -1.0617  0.8525  0.2724
  463TIP3   OH222803   1.624   4.477   3.924  0.1626 -0.2294  0.4136
  463TIP3    H122804   1.568   4.446   3.853  0.6895  0.1973 -0.1963
  463TIP3    H222805   1.577   4.451   4.004 -1.4331  1.0474 -0.0503
  464TIP3   OH222806   6.215   0.524   0.920 -0.2400  0.4906 -0.2384
  464TIP3    H122807   6.239   0.434   0.944 -1.2045  0.1401 -0.5166
  464TIP3    H222808   6.145   0.513   0.855 -0.4475  1.4462 -0.1892
  465TIP3   OH222809   4.605   3.035  11.821  0.1718  0.4782 -0.5020
  465TIP3    H122810   4.622   3.087  11.743  0.6584 -0.4731 -1.0479
  465TIP3    H222811   4.690   2.997  11.843 -0.0041  0.5699  0.3782
  466TIP3   OH222812   6.304   3.828  16.257  0.5544  0.0265  0.9139
  466TIP3    H122813   6.309   3.759  16.323  1.3480 -1.0567 -0.2230
  466TIP3    H222814   6.354   3.794  16.183 -2.1379  0.1585 -1.1590
  467TIP3   OH222815   5.512   5.251  14.480  0.7716  0.1173  0.5704
  467TIP3    H122816   5.481   5.328  14.527  1.0014  0.3356  0.3695
  467TIP3    H222817   5.483   5.176  14.533  0.1300  0.3211  0.5177
  468TIP3   OH222818   6.773   1.347   6.406  0.2438  0.0001  0.1140
  468TIP3    H122819   6.837   1.310   6.467  0.0278 -0.9754 -0.2443
  468TIP3    H222820   6.820   1.421   6.365  0.9026 -0.2719  0.3588
  469TIP3   OH222821   6.478   6.256   0.963  0.2426 -0.0344 -0.0832
  469TIP3    H122822   6.382   6.260   0.965  0.2391  0.3048 -0.6696
  469TIP3    H222823   6.497   6.170   0.924  0.1758 -0.0074 -0.1761
  470TIP3   OH222824   3.767   0.905  15.849  0.6153 -0.2982  0.0970
  470TIP3    H122825   3.680   0.935  15.873  1.4645  2.3319  0.1535
  470TIP3    H222826   3.757   0.871  15.760 -0.3706  0.5232 -0.1225
  471TIP3   OH222827   2.843   0.069  15.891 -0.2582 -0.6141 -0.0291
  471TIP3    H122828   2.808   0.114  15.969 -0.9798  0.7728 -1.1037
  471TIP3    H222829   2.788  -0.008  15.881 -1.0229 -0.0929  0.0770
  472TIP3   OH222830   0.649   4.192   5.683 -0.4467  0.1115  0.0163
  472TIP3    H122831   0.734   4.199   5.726 -0.7014 -1.4041  0.8127
  472TIP3    H222832   0.585   4.209   5.752 -0.8328  2.5077 -0.8271
  473TIP3   OH222833   1.493   0.184  17.059 -0.1141  0.3979  1.4306
  473TIP3    H122834   1.441   0.106  17.044  1.3801 -0.4901  0.7117
  473TIP3    H222835   1.441   0.235  17.123 -2.8531  0.5926 -0.7411
  474TIP3   OH222836   5.628   5.123  14.824 -0.6277  0.3145  0.4275
  474TIP3    H122837   5.657   5.171  14.746 -0.0735 -1.6669 -0.6580
  474TIP3    H222838   5.667   5.036  14.814 -3.5859 -1.1853  1.0457
  475TIP3   OH222839   4.482   6.514  14.534 -0.0813  0.3040 -0.2502
  475TIP3    H122840   4.543   6.584  14.559  0.1780 -0.0493  0.1120
  475TIP3    H222841   4.397   6.542  14.568  0.0011  0.4886 -0.1942
  476TIP3   OH222842   3.804   3.925   2.213 -0.0371 -0.5887  0.6714
  476TIP3    H122843   3.802   3.928   2.117 -0.5809 -0.9213  0.6701
  476TIP3    H222844   3.887   3.966   2.236  0.9288 -2.0465 -0.0150
  477TIP3   OH222845   2.007   0.778   3.882 -0.0873  0.4945 -0.3825
  477TIP3    H122846   1.959   0.703   3.919  0.7062  0.6160  0.9742
  477TIP3    H222847   2.009   0.761   3.788 -0.9661 -0.5786 -0.2300
  478TIP3   OH222848   0.761   4.749   4.804 -0.0756  0.6995  0.3333
  478TIP3    H122849   0.792   4.839   4.817  0.2291  0.5396  0.7316
  478TIP3    H222850   0.746   4.716   4.892  0.6596  0.0711  0.2400
  479TIP3   OH222851   5.166   6.633  12.843 -0.2281 -0.0957  0.3537
  479TIP3    H122852   5.243   6.672  12.883 -0.9305  1.2320  0.4936
  479TIP3    H222853   5.197   6.551  12.804  0.6820 -0.9147  2.6672
  480TIP3   OH222854   2.365   2.432  11.253 -0.0133  0.1700 -0.1836
  480TIP3    H122855   2.455   2.446  11.282 -0.1690 -0.3412  0.5824
  480TIP3    H222856   2.346   2.506  11.195  0.2495  1.3513  1.1795
  481TIP3   OH222857   0.877   0.515  10.693 -0.2874 -0.2373  0.1186
  481TIP3    H122858   0.800   0.553  10.735  0.4233  1.0121  0.3605
  481TIP3    H222859   0.951   0.558  10.737  0.4986  0.6909 -1.9662
  482TIP3   OH222860   6.377   0.101  12.578  0.4183  0.3571 -0.1677
  482TIP3    H122861   6.397   0.011  12.603 -1.2257 -0.0600 -0.2700
  482TIP3    H222862   6.454   0.151  12.606  1.4933 -1.1083 -0.3904
  483TIP3   OH222863   1.309   2.524   2.603  0.6965  0.5985 -0.3063
  483TIP3    H122864   1.249   2.504   2.675 -0.4233  0.6237 -1.2161
  483TIP3    H222865   1.388   2.556   2.647 -0.0843  0.9336  0.9157
  484TIP3   OH222866   2.959   3.938  13.124 -0.2183 -0.0776 -0.4274
  484TIP3    H122867   3.044   3.901  13.100  1.0147  0.5824  2.4353
  484TIP3    H222868   2.980   4.014  13.178 -2.5737 -0.5102  1.2825
  485TIP3   OH222869   5.841   6.566  14.602  0.1508  0.0953  0.8398
  485TIP3    H122870   5.844   6.497  14.668  0.2525  0.0763  0.8157
  485TIP3    H222871   5.822   6.521  14.520 -0.5902  0.1910  0.9544
  486TIP3   OH222872   2.306   1.448   6.136 -0.4531 -0.2800  0.1062
  486TIP3    H122873   2.401   1.449   6.141 -0.5157  0.8031  2.2156
  486TIP3    H222874   2.278   1.410   6.220 -1.8912 -1.0439 -0.6683
  487TIP3   OH222875   4.462   5.383   4.782 -0.2099 -0.2695  0.5747
  487TIP3    H122876   4.493   5.473   4.777  1.1245 -0.5899  2.2274
  487TIP3    H222877   4.481   5.346   4.696  2.7257  0.0050  0.9956
  488TIP3   OH222878   0.193   2.874  16.441 -0.0611 -0.2532 -0.8836
  488TIP3    H122879   0.193   2.967  16.419  0.1503 -0.1331 -0.3716
  488TIP3    H222880   0.112   2.861  16.491  0.8153  0.0552  0.6936
  489TIP3   OH222881   0.205   4.033   1.997 -0.3695 -0.3751 -0.2675
  489TIP3    H122882   0.298   4.049   1.979 -0.3491  1.8144  1.3692
  489TIP3    H222883   0.186   3.951   1.952  2.2728 -0.7373 -0.9119
  490TIP3   OH222884   5.618   0.736  14.706 -0.1150 -0.0517  0.2819
  490TIP3    H122885   5.704   0.764  14.737  0.5521  0.8110 -2.1232
  490TIP3    H222886   5.629   0.643  14.686 -0.1793 -0.2880  1.2890
  491TIP3   OH222887   5.789   4.489   4.748 -0.0772 -0.1205  0.0140
  491TIP3    H122888   5.708   4.534   4.726 -1.4386 -2.6773 -0.6007
  491TIP3    H222889   5.791   4.490   4.844 -0.4572  0.5457  0.0235
  492TIP3   OH222890   3.201   3.520   5.725  0.5373 -0.8641  0.2066
  492TIP3    H122891   3.140   3.457   5.686 -0.1094  0.2748 -0.6942
  492TIP3    H222892   3.204   3.497   5.818 -0.2599 -1.7499  0.0237
  493TIP3   OH222893   1.299   1.335   0.203  0.3570  0.5109  0.1770
  493TIP3    H122894   1.273   1.386   0.280  0.9560  1.0009  0.0615
  493TIP3    H222895   1.247   1.372   0.132 -1.4060 -1.0077  0.6089
  494TIP3   OH222896   0.836   5.509   3.617  0.1270  0.3739  0.3619
  494TIP3    H122897   0.803   5.420   3.602  1.2157 -0.2124  1.2818
  494TIP3    H222898   0.845   5.546   3.530 -1.4985  0.0401  0.0098
  495TIP3   OH222899   0.763   2.141  14.292 -0.7450 -0.1346 -0.2813
  495TIP3    H122900   0.850   2.164  14.325  0.2557 -1.6710 -1.6802
  495TIP3    H222901   0.751   2.050  14.318 -2.3266  0.2956  0.6064
  496TIP3   OH222902   3.388   4.591  13.308 -0.0185  0.0562 -0.0890
  496TIP3    H122903   3.302   4.568  13.273 -0.4372  0.3880  0.7181
  496TIP3    H222904   3.446   4.522  13.275 -0.6774 -0.4322 -0.2476
  497TIP3   OH222905   2.902   1.281  16.144 -0.3597 -0.6769  0.5886
  497TIP3    H122906   2.972   1.329  16.101 -0.0642 -0.8567  0.8594
  497TIP3    H222907   2.942   1.197  16.170 -0.4324 -0.4508  1.4869
  498TIP3   OH222908   2.581   2.677  14.219 -0.0026  0.0157  0.4242
  498TIP3    H122909   2.639   2.679  14.296  0.1692 -1.3102  0.3464
  498TIP3    H222910   2.518   2.607  14.238  0.0237 -0.3096 -0.6325
  499TIP3   OH222911   3.064   2.298  13.027 -0.5304 -0.0044 -0.2588
  499TIP3    H122912   3.000   2.281  12.959 -0.8851  0.1370  0.0382
  499TIP3    H222913   3.148   2.274  12.988 -0.2715  3.2641 -1.9858
  500TIP3   OH222914   2.067   0.666   0.409  0.3437  0.1344 -0.5225
  500TIP3    H122915   1.987   0.688   0.361  0.8586  1.6660 -0.7564
  500TIP3    H222916   2.059   0.712   0.493  0.5638 -0.4854 -0.1491
  501TIP3   OH222917   0.143   4.097   2.760 -0.0567 -0.3916  0.5402
  501TIP3    H122918   0.053   4.066   2.751 -0.7360  1.5418  0.2947
  501TIP3    H222919   0.192   4.020   2.790 -1.6686 -1.6218  0.1288
  502TIP3   OH222920   0.958   5.462   4.556  0.0072  0.0778  0.1560
  502TIP3    H122921   1.039   5.513   4.553 -0.6972  1.2569  0.5177
  502TIP3    H222922   0.942   5.436   4.465  0.2112  0.7870 -0.0824
  503TIP3   OH222923   5.892   4.809  11.844  0.1242 -0.6128 -0.5441
  503TIP3    H122924   5.823   4.867  11.812 -0.4304 -1.0924 -0.2504
  503TIP3    H222925   5.892   4.823  11.939  2.1656  1.2438 -0.7547
  504TIP3   OH222926   1.115   3.011  13.539  0.2155 -0.1137  0.3528
  504TIP3    H122927   1.055   2.962  13.595  0.8686 -1.0285  0.2759
  504TIP3    H222928   1.074   3.097  13.528 -0.1576 -0.0825  1.8252
  505TIP3   OH222929   1.166   1.044   3.150  0.0856  0.3123  0.2020
  505TIP3    H122930   1.218   1.019   3.226 -0.1846  0.2376  0.3642
  505TIP3    H222931   1.227   1.039   3.076  0.3281  0.3074  0.4020
  506TIP3   OH222932   4.540   2.859  11.228 -0.0262 -0.4734  0.3718
  506TIP3    H122933   4.585   2.836  11.146 -1.0048  0.5777 -0.4942
  506TIP3    H222934   4.610   2.868  11.292  0.6322 -3.3945  0.2189
  507TIP3   OH222935   4.653   2.017  15.362  0.1832  0.1596  0.7015
  507TIP3    H122936   4.559   2.024  15.345  0.1257  0.4953  1.1195
  507TIP3    H222937   4.658   1.973  15.447  0.4682 -1.7490 -0.2597
  508TIP3   OH222938   4.364   4.436   3.596 -0.7170 -0.3469 -0.6126
  508TIP3    H122939   4.373   4.380   3.674  1.8515  1.2284  0.3637
  508TIP3    H222940   4.341   4.522   3.631 -0.3911  0.1786 -1.6618
  509TIP3   OH222941   3.659   1.914   0.056 -0.3351  0.2829  0.1750
  509TIP3    H122942   3.573   1.897   0.015 -0.0496 -1.2876  0.1807
  509TIP3    H222943   3.703   1.829   0.056 -0.3190  0.1593  3.7927
  510TIP3   OH222944   1.967   5.688   4.135  0.3831 -0.1428 -0.8924
  510TIP3    H122945   1.902   5.685   4.064  1.2330 -0.3681 -1.6844
  510TIP3    H222946   2.026   5.615   4.117  2.0961  1.3031 -1.4438
  511TIP3   OH222947   4.667   6.521   2.168  0.2034  0.0183  0.0811
  511TIP3    H122948   4.637   6.477   2.088  1.0152 -2.5487  1.0904
  511TIP3    H222949   4.758   6.545   2.150  0.9683 -2.1539  0.7526
  512TIP3   OH222950   2.302   2.424   2.927 -0.0717  0.1937 -0.3699
  512TIP3    H122951   2.280   2.355   2.864 -0.8691 -0.3438  0.4661
  512TIP3    H222952   2.363   2.382   2.987 -1.1971 -0.0647  0.6268
  513TIP3   OH222953   1.191   2.660  16.548  0.3012 -0.9545  0.5627
  513TIP3    H122954   1.282   2.633  16.562  0.0442 -1.9139  0.4167
  513TIP3    H222955   1.159   2.682  16.636  0.6358 -0.7070  0.6274
  514TIP3   OH222956   4.493   2.888  13.847  0.0611 -0.3202 -0.1641
  514TIP3    H122957   4.519   2.900  13.756  1.1801  1.6402  0.3478
  514TIP3    H222958   4.399   2.907  13.848  0.2765  0.8406 -0.7279
  515TIP3   OH222959   4.089   3.616  16.117  0.1265 -0.6411 -0.0602
  515TIP3    H122960   4.150   3.633  16.188 -1.3980 -0.6793  1.2944
  515TIP3    H222961   4.088   3.521  16.108 -0.6617 -0.7162  0.7657
  516TIP3   OH222962   6.560   0.835   2.372 -0.5905 -1.4069  0.4108
  516TIP3    H122963   6.482   0.833   2.316 -0.9926 -0.4657  0.9165
  516TIP3    H222964   6.628   0.794   2.319 -0.3237  1.5582 -1.8022
  517TIP3   OH222965   0.202   0.906  15.123 -0.3125  0.0611 -0.0556
  517TIP3    H122966   0.188   0.835  15.185 -1.9319  0.8616  0.5439
  517TIP3    H222967   0.183   0.985  15.173  2.5279  1.0633 -0.3788
  518TIP3   OH222968   2.237   3.527  16.971 -0.5237 -0.2907 -0.3170
  518TIP3    H122969   2.241   3.445  16.922 -0.3335 -0.9848  0.8215
  518TIP3    H222970   2.166   3.576  16.929 -2.1998 -1.9957  0.3895
  519TIP3   OH222971   3.619   0.996  16.922  0.0747 -0.1176 -0.0817
  519TIP3    H122972   3.642   1.044  16.842  0.1836  0.4199  0.2685
  519TIP3    H222973   3.532   1.029  16.946  0.5999  0.7044  0.7547
  520TIP3   OH222974   0.193   3.315  13.182 -0.0423 -0.0705 -0.1090
  520TIP3    H122975   0.107   3.351  13.160 -0.5919 -0.0835  1.8441
  520TIP3    H222976   0.188   3.223  13.155  0.0838  0.3711 -1.7639
  521TIP3   OH222977   4.583   5.381  13.699  0.1583 -0.3143 -0.3878
  521TIP3    H122978   4.569   5.298  13.654  1.3218  0.3213 -2.0033
  521TIP3    H222979   4.574   5.359  13.792  0.0329 -2.1469 -0.7863
  522TIP3   OH222980   1.497   3.360  14.354  0.0264 -0.2018 -0.2991
  522TIP3    H122981   1.471   3.446  14.385  0.7915 -0.0481 -0.0578
  522TIP3    H222982   1.436   3.300  14.396 -0.4144  0.2050 -0.3484
  523TIP3   OH222983   0.304   1.442   5.208 -0.1362  0.1408 -0.2157
  523TIP3    H122984   0.293   1.467   5.299  1.1756 -0.4695  0.1346
  523TIP3    H222985   0.397   1.456   5.190  0.1322 -2.0036 -0.7433
  524TIP3   OH222986   2.999   5.421  14.776 -0.2599  0.2292  0.5211
  524TIP3    H122987   2.984   5.494  14.836 -0.7720 -0.1435  0.8462
  524TIP3    H222988   2.972   5.455  14.691 -1.4552  0.0945  0.8353
  525TIP3   OH222989   3.821   5.072   5.954 -0.5281 -0.3992  0.1883
  525TIP3    H122990   3.860   5.025   5.880 -0.5336 -0.7507  0.4084
  525TIP3    H222991   3.887   5.065   6.023  0.0459  1.0295 -0.1762
  526TIP3   OH222992   1.614   3.171  14.992  0.0107 -0.4049 -0.5375
  526TIP3    H122993   1.596   3.160  14.899  0.7241 -1.2822 -0.5965
  526TIP3    H222994   1.710   3.167  14.998  0.0813  1.4737  0.0328
  527TIP3   OH222995   6.448   2.362   5.251 -0.1532 -0.1985  0.7036
  527TIP3    H122996   6.389   2.407   5.312  0.6837  1.7816  0.1186
  527TIP3    H222997   6.515   2.322   5.307 -1.1537 -1.1714  1.2602
  528TIP3   OH222998   6.094   4.317   2.209  0.7258  0.9179 -0.2723
  528TIP3    H122999   6.184   4.337   2.234  1.5168 -0.0921 -2.1414
  528TIP3    H223000   6.082   4.225   2.233  0.3070  0.9473 -0.3620
  529TIP3   OH223001   3.197   2.414   4.585 -0.0763  0.1173  0.2474
  529TIP3    H123002   3.111   2.373   4.573  0.4441 -0.9243 -0.0119
  529TIP3    H223003   3.243   2.398   4.503 -0.5214  2.9317 -0.6445
  530TIP3   OH223004   2.084   0.378   0.417  0.5840  0.0309 -0.4770
  530TIP3    H123005   2.122   0.336   0.494 -0.8028  1.2877  0.9989
  530TIP3    H223006   2.125   0.464   0.414  0.9442 -0.1680 -1.4210
  531TIP3   OH223007   4.293   4.213  16.649 -0.0097  1.0239  0.4730
  531TIP3    H123008   4.310   4.209  16.555 -0.6070  0.2487  0.3887
  531TIP3    H223009   4.331   4.133  16.685  0.4564  1.4438  0.9394
  532TIP3   OH223010   3.544   1.718   1.436  0.3064  0.0328  0.3702
  532TIP3    H123011   3.466   1.761   1.401  0.1246 -0.5224  0.0859
  532TIP3    H223012   3.596   1.790   1.472 -0.8143  0.3006  1.5139
  533TIP3   OH223013   6.720   4.962  10.975 -0.0576 -0.1378  0.6854
  533TIP3    H123014   6.648   4.900  10.973 -1.0963  1.0315 -0.4566
  533TIP3    H223015   6.748   4.969  10.884  1.6458 -0.6936  1.1272
  534TIP3   OH223016   5.676   1.637  15.140 -0.2776  0.2092  0.1954
  534TIP3    H123017   5.660   1.568  15.075 -1.7861 -0.1132  0.8823
  534TIP3    H223018   5.750   1.686  15.104  0.6017 -1.5289 -0.4977
  535TIP3   OH223019   2.454   2.350   4.433  0.0805  0.2166 -0.4238
  535TIP3    H123020   2.436   2.328   4.525  1.1096 -0.0244 -0.2716
  535TIP3    H223021   2.511   2.426   4.438  0.9960 -0.4320 -0.8425
  536TIP3   OH223022   5.740   4.326  15.281  0.6462  0.1204  0.0403
  536TIP3    H123023   5.664   4.310  15.226  0.7981 -0.6662  0.0458
  536TIP3    H223024   5.745   4.422  15.288  0.2141  0.2068 -0.7224
  537TIP3   OH223025   0.786   5.235   3.773  0.2606 -0.0668  0.1640
  537TIP3    H123026   0.867   5.220   3.724  0.9242 -0.9033  1.4788
  537TIP3    H223027   0.758   5.148   3.802 -1.0326  0.2262 -0.1220
  538TIP3   OH223028   5.135   1.964   1.012 -0.0520 -0.0647  0.0515
  538TIP3    H123029   5.188   1.903   1.062 -0.4873 -0.3186  0.2146
  538TIP3    H223030   5.159   2.050   1.046  0.0421 -0.1966  0.3250
  539TIP3   OH223031   3.942   0.377  11.603 -0.2481 -0.3482 -0.0131
  539TIP3    H123032   3.988   0.304  11.644  3.4943  1.2579 -0.9457
  539TIP3    H223033   3.982   0.456  11.641 -0.3040  1.1744 -2.8154
  540TIP3   OH223034   4.162   5.744   1.846 -0.0339  0.6892  0.1721
  540TIP3    H123035   4.110   5.712   1.773  0.0614 -0.4743  0.5943
  540TIP3    H223036   4.097   5.783   1.905 -0.6899 -1.8667  1.2965
  541TIP3   OH223037   0.031   4.136  14.642 -0.6545  0.2313 -0.2830
  541TIP3    H123038  -0.022   4.203  14.599  1.1013  1.3929 -0.7132
  541TIP3    H223039   0.027   4.158  14.735 -1.9226 -0.4464 -0.1557
  542TIP3   OH223040   5.837   3.261   3.065 -0.0972  0.0792 -0.4153
  542TIP3    H123041   5.857   3.265   2.972 -1.9803  0.5023 -0.8409
  542TIP3    H223042   5.743   3.276   3.070 -0.0751 -0.1834  1.5444
  543TIP3   OH223043   2.940   2.672   6.572 -0.6141 -0.2842  0.3152
  543TIP3    H123044   2.889   2.725   6.632 -0.7429 -0.1388  0.0790
  543TIP3    H223045   2.888   2.669   6.492  1.2426  2.7930 -1.2168
  544TIP3   OH223046   1.978   5.296  12.844  0.1168 -0.3547  0.2873
  544TIP3    H123047   1.993   5.391  12.844 -0.3741 -0.2755  0.4595
  544TIP3    H223048   2.054   5.260  12.798  0.7194  0.0623  0.9189
  545TIP3   OH223049   4.476   2.464  13.366  0.2271  0.4325 -0.2804
  545TIP3    H123050   4.533   2.411  13.422  0.8230  0.4264 -0.8746
  545TIP3    H223051   4.394   2.471  13.414  0.1870 -0.9157 -0.1190
  546TIP3   OH223052   1.443   6.811  16.504 -0.2411  0.0806 -0.0522
  546TIP3    H123053   1.522   6.760  16.523  0.2862  0.3911 -1.3326
  546TIP3    H223054   1.463   6.899  16.538 -0.2749  0.0139  0.1443
  547TIP3   OH223055   3.056   3.322   5.645  0.2850 -0.1269  0.2290
  547TIP3    H123056   3.094   3.239   5.617  2.5127  0.5936  0.9498
  547TIP3    H223057   3.008   3.353   5.568 -0.0154 -1.7117 -0.2728
  548TIP3   OH223058   4.978   0.439   6.369  0.1215  0.1928  0.7072
  548TIP3    H123059   4.933   0.407   6.291  0.1487 -0.0493  0.7882
  548TIP3    H223060   5.026   0.516   6.340  1.3332 -0.7411  0.1196
  549TIP3   OH223061   0.994   4.151   2.134  0.0964  0.3645 -0.4914
  549TIP3    H123062   1.048   4.085   2.176  0.3159  0.4934 -0.5680
  549TIP3    H223063   0.910   4.108   2.119 -0.0657  0.3878  0.2997
  550TIP3   OH223064   4.491   5.837   4.302  0.3417  0.3734  0.0021
  550TIP3    H123065   4.558   5.771   4.314  1.5440  1.4324 -0.6910
  550TIP3    H223066   4.421   5.792   4.254  1.9374  0.0314 -2.1481
  551TIP3   OH223067   4.981   3.509  11.919 -0.0495  0.0332 -0.0464
  551TIP3    H123068   4.894   3.548  11.925 -0.5725 -1.1910  0.9192
  551TIP3    H223069   4.964   3.415  11.916  1.2180 -0.1937 -0.6994
  552TIP3   OH223070   6.321   6.347  14.653 -0.2770  0.5444  0.2969
  552TIP3    H123071   6.412   6.356  14.623 -0.4059  0.6084 -0.0801
  552TIP3    H223072   6.329   6.324  14.745  0.1192  0.7915  0.3274
  553TIP3   OH223073   2.118   5.649   4.481  0.0132  0.3435  0.0159
  553TIP3    H123074   2.214   5.647   4.488  0.1067  0.6953 -0.9819
  553TIP3    H223075   2.099   5.732   4.436 -0.6371 -0.5521 -1.4387
  554TIP3   OH223076   6.738   1.263  10.830  0.9925 -0.5644 -0.6402
  554TIP3    H123077   6.756   1.335  10.769  2.7283 -0.3365  0.0803
  554TIP3    H223078   6.823   1.222  10.844  0.4931 -1.1207  1.0094
  555TIP3   OH223079   4.496   2.442  12.564 -0.6427 -0.0740  0.0447
  555TIP3    H123080   4.521   2.526  12.603 -0.8890 -0.3862  0.9072
  555TIP3    H223081   4.520   2.450  12.472  1.2331  0.2012  0.5110
  556TIP3   OH223082   0.402   2.453   4.309  0.3476  0.3097 -0.2819
  556TIP3    H123083   0.449   2.523   4.354  0.9260 -0.4423  0.3252
  556TIP3    H223084   0.311   2.463   4.338  0.5460  0.4131  0.3277
  557TIP3   OH223085   5.246   3.952   2.338 -0.0265  0.2554  0.4461
  557TIP3    H123086   5.185   3.974   2.269 -0.1604 -0.2606  0.3929
  557TIP3    H223087   5.274   3.862   2.318  0.2948  0.2741  0.7919
  558TIP3   OH223088   6.490   1.596  14.665 -0.3454 -0.4652 -0.3439
  558TIP3    H123089   6.442   1.678  14.666 -0.9431 -0.7581 -1.8811
  558TIP3    H223090   6.431   1.533  14.707 -1.7008 -0.9721 -2.8016
  559TIP3   OH223091   5.733   1.990  13.255  0.0253  0.2520  0.2249
  559TIP3    H123092   5.747   2.044  13.333  1.4098 -0.3644  0.4366
  559TIP3    H223093   5.785   2.033  13.187  2.0795 -1.3490  0.6761
  560TIP3   OH223094   4.289   1.484  15.578 -0.0470 -0.9192  0.5299
  560TIP3    H123095   4.227   1.453  15.513  0.7562 -0.0192 -0.7062
  560TIP3    H223096   4.260   1.573  15.599  1.1226 -0.2700 -0.4947
  561TIP3   OH223097   5.403   6.713   0.492 -0.1372 -0.7007 -0.4185
  561TIP3    H123098   5.354   6.749   0.418 -0.2694 -1.9606 -0.9872
  561TIP3    H223099   5.465   6.652   0.451 -1.1836 -2.5302  0.5607
  562TIP3   OH223100   0.880   1.371   4.939  0.2830 -0.1336 -0.1196
  562TIP3    H123101   0.907   1.410   5.022  0.3410  1.0889 -0.6912
  562TIP3    H223102   0.929   1.419   4.873 -2.2061  1.2347 -1.1184
  563TIP3   OH223103   0.476   4.545  15.845  0.4892  0.4069 -0.6205
  563TIP3    H123104   0.402   4.520  15.789 -0.2697  1.1266  0.0290
  563TIP3    H223105   0.458   4.501  15.928  0.4148  1.1388 -0.2401
  564TIP3   OH223106   4.642   5.396   5.090 -0.1642  0.8786  0.0141
  564TIP3    H123107   4.662   5.478   5.044  3.9511  0.3187  0.4002
  564TIP3    H223108   4.661   5.415   5.182  0.4443 -0.3872  0.1696
  565TIP3   OH223109   0.670   2.576  17.020  0.2438  0.4607 -0.3372
  565TIP3    H123110   0.675   2.643  16.952 -2.8968  0.6210 -0.5617
  565TIP3    H223111   0.645   2.496  16.973  0.9090 -0.1278  0.2917
  566TIP3   OH223112   0.334   2.385  10.574  0.5693 -1.0587  0.0978
  566TIP3    H123113   0.292   2.340  10.648 -0.7317 -1.5001 -0.8672
  566TIP3    H223114   0.386   2.454  10.614 -1.6830  0.0141  1.3811
  567TIP3   OH223115   5.121   0.080  11.400  1.4419  0.6373 -1.0324
  567TIP3    H123116   5.074   0.010  11.445 -0.7344  1.9767 -1.0900
  567TIP3    H223117   5.192   0.103  11.460  0.6472  0.0990  0.1498
  568TIP3   OH223118   4.909   6.274   3.969  0.0336  0.1481  0.1113
  568TIP3    H123119   4.964   6.196   3.975 -0.4274 -0.2305 -0.4759
  568TIP3    H223120   4.958   6.335   3.913 -0.7526 -0.7329 -1.5907
  569TIP3   OH223121   3.232   5.155   2.773 -0.2737 -0.5701 -0.2396
  569TIP3    H123122   3.223   5.242   2.812  1.0431 -0.6350  0.2319
  569TIP3    H223123   3.202   5.096   2.841  2.1796 -0.6946  0.8138
  570TIP3   OH223124   2.424   4.955   2.900  0.5159 -0.8788  0.1640
  570TIP3    H123125   2.358   4.886   2.897  0.3195 -0.7345  0.9141
  570TIP3    H223126   2.416   5.000   2.816  1.5478 -2.5838 -0.8888
  571TIP3   OH223127   0.868   4.257   5.161  0.6330  0.1749  0.1362
  571TIP3    H123128   0.785   4.264   5.112  0.6701  0.7196  0.1452
  571TIP3    H223129   0.846   4.284   5.250  0.7678  0.0904  0.1947
  572TIP3   OH223130   2.830   4.107  15.218  0.0481  0.5312  0.1995
  572TIP3    H123131   2.868   4.167  15.282  0.2761  0.7648 -0.1482
  572TIP3    H223132   2.905   4.063  15.178 -0.0661  0.7008 -0.2081
  573TIP3   OH223133   4.358   2.251   4.740  0.5734 -0.0132  0.2283
  573TIP3    H123134   4.319   2.257   4.653 -0.0677 -0.1084  0.5069
  573TIP3    H223135   4.385   2.159   4.748  2.8648  0.4881 -0.8053
  574TIP3   OH223136   6.179   6.424   4.468 -0.2023 -0.2928  0.3087
  574TIP3    H123137   6.256   6.369   4.482  0.1476  0.4463  1.3977
  574TIP3    H223138   6.178   6.440   4.373  0.4797 -1.0083  0.1710
  575TIP3   OH223139   2.277   4.723  12.793 -0.1407  0.6525  0.5933
  575TIP3    H123140   2.293   4.803  12.743  0.1337  0.1913 -0.0812
  575TIP3    H223141   2.353   4.715  12.851  1.1588 -0.4428 -1.1527
  576TIP3   OH223142   1.588   4.723  12.981 -0.0802 -0.5228  0.3378
  576TIP3    H123143   1.665   4.739  12.926 -0.8854  0.7675 -0.4691
  576TIP3    H223144   1.621   4.734  13.070  0.6985 -0.0988  0.0136
  577TIP3   OH223145   4.553   4.509   5.836 -0.8427 -0.4466 -0.9546
  577TIP3    H123146   4.462   4.509   5.864 -1.1560 -3.2091 -1.6742
  577TIP3    H223147   4.597   4.447   5.895  0.0487 -0.8335 -1.9787
  578TIP3   OH223148   6.757   3.791  16.972 -0.7163 -0.4801  0.9119
  578TIP3    H123149   6.726   3.700  16.973  2.0681 -1.5549  0.4777
  578TIP3    H223150   6.835   3.788  16.917 -0.7799  2.2929  0.5769
  579TIP3   OH223151   0.639   5.761   3.603  0.0695 -0.3668 -0.2018
  579TIP3    H123152   0.693   5.685   3.581  0.9433  0.6719 -1.8047
  579TIP3    H223153   0.696   5.836   3.588 -1.1490  0.6649  0.1936
  580TIP3   OH223154   6.359   0.204   6.238 -0.6906 -0.0235  0.2536
  580TIP3    H123155   6.341   0.196   6.332  1.3872 -1.6722  0.5830
  580TIP3    H223156   6.337   0.118   6.202 -1.6354  0.6462 -0.8290
  581TIP3   OH223157   1.259   4.719   5.563  0.0892 -0.0221  0.5435
  581TIP3    H123158   1.231   4.809   5.544 -2.9706 -0.4841  2.2644
  581TIP3    H223159   1.242   4.708   5.657  0.5502 -2.3783  0.4060
  582TIP3   OH223160   3.128   0.731  12.384 -0.0388  0.4784  0.1212
  582TIP3    H123161   3.127   0.780  12.466  0.3474 -1.7379  1.5127
  582TIP3    H223162   3.213   0.688  12.383 -0.0360  0.4683 -1.4734
  583TIP3   OH223163   3.857   4.116  16.420  0.1959  0.0645  0.0537
  583TIP3    H123164   3.891   4.183  16.360 -0.7926 -1.1977 -2.0402
  583TIP3    H223165   3.933   4.087  16.469  1.0506  1.2109 -0.5311
  584TIP3   OH223166   0.269   3.469   5.638 -0.0200  0.2295  0.3306
  584TIP3    H123167   0.201   3.489   5.701 -0.9797 -0.8440 -0.3199
  584TIP3    H223168   0.348   3.456   5.690 -0.6338  0.0799  1.2357
  585TIP3   OH223169   5.770   3.860  11.712  0.2925  0.4333 -0.0486
  585TIP3    H123170   5.830   3.855  11.786  0.0999 -0.9785  0.0306
  585TIP3    H223171   5.685   3.880  11.752  0.2976  0.2599  0.0482
  586TIP3   OH223172   1.712   6.004   4.595  0.0979  0.4030  0.7104
  586TIP3    H123173   1.762   5.928   4.566 -2.1904 -0.4569 -1.2910
  586TIP3    H223174   1.778   6.074   4.603  1.6838 -0.6617 -1.7472
  587TIP3   OH223175   4.789   0.960   2.570  0.0129  0.6267 -0.0388
  587TIP3    H123176   4.704   1.004   2.568 -0.6042 -0.4974  0.7688
  587TIP3    H223177   4.805   0.941   2.662  1.1315  0.7907 -0.1831
  588TIP3   OH223178   3.568   5.530  15.558 -0.0739  0.1160  0.9787
  588TIP3    H123179   3.573   5.533  15.653  1.8692 -2.5615  1.0510
  588TIP3    H223180   3.509   5.457  15.539  2.1530 -1.5910  0.2262
  589TIP3   OH223181   2.267   3.976   6.487  0.1518  0.4781 -0.0148
  589TIP3    H123182   2.228   3.994   6.573 -1.4157  1.4297 -0.8736
  589TIP3    H223183   2.269   3.880   6.481 -0.4601  0.4018  0.7822
  590TIP3   OH223184   6.586   3.857   4.179 -0.5094 -0.3353 -0.6702
  590TIP3    H123185   6.571   3.823   4.267 -1.5023 -0.7072 -0.9572
  590TIP3    H223186   6.657   3.804   4.144 -0.1728 -0.2453 -0.1232
  591TIP3   OH223187   0.426   5.267  12.786 -0.2251  0.7465  0.2832
  591TIP3    H123188   0.369   5.275  12.710 -1.0197 -1.9344  0.4854
  591TIP3    H223189   0.439   5.172  12.797  4.2388  1.1323  0.3061
  592TIP3   OH223190   5.107   3.593   1.705  0.1438 -0.6560 -0.0500
  592TIP3    H123191   5.057   3.516   1.733 -1.6455  0.9423  1.4784
  592TIP3    H223192   5.039   3.658   1.683  1.5766  1.0325  0.3367
  593TIP3   OH223193   0.287   3.570  15.595 -0.3093  0.1313 -0.1509
  593TIP3    H123194   0.366   3.583  15.648 -0.2036  0.3847 -0.3691
  593TIP3    H223195   0.290   3.640  15.530  0.3571 -1.1080 -1.4815
  594TIP3   OH223196   0.548   4.037   4.751 -0.3688 -0.1675 -0.0797
  594TIP3    H123197   0.496   3.967   4.792 -1.3691  0.6059  0.0008
  594TIP3    H223198   0.488   4.078   4.689  0.2999  0.4486 -0.3259
  595TIP3   OH223199   0.332   6.793   4.276  0.2089  0.4613  0.1745
  595TIP3    H123200   0.251   6.831   4.242 -0.1536  1.5429  2.0998
  595TIP3    H223201   0.335   6.821   4.368  1.4716 -1.7143  0.8665
  596TIP3   OH223202   6.706   2.806  15.730  0.2351  0.2937 -0.1968
  596TIP3    H123203   6.689   2.762  15.813 -1.7614  0.4588 -0.4757
  596TIP3    H223204   6.705   2.899  15.752  4.3843  0.3956  0.3796
  597TIP3   OH223205   3.516   3.054   0.265  0.6333 -0.4196  0.6365
  597TIP3    H123206   3.538   3.136   0.222  0.5643 -1.1299 -0.8210
  597TIP3    H223207   3.581   3.045   0.335  0.8972  0.6552  0.5424
  598TIP3   OH223208   5.097   1.174  13.521 -0.2555  0.2959  0.1473
  598TIP3    H123209   5.163   1.182  13.590  1.4211 -0.7947 -1.2497
  598TIP3    H223210   5.024   1.228  13.552  1.3531  1.7440  1.6583
  599TIP3   OH223211   6.711   6.778   0.343  0.1219 -0.6058  0.2226
  599TIP3    H123212   6.629   6.777   0.293 -0.0528  0.9275  0.4117
  599TIP3    H223213   6.687   6.748   0.430 -0.2374 -0.2659  0.2458
  600TIP3   OH223214   6.085   6.719  10.930  0.2000  0.2663  0.0940
  600TIP3    H123215   6.140   6.655  10.886 -0.1186 -0.4510  0.7294
  600TIP3    H223216   6.092   6.798  10.875 -0.3226 -0.6450 -1.3531
  601TIP3   OH223217   5.830   2.128   4.921  0.0668  0.0643 -0.0546
  601TIP3    H123218   5.834   2.150   4.828  0.8898 -0.7783 -0.2359
  601TIP3    H223219   5.847   2.210   4.966 -2.3836  0.9530 -0.5782
  602TIP3   OH223220   5.191   5.473   4.942 -0.6168 -1.0245  0.6210
  602TIP3    H123221   5.163   5.401   4.998 -3.9663  1.2035  2.1392
  602TIP3    H223222   5.133   5.546   4.966  2.1922  2.0708 -1.1323
  603TIP3   OH223223   0.031   0.267   0.433 -1.0396 -0.4622  0.0191
  603TIP3    H123224   0.055   0.314   0.512 -0.2340  0.0143 -0.5007
  603TIP3    H223225  -0.064   0.278   0.427 -1.4889 -2.5043  2.1723
  604TIP3   OH223226   1.484   0.719   3.047 -0.5427 -0.1931 -0.2544
  604TIP3    H123227   1.459   0.648   3.106  0.9517 -0.6674 -0.1597
  604TIP3    H223228   1.497   0.794   3.104  0.2161 -0.4710 -0.0536
  605TIP3   OH223229   0.123   4.972  15.326 -0.0288 -0.3312 -0.1232
  605TIP3    H123230   0.115   5.053  15.377 -0.5617 -1.2889  1.3683
  605TIP3    H223231   0.209   4.978  15.284  0.5910  0.3168  1.2045
  606TIP3   OH223232   5.837   5.010   3.198  0.3737  0.0057 -0.2023
  606TIP3    H123233   5.746   5.037   3.211  0.7143  1.0538  0.1120
  606TIP3    H223234   5.864   4.976   3.284  1.5103  3.5746  1.0517
  607TIP3   OH223235   1.712   4.684  15.230 -0.1445 -0.3971  0.2379
  607TIP3    H123236   1.786   4.624  15.233  1.5322  1.5825  2.0697
  607TIP3    H223237   1.664   4.660  15.151  1.4347 -2.9121 -0.0499
  608TIP3   OH223238   3.277   5.371  16.600 -0.5811  0.1155 -0.6985
  608TIP3    H123239   3.307   5.317  16.527  0.1442  1.5896 -1.5446
  608TIP3    H223240   3.240   5.449  16.558  0.7139  1.4400  0.5013
  609TIP3   OH223241   0.186   4.556  10.538 -0.2994  0.2755 -0.0437
  609TIP3    H123242   0.237   4.514  10.608 -1.8286  0.6839  1.3857
  609TIP3    H223243   0.120   4.490  10.514 -0.2550  0.4240 -0.5862
  610TIP3   OH223244   5.045   2.037  12.230 -0.0858  0.0472  0.0251
  610TIP3    H123245   5.019   1.962  12.283  0.0247  1.0888  1.5955
  610TIP3    H223246   4.963   2.075  12.200 -0.1795 -0.0352  0.1758
  611TIP3   OH223247   5.419   1.463  13.180  0.4663  0.3007 -0.0674
  611TIP3    H123248   5.463   1.440  13.098  1.3608  1.5047  0.0540
  611TIP3    H223249   5.441   1.555  13.195 -0.8657  0.5131  0.7941
  612TIP3   OH223250   1.458   5.043   3.372 -0.3141 -0.3888  0.1447
  612TIP3    H123251   1.430   4.988   3.298  0.5337 -0.2478 -0.2874
  612TIP3    H223252   1.461   4.982   3.446 -1.3865 -0.4854  0.1304
  613TIP3   OH223253   4.457   6.333   4.053 -0.5727  0.0030 -0.2006
  613TIP3    H123254   4.375   6.330   4.104 -0.3046 -2.5389  0.2048
  613TIP3    H223255   4.429   6.359   3.965 -1.8281 -0.7557 -0.0558
  614TIP3   OH223256   2.557   3.898  13.620  0.2589  0.2278 -1.0068
  614TIP3    H123257   2.635   3.920  13.671  0.4765 -2.6474  0.0722
  614TIP3    H223258   2.590   3.870  13.535  0.1495  1.4608 -1.4873
  615TIP3   OH223259   5.621   5.266   5.681 -0.1394  0.3121 -0.1782
  615TIP3    H123260   5.552   5.274   5.746  0.6458  2.7649  0.5057
  615TIP3    H223261   5.697   5.235   5.731  0.1648  1.1149 -0.1176
  616TIP3   OH223262   1.561   5.625   4.156  0.5470  0.3549 -0.3550
  616TIP3    H123263   1.544   5.635   4.250 -2.5207 -1.0588 -0.6277
  616TIP3    H223264   1.608   5.542   4.149  1.9749  1.1108 -0.0189
  617TIP3   OH223265   5.750   3.032  15.848  0.0092 -0.2152  0.3455
  617TIP3    H123266   5.752   2.961  15.912  1.3402  0.8791  1.5853
  617TIP3    H223267   5.672   3.083  15.872  0.0447 -0.2667  0.5728
  618TIP3   OH223268   0.195   1.045   6.079  0.4523  0.3052  0.1414
  618TIP3    H123269   0.194   1.095   6.160 -0.4628  0.8710 -0.2062
  618TIP3    H223270   0.106   1.011   6.071 -0.3963  2.7926 -2.1552
  619TIP3   OH223271   5.330   3.069   4.785  0.1488  0.8038 -0.2346
  619TIP3    H123272   5.259   3.047   4.726  0.4040 -2.0513  0.3554
  619TIP3    H223273   5.300   3.039   4.871  2.3986 -1.5534 -0.1532
  620TIP3   OH223274   3.225   4.159   0.211 -0.0318 -0.0444 -0.9283
  620TIP3    H123275   3.169   4.234   0.191 -0.4748 -0.7783 -2.6647
  620TIP3    H223276   3.290   4.160   0.141  1.4792  0.1397  0.4364
  621TIP3   OH223277   0.263   1.123   1.977 -0.6535 -0.7032  0.2165
  621TIP3    H123278   0.264   1.219   1.967 -1.3367 -0.6508  0.6338
  621TIP3    H223279   0.267   1.091   1.887 -0.8229 -0.2743  0.0496
  622TIP3   OH223280   2.313   6.339   4.760 -0.7809 -0.0483  0.0435
  622TIP3    H123281   2.370   6.263   4.774 -0.2104  0.3448 -0.1279
  622TIP3    H223282   2.369   6.415   4.776 -1.4058  0.3451  0.4492
  623TIP3   OH223283   0.558   2.464   0.787  0.0970 -0.4084 -0.2070
  623TIP3    H123284   0.487   2.528   0.785 -1.6863 -2.3043 -0.1855
  623TIP3    H223285   0.544   2.409   0.710  2.7989  0.3628 -1.3801
  624TIP3   OH223286   5.891   0.963   0.239 -0.0813 -0.3683 -0.5632
  624TIP3    H123287   5.944   0.988   0.314 -0.8445 -1.0888  0.2244
  624TIP3    H223288   5.949   0.976   0.164  0.6648  0.4325  0.1264
  625TIP3   OH223289   1.666   2.487  11.510  0.2047  0.1378 -0.2938
  625TIP3    H123290   1.688   2.400  11.543 -0.6368  0.3452  0.8679
  625TIP3    H223291   1.614   2.527  11.580  2.8024  2.6224  0.3946
  626TIP3   OH223292   2.422   6.535   2.455 -0.0877 -0.6436  0.0902
  626TIP3    H123293   2.398   6.624   2.429  0.3593 -0.4756  0.2517
  626TIP3    H223294   2.350   6.507   2.510  0.1396 -0.0866  0.6872
  627TIP3   OH223295   3.845   1.300   1.746  0.0895 -0.4511 -0.3482
  627TIP3    H123296   3.785   1.233   1.777  0.5573 -1.5872 -1.7710
  627TIP3    H223297   3.800   1.339   1.670  0.5892 -0.4086 -0.6267
  628TIP3   OH223298   0.482   1.053  10.881  0.2061 -0.1369  0.4924
  628TIP3    H123299   0.519   1.028  10.797 -1.9360  2.0437 -1.2605
  628TIP3    H223300   0.558   1.069  10.937  1.9009  1.6026 -2.0715
  629TIP3   OH223301   2.478   5.573   0.052  0.4382 -0.1929  0.3188
  629TIP3    H123302   2.553   5.514   0.059  0.8622 -0.2537 -3.1292
  629TIP3    H223303   2.411   5.521   0.009  0.1548  1.2327 -1.0442
  630TIP3   OH223304   2.526   3.775  10.770  0.4979 -0.2579 -0.4823
  630TIP3    H123305   2.507   3.843  10.706  0.7922  0.9996  0.7053
  630TIP3    H223306   2.445   3.725  10.776  0.1144  0.2784 -1.0572
  631TIP3   OH223307   2.154   4.474   5.964  0.4844  0.0315 -0.3063
  631TIP3    H123308   2.158   4.566   5.992  0.7496 -0.0340 -0.1279
  631TIP3    H223309   2.182   4.477   5.872 -0.2681  0.2285 -0.5391
  632TIP3   OH223310   6.159   6.492  12.384  0.1515 -0.1193  0.1611
  632TIP3    H123311   6.064   6.490  12.391  0.1014 -0.7213 -0.6229
  632TIP3    H223312   6.182   6.413  12.335  0.8738  1.1134 -1.5863
  633TIP3   OH223313   0.933   1.352  15.626  0.2002  0.0360 -0.0877
  633TIP3    H123314   0.996   1.281  15.614  0.6909  0.4531 -0.0191
  633TIP3    H223315   0.872   1.319  15.691 -1.5164 -1.6197 -2.3593
  634TIP3   OH223316   6.033   1.870  10.825 -0.2221  0.0026  0.1960
  634TIP3    H123317   6.015   1.787  10.781 -1.9074  0.5952 -0.3084
  634TIP3    H223318   5.955   1.924  10.809  1.1526  1.9913 -0.1671
  635TIP3   OH223319   1.125   2.989  17.063 -0.5925  0.2655 -0.2600
  635TIP3    H123320   1.072   2.924  17.016  0.6349 -1.0227  0.0788
  635TIP3    H223321   1.196   3.009  17.002 -0.9001  1.2250 -0.3111
  636TIP3   OH223322   4.674   3.292   5.645  0.3022  0.3663  0.2756
  636TIP3    H123323   4.708   3.363   5.699  2.2325 -0.7506  0.6503
  636TIP3    H223324   4.581   3.311   5.635  0.2132  1.4794  2.6310
  637TIP3   OH223325   2.675   0.505   4.186 -0.0752 -0.7780  0.5081
  637TIP3    H123326   2.589   0.540   4.161  0.4089  1.4054  1.6509
  637TIP3    H223327   2.663   0.473   4.276 -0.0457 -1.9388  0.1190
  638TIP3   OH223328   1.231   1.758  12.380 -0.0631  0.1368 -0.2621
  638TIP3    H123329   1.213   1.841  12.424 -0.2080  0.1705 -0.3838
  638TIP3    H223330   1.240   1.781  12.288 -2.6616 -0.2963 -0.7036
  639TIP3   OH223331   0.469   2.264  14.749  0.4940 -0.0709 -0.2512
  639TIP3    H123332   0.454   2.264  14.843  3.2124 -1.0440  0.2928
  639TIP3    H223333   0.481   2.172  14.727  0.3073  0.1826 -1.4660
  640TIP3   OH223334   4.513   1.142  16.003  0.0527  0.0769  0.0366
  640TIP3    H123335   4.551   1.058  16.030 -1.8180 -0.8342 -0.0168
  640TIP3    H223336   4.474   1.125  15.918 -0.4601  0.9757  0.0758
  641TIP3   OH223337   2.201   3.225   0.693 -0.2816  0.2301 -0.6902
  641TIP3    H123338   2.269   3.210   0.628 -0.3831  0.3463 -0.8239
  641TIP3    H223339   2.165   3.138   0.711 -1.3455  0.3684 -1.9841
  642TIP3   OH223340   6.525   1.036  14.171 -0.1299 -0.1789 -0.2160
  642TIP3    H123341   6.497   0.957  14.218 -0.2800 -0.0581 -0.1042
  642TIP3    H223342   6.514   1.014  14.079  0.6106 -0.5875 -0.2161
  643TIP3   OH223343   5.714   5.837   5.020 -0.5294 -0.2892  0.0441
  643TIP3    H123344   5.684   5.788   5.097  0.0899  0.3600  0.7193
  643TIP3    H223345   5.669   5.796   4.946 -1.8639 -0.3499  0.8475
  644TIP3   OH223346   2.980   2.757  15.846  0.7838  0.7630 -0.0353
  644TIP3    H123347   3.060   2.713  15.874  1.8755  2.5316 -0.2075
  644TIP3    H223348   2.915   2.688  15.841  1.5669 -0.3128  2.8426
  645TIP3   OH223349   2.528   1.281   2.675 -0.0246  0.1695  0.1421
  645TIP3    H123350   2.527   1.188   2.651  0.1184  0.4782 -1.1273
  645TIP3    H223351   2.457   1.290   2.738 -0.8645 -0.5580 -0.6780
  646TIP3   OH223352   6.768   1.723   4.458  0.5434  0.4187 -0.1223
  646TIP3    H123353   6.698   1.659   4.450  0.9243 -0.0352  0.1198
  646TIP3    H223354   6.792   1.745   4.367 -1.0669  1.8837 -0.2382
  647TIP3   OH223355   6.211   1.482  13.205 -0.6566  0.4017 -0.3415
  647TIP3    H123356   6.147   1.493  13.275 -1.5732  1.6960 -1.3180
  647TIP3    H223357   6.251   1.397  13.222 -0.5994  0.8123  1.9140
  648TIP3   OH223358   5.691   1.300   0.574 -0.9497 -0.1954 -0.2315
  648TIP3    H123359   5.695   1.317   0.669 -1.6808  0.0856 -0.2428
  648TIP3    H223360   5.601   1.271   0.559 -0.8164 -0.3030 -0.8359
  649TIP3   OH223361   3.243   6.090  11.999 -0.0665 -0.1500 -0.3166
  649TIP3    H123362   3.176   6.073  12.064  0.2048 -2.5416 -0.5332
  649TIP3    H223363   3.326   6.077  12.045  0.1828  0.4639 -0.5845
  650TIP3   OH223364   1.277   1.119   4.139  0.3500 -0.0312  0.0358
  650TIP3    H123365   1.251   1.155   4.054  0.4329  0.3568  0.1745
  650TIP3    H223366   1.372   1.110   4.133  0.1717 -2.0201 -0.6982
  651TIP3   OH223367   3.393   4.254  14.184  0.0858  0.4668  0.0539
  651TIP3    H123368   3.351   4.170  14.163 -0.4173  0.0259  2.5442
  651TIP3    H223369   3.324   4.306  14.225  0.1191  2.5529 -2.3183
  652TIP3   OH223370   0.431   1.949  16.705  0.3033  0.2065  0.3446
  652TIP3    H123371   0.392   1.870  16.741  0.4047 -0.1763 -0.3633
  652TIP3    H223372   0.461   1.923  16.618  1.9194  0.5598  0.7810
  653TIP3   OH223373   5.623   5.537  13.100 -0.4511  0.3122  0.1251
  653TIP3    H123374   5.610   5.632  13.110 -2.5489  0.1318 -0.5167
  653TIP3    H223375   5.586   5.517  13.014 -1.4692 -1.3403  0.9248
  654TIP3   OH223376   1.556   6.110  16.645 -0.1366  0.2634  0.1504
  654TIP3    H123377   1.573   6.203  16.655  2.2744 -0.2616  1.5859
  654TIP3    H223378   1.570   6.093  16.552  2.6388  0.8148  0.4006
  655TIP3   OH223379   4.193   5.289  15.394 -0.2186 -0.0089 -0.0846
  655TIP3    H123380   4.145   5.275  15.312  0.8933 -0.6096 -0.6445
  655TIP3    H223381   4.262   5.351  15.371  1.8641 -2.2843 -0.3420
  656TIP3   OH223382   5.515   4.035  14.400 -0.3194  0.1597  0.5086
  656TIP3    H123383   5.492   3.985  14.322 -0.1634 -0.8566  1.0964
  656TIP3    H223384   5.514   4.126  14.371  2.4553 -0.2734 -1.4095
  657TIP3   OH223385   1.834   1.053  13.247 -0.1129 -0.2582 -0.0126
  657TIP3    H123386   1.803   0.965  13.266 -0.5308  0.2562  1.9175
  657TIP3    H223387   1.803   1.106  13.321 -0.2441  1.5987 -1.3238
  658TIP3   OH223388   2.131   6.219  15.904 -0.0904 -0.7450  1.0473
  658TIP3    H123389   2.167   6.305  15.884 -0.2423 -1.0492 -0.6562
  658TIP3    H223390   2.192   6.181  15.968  1.4331 -0.3980 -0.1538
  659TIP3   OH223391   6.459   5.189  15.112  0.3727 -0.4251 -1.0322
  659TIP3    H123392   6.395   5.118  15.101  0.2585 -0.4824 -0.0651
  659TIP3    H223393   6.488   5.181  15.203  0.8155  0.3978 -1.0961
  660TIP3   OH223394   5.884   1.295  11.684  0.4887 -0.4038  0.0095
  660TIP3    H123395   5.891   1.390  11.684  1.7566 -0.4785 -0.8281
  660TIP3    H223396   5.929   1.267  11.604 -0.1894 -1.6858  0.0503
  661TIP3   OH223397   5.525   3.617   2.507 -0.2149 -0.4531  0.4266
  661TIP3    H123398   5.437   3.588   2.532 -1.2265  0.5436 -1.7226
  661TIP3    H223399   5.524   3.712   2.519 -0.3858 -0.0744 -2.0239
  662TIP3   OH223400   5.325   6.172   1.953  0.3535  0.1817 -0.1832
  662TIP3    H123401   5.327   6.193   1.860 -0.4220 -1.0198 -0.4967
  662TIP3    H223402   5.349   6.079   1.957 -2.5480 -0.6362  0.4944
  663TIP3   OH223403   3.641   3.894   0.712 -0.0784  0.1616  0.6763
  663TIP3    H123404   3.646   3.887   0.807 -0.4516  0.3031  0.7096
  663TIP3    H223405   3.547   3.895   0.693 -0.1243 -2.8188  0.0957
  664TIP3   OH223406   1.926   2.167  10.742 -0.3818 -0.3238 -0.2775
  664TIP3    H123407   1.954   2.188  10.653 -1.4435 -1.4349 -0.8970
  664TIP3    H223408   1.929   2.251  10.788 -2.1929  0.8128 -2.0332
  665TIP3   OH223409   2.843   3.588   1.555  0.3518  0.4406 -0.1894
  665TIP3    H123410   2.751   3.576   1.582  0.2765  2.6388  0.7618
  665TIP3    H223411   2.840   3.583   1.459 -0.3062 -1.9945 -0.1090
  666TIP3   OH223412   1.653   6.389  12.250  0.4202 -0.3034  0.0161
  666TIP3    H123413   1.689   6.367  12.336  1.5847  0.7312 -0.1930
  666TIP3    H223414   1.707   6.339  12.188  0.5083  0.0546 -0.1989
  667TIP3   OH223415   6.272   1.887   3.134  0.2057 -0.5413 -0.1996
  667TIP3    H123416   6.228   1.949   3.076  0.8091 -1.1239 -1.3002
  667TIP3    H223417   6.308   1.942   3.204  2.0729  0.6267 -1.9592
  668TIP3   OH223418   3.050   1.318   3.910 -0.7349 -0.0181  0.0442
  668TIP3    H123419   3.139   1.299   3.882  0.0717  0.3289  2.2166
  668TIP3    H223420   3.028   1.248   3.971 -2.2351 -0.4818 -0.9716
  669TIP3   OH223421   5.196   1.771   1.187 -0.1153  0.1163 -0.1725
  669TIP3    H123422   5.157   1.845   1.234  0.2453 -0.9726  1.9723
  669TIP3    H223423   5.140   1.697   1.210  0.2133 -0.5042 -1.3254
  670TIP3   OH223424   0.566   5.238   5.610 -0.0773  0.2789 -0.1267
  670TIP3    H123425   0.532   5.175   5.546  0.4362 -0.7338  0.5769
  670TIP3    H223426   0.586   5.316   5.558 -2.9513  0.7696 -0.6587
  671TIP3   OH223427   2.220   2.977  13.557  0.1731  0.2983  0.4811
  671TIP3    H123428   2.149   2.973  13.493  0.1145  1.7627  0.4298
  671TIP3    H223429   2.189   3.038  13.624  2.0896  2.5452 -0.5215
  672TIP3   OH223430   1.952   5.910  13.651  0.2209 -0.0908  0.3956
  672TIP3    H123431   1.880   5.897  13.713  0.4750 -1.7312  0.3860
  672TIP3    H223432   2.015   5.841  13.672  2.2276  1.8158  0.9695
  673TIP3   OH223433   2.337   3.060  15.788  0.2635  0.2144 -0.5159
  673TIP3    H123434   2.423   3.037  15.752 -0.1565  0.4743 -1.7301
  673TIP3    H223435   2.278   2.991  15.757  0.1172 -0.3124  0.8269
  674TIP3   OH223436   6.164   3.318  14.305  0.3931 -0.2504 -0.4001
  674TIP3    H123437   6.181   3.331  14.398 -0.2997  2.3461 -0.5516
  674TIP3    H223438   6.224   3.378  14.261  1.0317 -1.7738 -1.6831
  675TIP3   OH223439   1.254   6.463  13.838  0.5971  0.1806 -0.0867
  675TIP3    H123440   1.317   6.463  13.767 -1.1819 -1.6564 -1.8076
  675TIP3    H223441   1.244   6.371  13.862  0.0556  0.6168  1.5477
  676TIP3   OH223442   4.174   4.338  13.821 -0.4729  0.0662  0.2419
  676TIP3    H123443   4.107   4.327  13.754  0.2747 -2.9735 -0.1671
  676TIP3    H223444   4.132   4.311  13.903 -0.7610  1.6875  0.6492
  677TIP3   OH223445   2.646   1.906   0.291 -0.0401  0.0207 -0.3957
  677TIP3    H123446   2.602   1.825   0.318 -0.1658 -0.0077 -0.6812
  677TIP3    H223447   2.713   1.921   0.358 -0.7834  0.3104  0.2889
  678TIP3   OH223448   4.016   0.624   1.951 -0.0691  0.3030 -0.7199
  678TIP3    H123449   4.082   0.575   2.000  1.0412  1.2445 -1.2199
  678TIP3    H223450   3.937   0.571   1.958  0.9716 -1.3729 -0.9351
  679TIP3   OH223451   6.069   4.411  12.222 -0.1629  0.1981 -0.2085
  679TIP3    H123452   6.003   4.358  12.177 -0.5253  0.6051 -0.1587
  679TIP3    H223453   6.083   4.486  12.165 -0.3785  0.5475  0.1888
  680TIP3   OH223454   4.586   2.636   1.208 -0.3975 -0.1167 -0.2301
  680TIP3    H123455   4.581   2.571   1.278  1.2165  1.3419  1.3626
  680TIP3    H223456   4.496   2.649   1.181 -0.8633 -2.1627  0.1872
  681TIP3   OH223457   3.744   1.743  15.734 -0.0494 -0.3382 -0.4438
  681TIP3    H123458   3.760   1.821  15.787  1.3008 -0.4192 -0.6906
  681TIP3    H223459   3.658   1.712  15.762  0.5769 -0.3418  1.6630
  682TIP3   OH223460   3.958   2.297   4.963  0.6578  0.0006 -0.2484
  682TIP3    H123461   3.921   2.218   5.001  1.8463  0.2416  1.5669
  682TIP3    H223462   4.053   2.285   4.971  0.8621  1.8880  0.8008
  683TIP3   OH223463   3.231   0.425  14.206  0.1340 -0.0153  0.0556
  683TIP3    H123464   3.265   0.464  14.286  0.9965  0.4039 -0.4951
  683TIP3    H223465   3.238   0.331  14.220  2.5495  0.0225 -0.4075
  684TIP3   OH223466   6.165   0.114   3.266  0.3078  0.2851  0.0664
  684TIP3    H123467   6.260   0.123   3.258  0.1984  1.0404 -0.4589
  684TIP3    H223468   6.135   0.201   3.292 -0.3096  0.2309 -0.4687
  685TIP3   OH223469   6.071   4.523  10.997 -0.0485  0.1446  0.3639
  685TIP3    H123470   6.161   4.512  10.967 -0.7996 -0.5549 -1.8359
  685TIP3    H223471   6.054   4.447  11.051 -0.1746 -1.3322 -1.6327
  686TIP3   OH223472   0.330   4.470   4.170 -0.1594  0.4530  0.1353
  686TIP3    H123473   0.374   4.465   4.255 -1.5708 -0.0266  0.8653
  686TIP3    H223474   0.239   4.489   4.191 -1.0516 -2.0299 -1.1230
  687TIP3   OH223475   0.374   3.274   3.070  0.1430 -0.6348  0.4762
  687TIP3    H123476   0.372   3.216   3.146 -0.8904  0.2209  1.1107
  687TIP3    H223477   0.296   3.250   3.019  0.6504 -0.9779 -0.1621
  688TIP3   OH223478   3.607   0.657   3.345  0.9042 -0.8095  0.6459
  688TIP3    H123479   3.544   0.609   3.399  0.7223 -0.1841  0.9931
  688TIP3    H223480   3.560   0.735   3.316  0.5221 -1.8109 -1.6064
  689TIP3   OH223481   0.782   2.530   0.535  0.0827  0.0970 -0.5381
  689TIP3    H123482   0.730   2.453   0.514 -0.0290  0.0972 -0.2597
  689TIP3    H223483   0.866   2.495   0.564  0.3591  0.1027 -1.2914
  690TIP3   OH223484   5.225   1.529   1.316 -0.7599  0.3094 -0.1646
  690TIP3    H123485   5.181   1.538   1.401 -2.0973 -0.6559 -0.7241
  690TIP3    H223486   5.302   1.587   1.323 -0.6862  0.0630  1.7841
  691TIP3   OH223487   0.616   1.324  16.069  0.1880  0.1244  0.5877
  691TIP3    H123488   0.521   1.332  16.066  0.1684 -0.3633 -0.3090
  691TIP3    H223489   0.634   1.292  16.157 -0.4423  0.5937  0.8994
  692TIP3   OH223490   3.898   3.581   1.225  0.4763  0.4010 -0.0715
  692TIP3    H123491   3.887   3.507   1.284 -1.0951 -1.9866 -3.0670
  692TIP3    H223492   3.993   3.586   1.210  0.5596 -2.2730 -1.0932
  693TIP3   OH223493   5.238   4.036   2.600 -0.0794  0.1035 -0.4709
  693TIP3    H123494   5.187   3.987   2.665  0.0905  1.0984  0.4562
  693TIP3    H223495   5.207   4.004   2.516 -0.1194 -1.4197  0.0978
  694TIP3   OH223496   0.703   3.766  14.573 -0.1643  0.2786 -0.6074
  694TIP3    H123497   0.791   3.730  14.557 -0.4634 -0.1884 -1.2325
  694TIP3    H223498   0.718   3.837  14.636 -0.0279 -3.7293  4.5636
  695TIP3   OH223499   1.067   1.677   3.707  0.8679 -0.1549  0.6865
  695TIP3    H123500   1.038   1.763   3.679 -0.9711 -1.4912 -1.9365
  695TIP3    H223501   0.994   1.619   3.687  2.2488 -2.4408  1.8207
  696TIP3   OH223502   2.779   3.882  11.389 -0.1416  0.1820 -0.0477
  696TIP3    H123503   2.805   3.974  11.378  1.5512 -0.3465 -0.8687
  696TIP3    H223504   2.754   3.854  11.301  0.9484 -0.5864 -0.1231
  697TIP3   OH223505   5.837   3.783   3.234  0.6553  0.0534 -0.0453
  697TIP3    H123506   5.875   3.695   3.231  1.3637  0.3686 -1.4053
  697TIP3    H223507   5.912   3.842   3.243  0.2988  0.5674 -0.3612
  698TIP3   OH223508   3.276   1.466   4.558  0.2648 -0.2838  0.4284
  698TIP3    H123509   3.339   1.398   4.534  0.7619  0.4632 -0.4374
  698TIP3    H223510   3.330   1.540   4.585 -0.2267  0.3408 -0.2481
  699TIP3   OH223511   6.049   5.979   3.982 -0.2057 -0.4657 -0.1152
  699TIP3    H123512   6.124   6.038   3.977  0.5933 -1.3526  0.9222
  699TIP3    H223513   5.981   6.032   4.024  0.2913 -0.0764  0.2249
  700TIP3   OH223514   1.573   2.434   3.244 -0.5000  0.0386  0.3479
  700TIP3    H123515   1.603   2.480   3.166 -0.9233 -0.7125 -0.2710
  700TIP3    H223516   1.571   2.342   3.219 -0.6552 -0.2166  1.2457
  701TIP3   OH223517   1.777   3.018   3.072 -0.4101  0.3959 -0.1942
  701TIP3    H123518   1.752   2.954   3.005  0.0109  0.3662 -0.3235
  701TIP3    H223519   1.856   3.059   3.038  0.6661 -0.6357  0.9243
  702TIP3   OH223520   4.370   1.693   4.453 -0.1111  0.1258  0.2418
  702TIP3    H123521   4.357   1.695   4.548  0.1378  1.5295  0.2746
  702TIP3    H223522   4.352   1.603   4.428 -1.3564  0.0018  1.4573
  703TIP3   OH223523   0.189   5.827  14.280  0.0450 -0.0774  0.2537
  703TIP3    H123524   0.214   5.916  14.253 -0.3086  0.0644  0.3873
  703TIP3    H223525   0.107   5.839  14.327 -1.5153 -0.8010 -2.1471
  704TIP3   OH223526   0.519   2.046   0.149  0.0726 -0.0807  0.2119
  704TIP3    H123527   0.560   1.982   0.090  0.1404 -0.2587  0.4500
  704TIP3    H223528   0.429   2.016   0.159 -0.3123  0.6831 -0.8423
  705TIP3   OH223529   2.443   6.174  14.388  0.2074 -0.4763  0.1102
  705TIP3    H123530   2.357   6.173  14.348 -0.0190 -2.3897  0.5332
  705TIP3    H223531   2.490   6.244  14.343 -2.2964  2.3765  1.5776
  706TIP3   OH223532   4.348   0.170  10.936  0.2030 -0.6111  0.0953
  706TIP3    H123533   4.257   0.192  10.914  0.1400  0.0128  0.9373
  706TIP3    H223534   4.400   0.243  10.904  0.6492 -1.7031 -1.8840
  707TIP3   OH223535   3.541   2.484  14.288  0.1158 -0.2703 -0.6852
  707TIP3    H123536   3.635   2.474  14.271  0.4337  0.7899  0.2911
  707TIP3    H223537   3.503   2.504  14.203  0.9272  0.2680 -0.9313
  708TIP3   OH223538   4.651   4.072  12.842 -0.2310 -0.0014  0.5745
  708TIP3    H123539   4.609   4.098  12.924 -1.5886  0.5652 -0.2453
  708TIP3    H223540   4.592   4.005  12.805  0.6160 -0.6098  0.2916
  709TIP3   OH223541   3.781   0.721  11.543  0.7336  0.8696 -0.1924
  709TIP3    H123542   3.765   0.668  11.465 -0.3064 -0.0915  0.6456
  709TIP3    H223543   3.714   0.789  11.540  0.8031  0.9369 -0.2238
  710TIP3   OH223544   1.025   6.785   1.676  0.0752 -0.0384 -0.0868
  710TIP3    H123545   1.041   6.737   1.595 -1.5523 -0.3040 -0.2770
  710TIP3    H223546   1.096   6.758   1.734  1.8292  0.8769 -1.6874
  711TIP3   OH223547   4.669   5.865  13.412 -0.0051  1.1547  0.0830
  711TIP3    H123548   4.741   5.928  13.415  0.6111  0.4523  0.6655
  711TIP3    H223549   4.697   5.794  13.471 -0.4815  0.1423 -0.8688
  712TIP3   OH223550   3.859   1.806   4.774 -0.5377 -0.1155  0.5098
  712TIP3    H123551   3.935   1.752   4.795 -1.5924 -1.1468  1.8269
  712TIP3    H223552   3.863   1.817   4.679  1.8808  0.8516  0.6615
  713TIP3   OH223553   6.733   3.475   0.566 -0.0771 -0.0111  0.1039
  713TIP3    H123554   6.674   3.401   0.557  2.0446 -1.7795 -0.2706
  713TIP3    H223555   6.816   3.445   0.527  0.9250  2.5142  0.0717
  714TIP3   OH223556   3.743   6.686  16.678 -0.5952 -0.1549 -0.4672
  714TIP3    H123557   3.769   6.595  16.692  1.3397  0.3329 -0.5265
  714TIP3    H223558   3.737   6.724  16.766 -0.2328 -0.0545 -0.4843
  715TIP3   OH223559   4.904   4.254   3.706  0.3812  0.1483 -0.0544
  715TIP3    H123560   4.876   4.289   3.791 -1.9340  1.7038 -1.3634
  715TIP3    H223561   4.974   4.313   3.678 -0.3024  0.9338 -0.1430
  716TIP3   OH223562   0.443   2.217  16.747  0.1220 -0.0422  0.2016
  716TIP3    H123563   0.534   2.195  16.729 -0.0364 -0.9088  0.4073
  716TIP3    H223564   0.396   2.134  16.737 -0.6167  0.3598  0.2721
  717TIP3   OH223565   3.209   6.038   0.853 -0.2811  0.2843  0.1617
  717TIP3    H123566   3.292   6.043   0.901 -0.5963 -0.4122  0.8052
  717TIP3    H223567   3.143   6.060   0.919 -0.6188  0.7614 -0.3289
  718TIP3   OH223568   3.608   3.559  16.446 -0.0351 -0.9029  0.1099
  718TIP3    H123569   3.688   3.508  16.432  1.0779  0.5317  0.9641
  718TIP3    H223570   3.585   3.542  16.538 -1.1627 -1.8732 -0.3229
  719TIP3   OH223571   6.772   2.068   2.014  0.2134 -0.6748 -0.0088
  719TIP3    H123572   6.706   2.126   1.976  1.0586  1.6301  1.7893
  719TIP3    H223573   6.853   2.090   1.968  0.7952  0.5665  1.5194
  720TIP3   OH223574   2.413   6.384  13.591  0.6951  0.0799  0.4703
  720TIP3    H123575   2.443   6.435  13.516  1.2055  1.0013  1.2901
  720TIP3    H223576   2.381   6.302  13.552  2.7057 -0.2723 -0.6145
  721TIP3   OH223577   0.356   1.007   0.917 -0.7433  0.0026  0.2712
  721TIP3    H123578   0.397   0.991   0.832  1.3300 -2.2328  1.5489
  721TIP3    H223579   0.322   1.096   0.911 -0.0588  0.1705 -2.6318
  722TIP3   OH223580   6.433   1.354   2.432  0.8737  0.3817  0.2585
  722TIP3    H123581   6.389   1.274   2.403 -0.2687  0.9283  0.4406
  722TIP3    H223582   6.504   1.323   2.488  0.2132 -0.4880  0.6314
  723TIP3   OH223583   5.744   0.744   0.146 -0.1385 -0.8904 -0.3264
  723TIP3    H123584   5.830   0.784   0.160 -1.2444  1.9007 -0.8116
  723TIP3    H223585   5.752   0.700   0.061  0.8842 -0.8829 -0.2451
  724TIP3   OH223586   3.417   0.378  14.839  0.4665 -0.1783 -0.0402
  724TIP3    H123587   3.351   0.317  14.806  0.0176 -0.9453  2.0968
  724TIP3    H223588   3.396   0.388  14.932  2.9820  0.0367  0.5916
  725TIP3   OH223589   1.848   5.769   2.925  0.4017  0.1725 -0.5869
  725TIP3    H123590   1.784   5.761   2.855 -0.3119  0.3703  0.0366
  725TIP3    H223591   1.922   5.715   2.896 -0.3424 -0.6627 -0.9565
  726TIP3   OH223592   4.842   2.989   0.530  0.4367 -0.1597  0.5571
  726TIP3    H123593   4.893   2.985   0.610 -0.1106  0.9003  0.9858
  726TIP3    H223594   4.762   3.036   0.555  1.5798  3.1127 -1.2538
  727TIP3   OH223595   3.018   3.020  16.647 -0.3236 -0.7429  0.3701
  727TIP3    H123596   3.046   2.983  16.563  0.9142  0.5237  0.1871
  727TIP3    H223597   2.923   3.009  16.647 -0.3780 -0.5784 -1.2980
  728TIP3   OH223598   5.582   5.151   3.232  0.1558 -0.2860 -0.3827
  728TIP3    H123599   5.499   5.103   3.226 -0.2317  0.0841  1.5356
  728TIP3    H223600   5.573   5.221   3.167 -1.0387 -0.2305 -0.1846
  729TIP3   OH223601   6.651   3.893   6.548 -0.7396 -0.1325 -0.2134
  729TIP3    H123602   6.640   3.807   6.589  2.1291 -0.8654 -0.7280
  729TIP3    H223603   6.732   3.927   6.586 -1.0576  1.7178 -1.0860
  730TIP3   OH223604   3.302   1.640   1.766 -0.3785 -0.3322  0.1209
  730TIP3    H123605   3.369   1.574   1.749 -0.7202 -0.7861  0.5208
  730TIP3    H223606   3.327   1.678   1.850  0.7861  1.2623 -0.8909
  731TIP3   OH223607   5.568   0.745   5.011  0.1316  0.3938 -0.0228
  731TIP3    H123608   5.507   0.819   5.002 -0.3947  0.2437  1.8419
  731TIP3    H223609   5.654   0.786   5.017 -0.0293  0.7675 -0.2186
  732TIP3   OH223610   3.380   3.791   5.007 -0.2709  0.3429 -0.4065
  732TIP3    H123611   3.358   3.884   5.007 -1.4908  0.0734 -1.3171
  732TIP3    H223612   3.301   3.747   4.975  0.0800 -1.0640  0.5395
  733TIP3   OH223613   0.791   3.091  10.811 -0.1263 -0.4691 -0.0057
  733TIP3    H123614   0.781   3.058  10.722  0.6152  0.3917 -0.4226
  733TIP3    H223615   0.886   3.090  10.827 -0.3106 -1.6725  1.1929
  734TIP3   OH223616   6.163   2.350   0.989 -0.2071 -0.1892  0.5388
  734TIP3    H123617   6.167   2.444   0.974  0.2993 -0.2816  0.0590
  734TIP3    H223618   6.169   2.340   1.084  2.3365  0.1491  0.4821
  735TIP3   OH223619   2.396   4.427  12.273 -0.0759 -0.1636 -0.0759
  735TIP3    H123620   2.425   4.470  12.353 -0.2403  0.6748 -0.4637
  735TIP3    H223621   2.373   4.338  12.301 -1.2567  0.4593  1.0321
  736TIP3   OH223622   5.047   4.354   1.226 -0.8464  0.5072  0.3584
  736TIP3    H123623   5.004   4.286   1.173  0.4012  1.1007 -1.5399
  736TIP3    H223624   4.995   4.359   1.306 -2.6156 -0.7397 -0.6384
  737TIP3   OH223625   6.071   4.869  14.970  0.1341 -0.1757  0.5801
  737TIP3    H123626   6.034   4.860  15.057 -1.8311  0.6525 -0.1324
  737TIP3    H223627   6.010   4.823  14.912 -0.0450  1.5778 -0.6935
  738TIP3   OH223628   0.162   0.643  14.732  0.3660  0.0158 -0.0309
  738TIP3    H123629   0.237   0.592  14.704 -0.4884 -0.6110 -1.2810
  738TIP3    H223630   0.107   0.582  14.780  1.9867  1.1574  3.6372
  739TIP3   OH223631   4.768   5.097  12.950 -0.2309  0.2389  0.2618
  739TIP3    H123632   4.763   5.191  12.930 -1.6489  0.1311  0.0585
  739TIP3    H223633   4.730   5.089  13.038 -1.4336 -0.3203 -0.3006
  740TIP3   OH223634   3.374   2.585  11.842  0.8712  0.4782  0.1192
  740TIP3    H123635   3.360   2.611  11.751  0.4940 -0.3950 -0.0850
  740TIP3    H223636   3.319   2.507  11.853  2.8895 -1.0075  0.3102
  741TIP3   OH223637   5.555   5.765   0.487  0.2312  0.1003 -0.4936
  741TIP3    H123638   5.481   5.802   0.536  2.4129  1.8799  1.7667
  741TIP3    H223639   5.608   5.722   0.554  1.9148  0.0777 -1.7927
  742TIP3   OH223640   0.731   1.928   2.866 -0.2949  0.6675  0.4833
  742TIP3    H123641   0.638   1.951   2.870 -0.4195  0.2368  0.1800
  742TIP3    H223642   0.755   1.942   2.775 -0.9036 -2.3064 -0.2485
  743TIP3   OH223643   0.353   2.864   3.696  0.1816  0.1002 -0.3600
  743TIP3    H123644   0.427   2.915   3.728  0.4159 -0.4093 -0.0865
  743TIP3    H223645   0.295   2.929   3.657  1.5138  0.3551 -2.0513
  744TIP3   OH223646   6.342   2.246   0.508  0.4929  0.2650 -0.2501
  744TIP3    H123647   6.266   2.204   0.548 -0.2646  0.6643 -1.2235
  744TIP3    H223648   6.347   2.331   0.551 -0.1578  0.5864 -0.7802
  745TIP3   OH223649   2.540   2.048   5.653 -0.6690 -0.0023  0.5881
  745TIP3    H123650   2.500   2.111   5.714  0.1714 -0.2201  1.3879
  745TIP3    H223651   2.616   2.014   5.700 -0.4199 -0.7300 -0.3084
  746TIP3   OH223652   1.270   4.589   5.064 -0.5133 -0.2029  0.1778
  746TIP3    H123653   1.272   4.504   5.108 -1.8537 -0.8019 -0.8379
  746TIP3    H223654   1.209   4.577   4.991 -0.2133  1.4460 -0.3921
  747TIP3   OH223655   5.125   4.166  11.164  0.0127 -0.1258 -0.7053
  747TIP3    H123656   5.032   4.186  11.164  0.0213 -0.0038  0.6099
  747TIP3    H223657   5.153   4.182  11.074 -0.9278  1.2972 -0.7770
  748TIP3   OH223658   1.222   2.289  11.797  0.5555 -0.1672  0.4804
  748TIP3    H123659   1.279   2.290  11.874  0.7336  0.8227  0.3582
  748TIP3    H223660   1.246   2.209  11.750  0.8611 -0.4761  1.1473
  749TIP3   OH223661   6.032   0.048   4.462 -1.0000 -0.4500 -0.3864
  749TIP3    H123662   6.067   0.046   4.551 -2.8132  0.2997  0.3908
  749TIP3    H223663   6.109   0.048   4.406  0.1844 -0.9814  1.1749
  750TIP3   OH223664   2.587   4.700   5.225 -0.0769 -0.1950  0.2977
  750TIP3    H123665   2.658   4.689   5.288  0.4494 -0.9287 -0.4061
  750TIP3    H223666   2.601   4.631   5.160 -0.3128  0.8450 -0.8976
  751TIP3   OH223667   2.066   5.484   0.125 -0.3719 -0.1211  0.1941
  751TIP3    H123668   1.981   5.447   0.150 -1.1232  1.3469 -0.0552
  751TIP3    H223669   2.048   5.577   0.112  1.2264  0.1601 -0.1624
  752TIP3   OH223670   2.562   0.565   3.469  0.3622 -0.2198  0.6838
  752TIP3    H123671   2.584   0.631   3.403 -0.6798 -0.0265  0.5055
  752TIP3    H223672   2.585   0.482   3.428  3.0820  0.0747  1.4751
  753TIP3   OH223673   2.126   4.210   1.079  0.2770  0.6977 -0.0413
  753TIP3    H123674   2.082   4.294   1.075 -0.2883  0.3871 -0.6869
  753TIP3    H223675   2.064   4.151   1.122  0.7765  0.6683  0.6551
  754TIP3   OH223676   5.399   1.115   2.377  0.1967  0.1047  0.0498
  754TIP3    H123677   5.345   1.036   2.383  2.5909 -1.5194  2.2343
  754TIP3    H223678   5.439   1.111   2.290 -1.3938  0.1606 -0.7148
  755TIP3   OH223679   3.814   5.009   1.281 -0.0344 -0.2135 -0.2655
  755TIP3    H123680   3.831   5.030   1.189  0.5606  0.0882 -0.0874
  755TIP3    H223681   3.722   5.032   1.293  0.1853  0.8418 -0.4875
  756TIP3   OH223682   1.789   1.846   2.475 -0.0870 -0.1901 -0.5190
  756TIP3    H123683   1.818   1.933   2.503 -0.2310 -0.5667  0.8549
  756TIP3    H223684   1.863   1.789   2.492  0.3084 -0.2358 -2.1858
  757TIP3   OH223685   0.374   5.759  12.232  0.6181 -0.7313  0.0281
  757TIP3    H123686   0.435   5.699  12.190  1.2530  1.0376 -1.7382
  757TIP3    H223687   0.304   5.771  12.168  1.1166  1.2758 -0.2151
  758TIP3   OH223688   2.509   1.773   4.028 -0.4659 -0.1184 -0.4188
  758TIP3    H123689   2.419   1.748   4.005  0.2311 -1.3807 -1.9927
  758TIP3    H223690   2.544   1.810   3.947 -0.3337  2.8776  0.8823
  759TIP3   OH223691   4.801   1.803   3.509  0.0441  0.0723  0.0235
  759TIP3    H123692   4.736   1.740   3.541  0.0580  1.2704  2.6971
  759TIP3    H223693   4.779   1.816   3.417 -1.6780 -1.7344  0.1256
  760TIP3   OH223694   3.915   3.893   3.241 -0.0319 -0.3214  0.1319
  760TIP3    H123695   3.908   3.805   3.203 -0.8693  0.2206 -1.0373
  760TIP3    H223696   4.009   3.910   3.244  0.1176 -1.0659 -0.0929
  761TIP3   OH223697   3.461   2.228   2.339 -0.4614 -0.6834 -0.1335
  761TIP3    H123698   3.441   2.291   2.269  2.4936  0.0133 -0.4891
  761TIP3    H223699   3.477   2.282   2.416  0.4515 -1.0916 -0.0180
  762TIP3   OH223700   0.535   4.329   1.528  0.2289 -0.5996  0.0081
  762TIP3    H123701   0.557   4.361   1.440 -1.5287 -1.3299 -0.7497
  762TIP3    H223702   0.620   4.318   1.571  1.0316  2.2277 -0.6610
  763TIP3   OH223703   6.768   4.979  16.107 -0.2066 -0.1894  0.3698
  763TIP3    H123704   6.773   5.043  16.036 -0.6711  0.2451  0.7122
  763TIP3    H223705   6.674   4.960  16.115 -0.1287 -0.4596  0.6678
  764TIP3   OH223706   3.308   2.891   1.114  0.0756 -0.0049  0.1842
  764TIP3    H123707   3.282   2.934   1.196  2.6109  1.4093  0.3520
  764TIP3    H223708   3.290   2.799   1.129 -1.0985  0.4155  1.6637
  765TIP3   OH223709   1.742   4.310   5.534 -0.1839  0.4932  0.0749
  765TIP3    H123710   1.786   4.394   5.527  2.4565 -0.8315 -0.9612
  765TIP3    H223711   1.812   4.248   5.553 -1.4226 -1.9250 -2.4359
  766TIP3   OH223712   0.593   1.184  15.342  0.0623 -0.5767 -0.2255
  766TIP3    H123713   0.679   1.219  15.320 -0.6095  0.1507 -1.9220
  766TIP3    H223714   0.543   1.260  15.372  0.1385 -1.0873  1.2588
  767TIP3   OH223715   6.124   1.426   3.946  0.0355 -0.3269  0.7555
  767TIP3    H123716   6.167   1.442   3.862  0.6165  0.3950  1.1850
  767TIP3    H223717   6.030   1.432   3.926  0.1690  2.1872  0.5741
  768TIP3   OH223718   6.244   6.619  16.352 -0.2267  0.5001  0.1670
  768TIP3    H123719   6.291   6.637  16.271 -0.8232  0.0023 -0.3039
  768TIP3    H223720   6.160   6.665  16.343 -0.0193  1.0280  0.8124
  769TIP3   OH223721   2.167   0.054   0.086  0.4203 -0.7238 -0.3038
  769TIP3    H123722   2.091   0.087   0.134  1.1332  2.9358 -1.3879
  769TIP3    H223723   2.133   0.032  -0.001  0.1964 -1.6706  0.0050
  770TIP3   OH223724   4.623   5.127  11.600  0.1289 -0.4085 -0.4020
  770TIP3    H123725   4.546   5.114  11.656  1.1416 -1.1530  0.8736
  770TIP3    H223726   4.619   5.056  11.536 -0.3359 -0.3179 -0.4825
  771TIP3   OH223727   1.700   3.762  14.397 -0.0670  0.1958 -0.0758
  771TIP3    H123728   1.657   3.708  14.463  0.4762  0.8330  0.8139
  771TIP3    H223729   1.776   3.799  14.441  0.9356 -0.2187 -1.3626
  772TIP3   OH223730   6.114   0.096   6.088 -0.3913 -0.0129 -0.2246
  772TIP3    H123731   6.187   0.035   6.095 -0.1056  0.3074 -0.3525
  772TIP3    H223732   6.102   0.129   6.177 -0.5554 -0.2652 -0.1527
  773TIP3   OH223733   2.497   4.045  15.911 -0.6594 -0.0637 -0.1296
  773TIP3    H123734   2.527   3.956  15.928  0.7229  0.6213  1.2494
  773TIP3    H223735   2.403   4.042  15.926 -0.5948 -1.2203  0.1522
  774TIP3   OH223736   4.196   1.865   2.503 -0.4330  0.2086 -1.1521
  774TIP3    H123737   4.229   1.946   2.542  3.9014 -1.5751 -0.4829
  774TIP3    H223738   4.170   1.811   2.578 -0.6430 -0.0252 -1.3916
  775TIP3   OH223739   5.987   5.330  13.337  0.3133  0.1375 -0.2811
  775TIP3    H123740   5.999   5.280  13.256  0.0297  0.0739 -0.2874
  775TIP3    H223741   6.034   5.279  13.403  1.6902  0.8894 -0.6436
  776TIP3   OH223742   3.909   3.097   0.889  0.2337  0.1403  0.0705
  776TIP3    H123743   3.852   3.145   0.948 -0.2304 -1.5401  1.0514
  776TIP3    H223744   3.849   3.050   0.830  0.5961 -0.8069  0.4294
  777TIP3   OH223745   5.240   2.163  15.671  0.2186  0.0395 -0.1465
  777TIP3    H123746   5.229   2.091  15.608  1.1056 -0.5438  0.3479
  777TIP3    H223747   5.335   2.176  15.675  0.0407  2.3843 -1.4915
  778TIP3   OH223748   6.055   1.093   4.960  0.7464 -0.1806 -0.2982
  778TIP3    H123749   6.142   1.052   4.965  0.4927 -0.7208 -0.2078
  778TIP3    H223750   6.015   1.052   4.884  0.3120 -0.4473  0.0714
  779TIP3   OH223751   6.356   3.174  12.801 -0.3867 -0.7617  0.0577
  779TIP3    H123752   6.388   3.220  12.878 -3.4075  0.8874  0.5012
  779TIP3    H223753   6.287   3.117  12.834 -1.7481 -0.0180 -1.3725
  780TIP3   OH223754   0.585   2.261  11.385 -0.4154 -0.4165  0.4100
  780TIP3    H123755   0.491   2.263  11.403 -1.0858  1.3155 -2.5244
  780TIP3    H223756   0.625   2.313  11.455 -2.0714  1.4189  0.0906
  781TIP3   OH223757   1.254   3.912   3.615 -0.1589  0.7109 -0.3269
  781TIP3    H123758   1.167   3.917   3.654 -0.8283  0.0868 -1.6579
  781TIP3    H223759   1.297   3.840   3.661 -0.4750  0.7743  0.0748
  782TIP3   OH223760   2.931   6.562   5.355 -0.4658  0.3473  0.3507
  782TIP3    H123761   2.993   6.492   5.334 -0.5531  0.7221 -1.3035
  782TIP3    H223762   2.959   6.595   5.441  2.5600  1.4792 -0.9379
  783TIP3   OH223763   0.651   2.170   1.081  0.1943  0.3646 -0.3711
  783TIP3    H123764   0.560   2.149   1.060  0.3125  0.1785 -0.7142
  783TIP3    H223765   0.648   2.259   1.116 -0.6320 -0.8644  3.1205
  784TIP3   OH223766   2.155   3.873   3.003 -0.4207  0.2953  0.2549
  784TIP3    H123767   2.060   3.879   2.994 -0.3398  1.3221 -0.1039
  784TIP3    H223768   2.174   3.780   2.996 -1.4377  0.0327  0.7832
  785TIP3   OH223769   4.982   0.953   5.530  0.4532 -0.0691  0.0511
  785TIP3    H123770   5.038   1.007   5.474  2.2192 -2.1611 -0.3175
  785TIP3    H223771   4.913   0.921   5.471 -2.2573  3.6826  0.8025
  786TIP3   OH223772   4.039   3.680  14.666 -0.2238  0.1746 -0.0648
  786TIP3    H123773   3.967   3.647  14.719 -0.2881  0.0849 -0.2088
  786TIP3    H223774   4.118   3.652  14.713 -0.2792 -0.0411 -0.0977
  787TIP3   OH223775   2.334   0.937   1.585  0.4412  0.1383  0.5353
  787TIP3    H123776   2.329   0.972   1.496  1.9081 -1.9457 -0.4591
  787TIP3    H223777   2.296   0.849   1.578  2.0076 -0.6622  1.5511
  788TIP3   OH223778   4.991   2.521  13.244  0.5641  0.1168  0.5887
  788TIP3    H123779   4.935   2.588  13.203  0.8987  0.5582  0.8421
  788TIP3    H223780   4.929   2.462  13.288  0.1183 -0.9748 -1.3797
  789TIP3   OH223781   6.551   1.303  11.405 -0.3035 -0.1641  0.2052
  789TIP3    H123782   6.552   1.382  11.460 -1.3163 -0.8836  1.3202
  789TIP3    H223783   6.498   1.241  11.455 -2.3394 -0.4549 -2.1684
  790TIP3   OH223784   2.174   5.043   2.458 -0.1528  0.3606  0.5381
  790TIP3    H123785   2.089   5.080   2.482 -1.2625 -1.4293 -0.4286
  790TIP3    H223786   2.154   4.978   2.391  2.2758  1.7154 -1.6944
  791TIP3   OH223787   0.090   5.414   3.534 -0.0625 -0.2387 -0.2786
  791TIP3    H123788   0.088   5.338   3.477 -1.3005 -0.9024  0.5895
  791TIP3    H223789   0.010   5.407   3.586  0.1214  1.3093  0.2780
  792TIP3   OH223790   6.542   5.170   2.197  0.0321  0.2121  0.0136
  792TIP3    H123791   6.545   5.262   2.225 -1.3821  0.0643  0.7274
  792TIP3    H223792   6.603   5.125   2.255 -0.7264  0.3920  0.9657
  793TIP3   OH223793   1.660   4.993  14.229 -0.3861 -0.3157 -0.4241
  793TIP3    H123794   1.649   5.058  14.159 -0.0518 -1.4537 -1.5547
  793TIP3    H223795   1.576   4.948  14.232 -0.2933 -0.4776 -0.2927
  794TIP3   OH223796   2.579   1.699   4.719  0.1923  0.1294 -0.1805
  794TIP3    H123797   2.665   1.668   4.690 -0.2284 -1.6299  0.2965
  794TIP3    H223798   2.557   1.642   4.792 -1.2684  0.7145 -0.1371
  795TIP3   OH223799   0.030   0.087   3.503  0.0397  0.2196  0.0373
  795TIP3    H123800   0.085   0.023   3.459  1.1810  2.2594 -1.7223
  795TIP3    H223801  -0.045   0.099   3.446  1.3403  2.5923 -1.3462
  796TIP3   OH223802   5.687   0.828   5.386 -0.6022  0.1443  0.3693
  796TIP3    H123803   5.613   0.768   5.380  0.3818 -0.9358 -2.1832
  796TIP3    H223804   5.751   0.783   5.441 -1.3257  0.5596  1.5846
  797TIP3   OH223805   2.110   6.335  11.044 -0.0941 -0.9737 -0.6194
  797TIP3    H123806   2.189   6.384  11.066 -0.4318 -0.9058  0.5179
  797TIP3    H223807   2.141   6.259  10.997  0.6685 -1.0101 -0.0746
  798TIP3   OH223808   6.744   3.410  13.136 -0.0612 -0.0934  0.0154
  798TIP3    H123809   6.695   3.328  13.135  1.9055 -1.3457  0.9452
  798TIP3    H223810   6.726   3.447  13.222  0.5177 -0.5015  0.3171
  799TIP3   OH223811   6.251   3.914  15.686 -0.4234 -0.5555  0.0030
  799TIP3    H123812   6.168   3.958  15.706 -0.0303 -0.4767  1.5788
  799TIP3    H223813   6.227   3.844  15.625 -1.0900  1.6953 -2.4973
  800TIP3   OH223814   6.052   4.141  12.080  0.5831  0.6982 -0.6326
  800TIP3    H123815   6.142   4.169  12.068  0.9065 -0.0864 -0.0794
  800TIP3    H223816   6.000   4.204  12.029  1.3160  1.9981  0.1892
  801TIP3   OH223817   4.172   4.873   1.075 -0.1437 -0.1826 -0.3475
  801TIP3    H123818   4.261   4.862   1.042 -0.4118 -0.1747 -1.1046
  801TIP3    H223819   4.172   4.960   1.116  0.1518 -0.1190 -0.4836
  802TIP3   OH223820   0.985   4.905  14.727  0.2858 -0.0603  0.3711
  802TIP3    H123821   1.008   4.852  14.803 -0.1681  0.1569  0.6633
  802TIP3    H223822   0.891   4.921  14.736  0.6121  1.8013  0.9337
  803TIP3   OH223823   4.382   0.250   2.121 -0.5008  0.4679  0.1928
  803TIP3    H123824   4.384   0.213   2.033 -2.2153 -0.2975  0.4545
  803TIP3    H223825   4.303   0.215   2.161  0.0755  1.0531  1.9473
  804TIP3   OH223826   1.636   5.056   1.049 -0.7087 -0.1591 -0.3086
  804TIP3    H123827   1.588   4.983   1.088 -0.4389 -0.2888 -0.2152
  804TIP3    H223828   1.625   5.128   1.111 -0.1284 -0.4173  0.1024
  805TIP3   OH223829   2.720   4.318   5.532 -0.0726  0.5423 -0.9387
  805TIP3    H123830   2.641   4.317   5.586  1.1982  1.2639  1.0701
  805TIP3    H223831   2.690   4.342   5.444 -2.0463  0.9713 -0.1822
  806TIP3   OH223832   4.877   2.727   2.548  0.2710 -0.4197  0.0208
  806TIP3    H123833   4.927   2.809   2.554  0.8879 -0.8801  1.4760
  806TIP3    H223834   4.811   2.734   2.616 -1.2900 -0.1144 -1.4493
  807TIP3   OH223835   2.726   2.813   6.378 -0.3497 -0.2663 -0.1153
  807TIP3    H123836   2.648   2.857   6.413  1.1166  1.8390  0.7411
  807TIP3    H223837   2.767   2.880   6.323  1.9185 -0.5566  1.1108
  808TIP3   OH223838   4.542   3.330   5.096  0.2767 -0.0371  0.5198
  808TIP3    H123839   4.476   3.270   5.061  1.3833 -1.0006  0.0421
  808TIP3    H223840   4.556   3.300   5.186 -0.3443  0.5439  0.8247
  809TIP3   OH223841   4.290   1.864   2.251  0.3067  0.2999  0.2470
  809TIP3    H123842   4.386   1.863   2.250  0.3615  0.6158  1.8240
  809TIP3    H223843   4.268   1.858   2.344 -1.2296 -0.9516 -0.1670
  810TIP3   OH223844   3.629   4.236  15.754 -0.1442  0.3838  0.1526
  810TIP3    H123845   3.629   4.218  15.848 -0.9339  2.8082  0.6886
  810TIP3    H223846   3.560   4.180  15.718 -0.5572  0.2200  1.1834
  811TIP3   OH223847   1.636   1.961  15.554 -0.4018  0.6968 -0.4578
  811TIP3    H123848   1.667   2.030  15.612 -2.2981  1.4958 -0.2995
  811TIP3    H223849   1.561   2.000  15.508 -0.9485 -0.9487 -1.0594
  812TIP3   OH223850   1.286   6.785  17.078 -0.7253 -0.6556  0.1135
  812TIP3    H123851   1.327   6.722  17.137  3.2289  0.2348 -1.4034
  812TIP3    H223852   1.319   6.762  16.991 -2.8593  0.7356 -1.1668
  813TIP3   OH223853   4.668   3.631   2.087  0.3002 -0.3656 -0.2022
  813TIP3    H123854   4.661   3.579   2.167 -0.8059 -1.3668 -0.9226
  813TIP3    H223855   4.587   3.614   2.040  0.2147  1.4787 -0.8114
  814TIP3   OH223856   1.286   0.710  11.118  0.1993 -0.5235  0.0669
  814TIP3    H123857   1.265   0.804  11.115  0.3797 -0.5013 -0.6904
  814TIP3    H223858   1.341   0.696  11.041  0.5796 -1.1575  0.4529
  815TIP3   OH223859   5.788   2.447  11.159  0.3147  0.2148  0.0150
  815TIP3    H123860   5.741   2.425  11.239 -0.7617  2.2044 -0.0031
  815TIP3    H223861   5.878   2.464  11.188 -0.1945  1.4946  0.9433
  816TIP3   OH223862   6.383   0.658   3.357 -0.1877  0.0722  0.7828
  816TIP3    H123863   6.429   0.657   3.273  0.6745 -0.6812  1.2362
  816TIP3    H223864   6.450   0.632   3.421 -1.0123 -0.1103  1.5984
  817TIP3   OH223865   5.492   3.223  15.486  0.3701  0.6259  0.2588
  817TIP3    H123866   5.445   3.140  15.477  0.4325  0.6987 -0.8107
  817TIP3    H223867   5.499   3.257  15.397  0.7235  1.5765  0.6364
  818TIP3   OH223868   6.429   6.226  15.761  0.5247  0.2534  0.6674
  818TIP3    H123869   6.475   6.300  15.801  1.3573  0.9060 -1.3614
  818TIP3    H223870   6.497   6.161  15.744 -0.0436 -0.6042  1.5390
  819TIP3   OH223871   2.265   3.569  14.966 -0.3990 -0.0428 -0.4408
  819TIP3    H123872   2.317   3.569  15.046 -0.1928  0.5637 -0.5654
  819TIP3    H223873   2.185   3.616  14.990 -0.2126  0.3989 -0.6578
  820TIP3   OH223874   1.218   2.520   4.897 -0.2027 -0.2773 -0.7121
  820TIP3    H123875   1.232   2.431   4.930 -2.6333 -1.5757 -2.7969
  820TIP3    H223876   1.298   2.541   4.849  1.2039 -0.4623  1.4276
  821TIP3   OH223877   0.059   0.596   0.843  0.1298  0.4371  0.5204
  821TIP3    H123878   0.002   0.550   0.904 -0.1332  2.3710  1.8282
  821TIP3    H223879   0.042   0.689   0.859  1.8187  1.0453 -0.8261
  822TIP3   OH223880   2.050   4.301   0.048 -0.4533 -0.0192  0.2100
  822TIP3    H123881   2.084   4.263  -0.032 -1.3226  0.2483 -0.3054
  822TIP3    H223882   2.003   4.230   0.091  1.4572 -0.6335  1.3742
  823TIP3   OH223883   4.339   0.905   3.624 -0.2950 -0.0191 -0.0359
  823TIP3    H123884   4.386   0.972   3.574 -1.9579 -0.0606 -1.7709
  823TIP3    H223885   4.403   0.836   3.638  0.4455  0.3309 -1.4921
  824TIP3   OH223886   2.377   5.440  14.893  0.2059  0.0655  0.1516
  824TIP3    H123887   2.384   5.345  14.883 -0.2590  0.1483 -1.1214
  824TIP3    H223888   2.339   5.452  14.980  2.4213 -0.8219  1.3040
  825TIP3   OH223889   1.107   4.616   4.861  0.0288 -0.4562  0.3049
  825TIP3    H123890   1.129   4.581   4.775  0.8081 -2.0836  1.1224
  825TIP3    H223891   1.019   4.582   4.878 -0.7854  1.1514 -0.4600
  826TIP3   OH223892   6.178   4.084  10.954 -0.2512  0.4068 -0.1690
  826TIP3    H123893   6.192   4.130  10.872  0.7264  0.7319  0.1664
  826TIP3    H223894   6.121   4.141  11.005 -0.6866  0.3006 -0.5364
  827TIP3   OH223895   5.434   5.941  15.376  0.3710 -0.7426 -0.0904
  827TIP3    H123896   5.503   5.944  15.310 -0.7050 -1.7190 -1.3115
  827TIP3    H223897   5.400   5.851  15.371 -0.8764 -0.3352  0.5792
  828TIP3   OH223898   2.616   1.802   2.752 -0.1232  0.0556 -0.0786
  828TIP3    H123899   2.632   1.805   2.658  0.5026 -1.2235 -0.0316
  828TIP3    H223900   2.679   1.864   2.789 -0.6872  0.9231 -0.5103
  829TIP3   OH223901   3.616   1.008   4.828 -0.4377 -0.3798  0.2699
  829TIP3    H123902   3.547   0.948   4.798  0.8343 -1.0158 -1.5675
  829TIP3    H223903   3.585   1.095   4.800 -1.7317 -0.2641  1.9013
  830TIP3   OH223904   1.369   0.051  10.474  0.1252 -0.5968 -0.3848
  830TIP3    H123905   1.336   0.051  10.384  0.5190  0.6525 -0.5431
  830TIP3    H223906   1.371   0.143  10.499  0.2503 -0.9148  0.8258
  831TIP3   OH223907   1.821   3.585  14.596 -0.3626 -0.1929  0.1786
  831TIP3    H123908   1.909   3.601  14.562 -0.5420  0.4357 -0.0168
  831TIP3    H223909   1.835   3.560  14.687 -0.0682  1.9467  0.7777
  832TIP3   OH223910   1.654   0.069   2.219  0.1142 -0.2340 -0.1728
  832TIP3    H123911   1.576   0.118   2.246  0.0369 -1.2219  1.5306
  832TIP3    H223912   1.629  -0.022   2.229  0.4416 -0.6887 -2.7600
  833TIP3   OH223913   6.291   4.245   2.658 -0.3848 -0.2777 -0.2078
  833TIP3    H123914   6.307   4.169   2.601  1.3602  1.0971 -1.6417
  833TIP3    H223915   6.209   4.282   2.625 -1.9448 -2.1466  1.2945
  834TIP3   OH223916   0.364   1.416  15.837  0.1468 -0.4053  0.2862
  834TIP3    H123917   0.339   1.407  15.929  0.4063  0.1244  0.4099
  834TIP3    H223918   0.351   1.328  15.800 -1.0811 -0.3548  0.5462
  835TIP3   OH223919   4.760   4.649  14.460  0.2392 -0.0274  0.6203
  835TIP3    H123920   4.718   4.694  14.533  0.5925 -1.5858  1.8295
  835TIP3    H223921   4.851   4.676  14.464 -0.2790  2.2684 -1.1613
  836TIP3   OH223922   0.487   1.286  14.733  0.3346 -0.4200  0.0358
  836TIP3    H123923   0.461   1.214  14.676 -0.1585 -0.5135  0.3622
  836TIP3    H223924   0.408   1.304  14.785  1.1425 -1.1995  1.5864
  837TIP3   OH223925   6.147   2.669  11.827 -0.2230 -0.6126 -0.3396
  837TIP3    H123926   6.090   2.592  11.829 -2.6566  1.0192 -1.7409
  837TIP3    H223927   6.218   2.645  11.767 -0.0097 -2.2888  0.5112
  838TIP3   OH223928   2.976   4.602  15.602 -0.2589 -0.1422 -1.0050
  838TIP3    H123929   2.919   4.544  15.651  0.2761  0.2098  0.0735
  838TIP3    H223930   2.932   4.687  15.605  1.2793  0.6703  1.7264
  839TIP3   OH223931   6.074   4.444   1.307 -0.4014  0.1199 -0.8338
  839TIP3    H123932   6.051   4.534   1.285 -0.3433 -0.0444 -1.5790
  839TIP3    H223933   6.053   4.393   1.229  1.3765 -0.2128 -1.1438
  840TIP3   OH223934   4.867   2.284  12.100  0.3643 -0.1815  0.1572
  840TIP3    H123935   4.828   2.292  12.013 -1.7549 -1.1710  0.9390
  840TIP3    H223936   4.947   2.336  12.096 -0.0149  0.3202 -2.1735
  841TIP3   OH223937   6.030   2.039  10.467  0.3063 -0.7330  0.0935
  841TIP3    H123938   6.016   2.070  10.377 -0.0767  0.1556  0.4432
  841TIP3    H223939   5.952   1.987  10.486  0.7523 -1.5814 -0.3514
  842TIP3   OH223940   1.415   6.238  13.037  0.0740 -0.1929 -0.1601
  842TIP3    H123941   1.457   6.323  13.048  0.8748 -0.5809 -0.1884
  842TIP3    H223942   1.407   6.227  12.942  1.0950 -0.6809 -0.2038
  843TIP3   OH223943   2.369   5.527  10.282 -0.1144  0.8310 -0.1754
  843TIP3    H123944   2.428   5.581  10.334 -0.6624 -0.2458  1.6451
  843TIP3    H223945   2.363   5.444  10.329 -0.8174 -0.1471 -1.8577
  844TIP3   OH223946   4.842   3.370   5.389 -0.3526 -0.1257 -0.4671
  844TIP3    H123947   4.803   3.457   5.388 -0.5863 -0.1634  1.3282
  844TIP3    H223948   4.832   3.340   5.480  3.5984 -0.2359  0.1006
  845TIP3   OH223949   2.064   4.842   5.582 -0.1439 -0.1508  0.2931
  845TIP3    H123950   2.026   4.880   5.503  1.0716 -0.0065 -0.2541
  845TIP3    H223951   2.008   4.874   5.654 -0.4639  0.8427 -0.3728
  846TIP3   OH223952   6.323   4.427  16.222 -0.7356  0.2861  0.2428
  846TIP3    H123953   6.366   4.465  16.299  0.7536  0.1746 -0.5091
  846TIP3    H223954   6.325   4.333  16.238 -2.5512  0.3513  1.1306
  847TIP3   OH223955   2.086   2.163  15.749  0.2080  0.3523  0.5311
  847TIP3    H123956   2.080   2.243  15.698 -1.1411 -0.7461 -1.1593
  847TIP3    H223957   2.179   2.141  15.750  0.2984  0.5211 -1.3314
  848TIP3   OH223958   2.113   2.371  14.305 -0.1465  0.1707  0.0725
  848TIP3    H123959   2.179   2.360  14.236 -1.7797  0.0949 -1.5627
  848TIP3    H223960   2.066   2.288  14.306  0.3965 -0.1455  1.9282
  849TIP3   OH223961   0.691   6.789   1.284  0.4357  0.7152 -0.4582
  849TIP3    H123962   0.688   6.706   1.332 -1.8859  1.7656  1.4162
  849TIP3    H223963   0.619   6.784   1.222 -0.3947  1.6976  0.3980
  850TIP3   OH223964   3.571   3.035  14.956  0.2282  0.4075 -0.3241
  850TIP3    H123965   3.617   3.104  15.003  1.2208 -1.6922  2.0135
  850TIP3    H223966   3.478   3.051  14.976  0.5305  0.4300  1.1481
  851TIP3   OH223967   5.165   5.560   3.033 -0.4218  0.5680  0.2098
  851TIP3    H123968   5.088   5.517   2.996 -1.7106  2.7562  0.1967
  851TIP3    H223969   5.163   5.648   2.997  0.7858  1.4051  2.0316
  852TIP3   OH223970   5.849   0.334  11.689 -0.3715 -0.0486  0.1712
  852TIP3    H123971   5.766   0.288  11.673  0.1818 -1.8460  2.0758
  852TIP3    H223972   5.909   0.266  11.719  0.7869  1.7477  2.2081
  853TIP3   OH223973   3.263   3.340   1.318  0.0103 -0.3123 -0.1391
  853TIP3    H123974   3.196   3.272   1.314  2.8839 -3.5626  1.0775
  853TIP3    H223975   3.253   3.378   1.405  0.4179 -1.6668  0.5337
  854TIP3   OH223976   0.470   4.304  16.744 -0.0671  0.2485 -0.5611
  854TIP3    H123977   0.445   4.361  16.672  0.4415  0.6705 -0.4090
  854TIP3    H223978   0.387   4.275  16.781 -0.3539  1.4364 -0.2150
  855TIP3   OH223979   6.706   6.543   0.131  0.1098 -0.0994  0.2900
  855TIP3    H123980   6.693   6.483   0.204  0.7650 -0.8278 -0.1827
  855TIP3    H223981   6.702   6.630   0.172  1.0151 -0.4986  1.3072
  856TIP3   OH223982   4.172   3.179  16.469 -0.1040 -0.2251  0.0904
  856TIP3    H123983   4.158   3.274  16.469 -0.4622 -0.2556  1.0800
  856TIP3    H223984   4.098   3.144  16.419 -0.7229 -0.0489  0.8533
  857TIP3   OH223985   1.526   6.081   6.222 -0.7767  0.2239 -0.1961
  857TIP3    H123986   1.565   6.034   6.296 -0.5906  1.1710  0.3127
  857TIP3    H223987   1.482   6.012   6.171  1.7244 -0.9677 -0.9421
  858TIP3   OH223988   6.302   3.443  12.370  0.1194 -0.3122 -0.2019
  858TIP3    H123989   6.262   3.528  12.387 -0.7088 -1.0821  2.2163
  858TIP3    H223990   6.396   3.460  12.367 -0.0360  0.6997  0.3069
  859TIP3   OH223991   0.144   5.859   1.462 -0.3687  0.3152 -0.2934
  859TIP3    H123992   0.057   5.895   1.443 -0.8490  0.5891  2.0408
  859TIP3    H223993   0.192   5.931   1.502 -0.0297 -0.5541  0.9444
  860TIP3   OH223994   1.267   1.137  16.691  0.1749 -0.2008  0.0190
  860TIP3    H123995   1.306   1.119  16.605  1.7775 -0.8798  0.8445
  860TIP3    H223996   1.294   1.064  16.745 -0.7520  0.2584  1.1457
  861TIP3   OH223997   0.398   3.565   0.125 -0.3612 -0.0132 -0.2883
  861TIP3    H123998   0.325   3.579   0.064 -0.8600 -1.5352 -0.0705
  861TIP3    H223999   0.442   3.650   0.128 -2.9383  1.4146  0.6351
  862TIP3   OH224000   3.895   4.900   2.068  0.4295  0.0397 -0.3585
  862TIP3    H124001   3.962   4.961   2.039 -1.3409  1.4592 -1.7156
  862TIP3    H224002   3.832   4.955   2.116 -0.7644 -0.8353 -0.8675
  863TIP3   OH224003   4.904   2.423   5.585 -0.2407  0.3319 -0.2666
  863TIP3    H124004   4.960   2.448   5.658  0.0749 -1.3252  0.1201
  863TIP3    H224005   4.822   2.470   5.601 -0.1958 -0.0225  1.2101
  864TIP3   OH224006   3.171   0.194  13.457  0.2853 -0.5374  0.3553
  864TIP3    H124007   3.205   0.272  13.412 -1.0627  0.7984  1.5111
  864TIP3    H224008   3.243   0.166  13.513  0.5223  0.4328  0.5658
  865TIP3   OH224009   0.739   0.473   5.170 -0.8050  0.3834  0.1302
  865TIP3    H124010   0.814   0.453   5.114 -1.5727 -0.4353 -0.6484
  865TIP3    H224011   0.723   0.393   5.219  0.5758  1.4320  2.4788
  866TIP3   OH224012   4.772   1.744   2.907  0.9654 -0.2546 -0.1713
  866TIP3    H124013   4.756   1.836   2.928  1.7841 -0.6738  2.7180
  866TIP3    H224014   4.688   1.711   2.874  0.1436  1.0805  0.5445
  867TIP3   OH224015   0.292   3.999  11.867 -0.0600  0.2267  0.2790
  867TIP3    H124016   0.202   3.978  11.895 -0.4912  0.8320 -0.6081
  867TIP3    H224017   0.316   3.928  11.808  0.6112 -0.7134  1.6436
  868TIP3   OH224018   0.205   5.903  16.971 -0.7327 -0.2247  0.0264
  868TIP3    H124019   0.256   5.960  17.029  0.0900 -0.8546 -0.0630
  868TIP3    H224020   0.116   5.910  17.003 -0.3183 -0.4394  1.2910
  869TIP3   OH224021   4.027   3.667  12.611 -0.1120 -0.3959  0.0938
  869TIP3    H124022   4.077   3.587  12.628 -1.4146 -1.3207 -0.2333
  869TIP3    H224023   4.068   3.706  12.534  1.2632 -0.0986  0.9451
  870TIP3   OH224024   5.585   1.570   1.803  0.1994  0.0548 -0.7035
  870TIP3    H124025   5.531   1.570   1.881  1.0012  1.1843 -0.1146
  870TIP3    H224026   5.674   1.585   1.835  0.9483 -2.0574 -1.6052
  871TIP3   OH224027   0.899   3.655   5.006  0.2032  0.3057  0.4437
  871TIP3    H124028   0.841   3.581   4.987 -0.1614  0.1652  1.9706
  871TIP3    H224029   0.987   3.618   5.003  0.0036 -0.3209  1.6013
  872TIP3   OH224030   0.076   4.092   5.871 -0.0003  0.2321 -0.1212
  872TIP3    H124031   0.044   4.011   5.833 -0.0964  0.7901 -1.2660
  872TIP3    H224032   0.167   4.099   5.841  0.1499  0.3237  0.3474
  873TIP3   OH224033   4.771   1.583   5.093  0.1722 -0.4564 -0.2898
  873TIP3    H124034   4.835   1.626   5.150 -0.0338 -1.2058  0.5314
  873TIP3    H224035   4.820   1.513   5.051 -0.1551 -1.2099  0.5543
  874TIP3   OH224036   4.031   0.377   5.850  0.0436 -0.0682  0.1672
  874TIP3    H124037   3.941   0.348   5.862  0.1719 -0.6397 -0.1839
  874TIP3    H224038   4.083   0.296   5.854  0.1904 -0.2698 -3.2414
  875TIP3   OH224039   6.675   0.809  16.333 -0.8419 -0.1101 -0.5557
  875TIP3    H124040   6.698   0.827  16.242 -1.1996 -2.4277 -1.1719
  875TIP3    H224041   6.649   0.717  16.334 -2.6803  0.3220  1.5519
  876TIP3   OH224042   1.036   5.109  13.395  0.1162 -0.2234 -0.3107
  876TIP3    H124043   1.050   5.061  13.476  0.5836  0.3368 -0.0538
  876TIP3    H224044   0.960   5.165  13.412  0.4052  0.1226 -0.1526
  877TIP3   OH224045   3.944   4.351  15.070  0.0207  0.2131  0.5737
  877TIP3    H124046   4.024   4.299  15.076  0.8940  1.5565  1.0659
  877TIP3    H224047   3.873   4.288  15.082  0.9966 -0.9954  0.2190
  878TIP3   OH224048   0.296   4.217  14.864 -0.0986 -0.2814  0.0045
  878TIP3    H124049   0.331   4.133  14.833  2.2339  0.9162 -0.8046
  878TIP3    H224050   0.256   4.195  14.949  2.5579 -1.8686  0.9825
  879TIP3   OH224051   0.776   4.897  16.104 -0.1219 -0.1318 -0.0009
  879TIP3    H124052   0.793   4.976  16.052 -0.6014 -0.1045 -0.1236
  879TIP3    H224053   0.691   4.866  16.073 -0.0447 -0.5627  0.2165
  880TIP3   OH224054   0.338   1.702  12.224 -0.1616  0.1589 -0.4542
  880TIP3    H124055   0.382   1.645  12.161  2.3719  0.7533  0.6686
  880TIP3    H224056   0.335   1.651  12.305  0.7912  1.0232  0.1572
  881TIP3   OH224057   0.905   6.654  12.816  0.1975 -0.2258  0.0852
  881TIP3    H124058   0.915   6.613  12.902 -0.3847 -3.1119 -1.1328
  881TIP3    H224059   0.811   6.674  12.810  0.0735 -0.8673 -0.2063
  882TIP3   OH224060   1.857   6.431  13.138  0.2478 -0.4472  0.0021
  882TIP3    H124061   1.834   6.429  13.045  0.7091  0.2678 -0.1341
  882TIP3    H224062   1.850   6.523  13.162  0.3310 -0.6038  0.6307
  883TIP3   OH224063   3.529   1.728  14.593 -0.5946 -0.4907 -0.1821
  883TIP3    H124064   3.504   1.807  14.640 -0.2165 -0.0460 -0.7217
  883TIP3    H224065   3.525   1.753  14.501 -1.7240 -1.4565 -0.4307
  884TIP3   OH224066   1.727   2.645  12.891  0.1911 -0.1035  0.3844
  884TIP3    H124067   1.821   2.654  12.876  0.0597  0.5112 -0.1402
  884TIP3    H224068   1.709   2.700  12.966  0.3130 -0.5582  0.7533
  885TIP3   OH224069   6.307   3.031   3.068  0.3468  0.4680  0.4448
  885TIP3    H124070   6.276   3.011   2.980  1.6821 -1.7127  0.3884
  885TIP3    H224071   6.228   3.048   3.118 -0.6487 -0.7902 -0.6266
  886TIP3   OH224072   4.060   0.603   3.592  0.3187  0.2581  0.5793
  886TIP3    H124073   4.061   0.690   3.630 -0.6306  0.5487 -0.0252
  886TIP3    H224074   3.975   0.596   3.549  0.2946 -1.0293  0.7673
  887TIP3   OH224075   4.903   0.387  13.516  0.0956 -0.2396 -0.0644
  887TIP3    H124076   4.857   0.345  13.589  1.1341 -0.1973  0.6266
  887TIP3    H224077   4.921   0.476  13.547 -0.3246  0.0895 -0.7548
  888TIP3   OH224078   2.674   0.331   0.731 -0.1248  0.4328 -0.0432
  888TIP3    H124079   2.719   0.317   0.647  1.1818 -0.7297  0.8125
  888TIP3    H224080   2.744   0.354   0.792 -0.5840 -1.8009  1.4301
  889TIP3   OH224081   6.199   6.211   3.948 -0.6927 -0.4444 -0.0750
  889TIP3    H124082   6.286   6.214   3.910 -0.1069 -2.1321  1.0142
  889TIP3    H224083   6.142   6.254   3.884  0.9325  0.7196 -0.7751
  890TIP3   OH224084   5.758   2.280  16.577  0.5841 -0.2178 -0.1242
  890TIP3    H124085   5.702   2.350  16.612 -1.9327 -2.9680  1.9058
  890TIP3    H224086   5.837   2.283  16.631  0.1141  0.5164  0.5594
  891TIP3   OH224087   2.592   3.686  12.289  0.1925  0.0187 -0.3058
  891TIP3    H124088   2.511   3.725  12.255  0.5283  2.7521  1.6869
  891TIP3    H224089   2.589   3.703  12.384  2.2262 -1.5454  0.1149
  892TIP3   OH224090   4.656   6.725  15.676 -0.6430 -0.1229 -0.2406
  892TIP3    H124091   4.564   6.702  15.690 -1.4998  1.0078 -3.3172
  892TIP3    H224092   4.663   6.815  15.708 -0.6172 -0.1965 -0.0398
  893TIP3   OH224093   5.758   2.065   1.151  0.2632 -0.4593  0.3211
  893TIP3    H124094   5.685   2.126   1.145  0.2690 -0.5918 -2.1879
  893TIP3    H224095   5.728   1.996   1.210 -0.8069  0.5357  0.9713
  894TIP3   OH224096   4.618   3.909   2.725  0.0559  0.7277 -0.1183
  894TIP3    H124097   4.656   3.845   2.784  0.2806  0.8952 -0.0792
  894TIP3    H224098   4.682   3.980   2.722  0.9125 -0.0512 -1.9565
  895TIP3   OH224099   3.642   5.332   4.236 -0.0434  0.3178 -0.6489
  895TIP3    H124100   3.731   5.319   4.267  0.3886  0.3094 -1.8609
  895TIP3    H224101   3.645   5.415   4.188 -0.4068 -0.2250 -1.6536
  896TIP3   OH224102   2.346   4.816   1.887 -0.0495 -0.2294  0.0087
  896TIP3    H124103   2.362   4.906   1.857  3.2597  0.1414  2.3988
  896TIP3    H224104   2.294   4.827   1.966 -0.5410 -0.5328 -0.2658
  897TIP3   OH224105   5.514   3.222   5.402  0.3473  0.1547 -0.7923
  897TIP3    H124106   5.597   3.217   5.451  0.0991 -1.2134 -0.4696
  897TIP3    H224107   5.472   3.301   5.436  0.5779 -0.2851  0.6049
  898TIP3   OH224108   0.706   1.602  13.937  0.2333 -0.1182  0.3104
  898TIP3    H124109   0.797   1.582  13.957  0.0962 -0.5258  0.5504
  898TIP3    H224110   0.696   1.577  13.845  0.3068 -0.2825  0.3467
  899TIP3   OH224111   0.994   1.553  14.004  0.2375  0.1853  0.6171
  899TIP3    H124112   0.987   1.643  14.036  2.4913  0.5892  0.1385
  899TIP3    H224113   1.016   1.502  14.081  0.5191  0.3080  0.6193
  900TIP3   OH224114   5.829   0.175   5.972 -0.8980 -0.3217  0.4174
  900TIP3    H124115   5.780   0.251   6.003  0.1679  0.7235 -0.3602
  900TIP3    H224116   5.919   0.191   6.000 -0.2275 -0.2022 -1.5894
  901TIP3   OH224117   4.966   0.679   2.280  0.6029  0.0376 -0.0551
  901TIP3    H124118   4.966   0.619   2.354  0.5262  0.7387  0.5243
  901TIP3    H224119   5.047   0.659   2.232 -0.1010 -1.4839 -0.6822
  902TIP3   OH224120   4.697   4.034  10.478 -0.3231 -0.0092 -0.7286
  902TIP3    H124121   4.709   3.947  10.440  2.0339 -0.6508  1.2178
  902TIP3    H224122   4.768   4.086  10.442  2.3360 -0.7780  2.7878
  903TIP3   OH224123   2.525   4.183   2.521  0.5383 -0.7998 -0.0415
  903TIP3    H124124   2.560   4.165   2.609 -2.9567  0.0435  1.6802
  903TIP3    H224125   2.519   4.097   2.480 -0.9702 -1.7227  1.9431
  904TIP3   OH224126   6.222   0.383  15.324  0.3448 -0.0676  0.0567
  904TIP3    H124127   6.291   0.417  15.380  0.6493  1.5416 -1.2120
  904TIP3    H224128   6.265   0.315  15.271  0.6212  0.0248  0.1633
  905TIP3   OH224129   3.945   5.921  14.405  0.4834 -0.2570 -0.0291
  905TIP3    H124130   3.865   5.920  14.458  1.8053  1.5588  2.2007
  905TIP3    H224131   3.914   5.918  14.315 -2.3176  2.8655  0.6175
  906TIP3   OH224132   6.693   2.481  16.708  0.1576  0.0992 -0.4463
  906TIP3    H124133   6.652   2.563  16.679  0.4553  0.6866  0.7365
  906TIP3    H224134   6.715   2.436  16.627 -0.2572  1.0684 -1.1222
  907TIP3   OH224135   6.083   1.116  16.503 -0.1779 -0.1459 -0.0178
  907TIP3    H124136   5.990   1.107  16.482 -1.2181  0.2391  3.6351
  907TIP3    H224137   6.107   1.203  16.471 -1.6088  0.4636  0.4533
  908TIP3   OH224138   0.663   1.016   6.390 -0.8035 -0.6040 -0.3086
  908TIP3    H124139   0.742   1.064   6.366 -0.9462  0.2717  0.8600
  908TIP3    H224140   0.591   1.065   6.350 -1.0672  1.0259  1.9435
  909TIP3   OH224141   6.271   4.782   5.767  0.0745 -0.1343  0.0640
  909TIP3    H124142   6.357   4.809   5.796 -0.6117  0.2950  1.8136
  909TIP3    H224143   6.271   4.686   5.776  0.2895 -0.1139  0.2852
  910TIP3   OH224144   3.536   0.345  14.162  0.0001  0.5283 -0.1678
  910TIP3    H124145   3.607   0.357  14.225 -1.1554  0.1497  1.2745
  910TIP3    H224146   3.540   0.422  14.106  1.0596  0.8851  0.3684
  911TIP3   OH224147   0.892   2.004   0.798 -0.5984 -0.3513  0.7487
  911TIP3    H124148   0.844   1.965   0.872 -0.3791 -0.5674  0.7767
  911TIP3    H224149   0.937   1.930   0.757 -1.1680 -0.3286  0.0570
  912TIP3   OH224150   1.460   5.546  15.588 -0.2390 -0.0405 -0.0534
  912TIP3    H124151   1.545   5.588  15.603  0.2932 -0.9205 -0.5256
  912TIP3    H224152   1.474   5.454  15.613 -0.8835 -0.3159 -0.6619
  913TIP3   OH224153   0.747   3.184  11.479 -0.4581  0.1394  0.6844
  913TIP3    H124154   0.684   3.160  11.412 -0.1342  0.6672  0.1831
  913TIP3    H224155   0.823   3.128  11.462  0.5635  1.9175 -0.9093
  914TIP3   OH224156   4.616   4.070  16.353  0.2674 -0.0087  0.1578
  914TIP3    H124157   4.684   4.130  16.322  0.0176 -0.3775 -1.1803
  914TIP3    H224158   4.546   4.077  16.288  0.5700 -2.3175 -0.5012
  915TIP3   OH224159   1.324   4.491   1.459  0.0068 -0.0907 -0.0178
  915TIP3    H124160   1.314   4.396   1.456 -2.9482  0.1244 -1.3234
  915TIP3    H224161   1.314   4.513   1.552 -1.5401 -0.9639  0.0689
  916TIP3   OH224162   6.716   5.559  15.057  0.3097 -0.4342  0.2888
  916TIP3    H124163   6.746   5.630  15.000  0.4148  0.0972  1.0058
  916TIP3    H224164   6.620   5.565  15.054  0.3253  0.2682  1.0041
  917TIP3   OH224165   4.992   5.725   0.713 -0.1923  0.4893  0.3807
  917TIP3    H124166   4.952   5.799   0.759 -1.7309  0.6144 -1.0490
  917TIP3    H224167   4.935   5.651   0.735  1.7552 -0.5322  2.4135
  918TIP3   OH224168   0.052   0.392   0.663  0.6932  0.1248 -0.4166
  918TIP3    H124169   0.079   0.475   0.703  2.6186 -0.3253 -0.7265
  918TIP3    H224170  -0.009   0.354   0.726  0.2547  1.4834  0.0107
  919TIP3   OH224171   1.523   3.296  11.512 -0.3446  0.2718 -0.1873
  919TIP3    H124172   1.493   3.344  11.589 -1.2059 -0.6424  0.0645
  919TIP3    H224173   1.446   3.250  11.481 -0.4826  2.0190 -2.7027
  920TIP3   OH224174   0.588   1.732  11.801  0.6867 -0.1067  0.5360
  920TIP3    H124175   0.496   1.714  11.820  1.2156 -2.2312  1.3898
  920TIP3    H224176   0.588   1.761  11.710 -0.8870  0.6485  0.7464
  921TIP3   OH224177   1.641   0.927  10.301  0.1854 -0.6727 -0.8633
  921TIP3    H124178   1.709   0.903  10.238  0.7533 -0.0186 -0.5159
  921TIP3    H224179   1.600   0.844  10.324  1.8876 -1.3149  0.0699
  922TIP3   OH224180   2.436   1.886  16.690 -0.5849  0.2277  0.4992
  922TIP3    H124181   2.474   1.974  16.682  1.9120 -0.6097  1.9722
  922TIP3    H224182   2.350   1.893  16.648  0.5009  2.7296 -1.5765
  923TIP3   OH224183   3.113   2.915   1.662 -0.5427 -0.4008 -0.5025
  923TIP3    H124184   3.097   2.841   1.720  0.7073  0.1910  0.6321
  923TIP3    H224185   3.090   2.993   1.714 -1.5556  0.0623 -1.5751
  924TIP3   OH224186   4.135   1.933   6.464  0.1407 -0.2871 -0.3028
  924TIP3    H124187   4.180   1.986   6.530 -0.8645 -0.2819  0.3842
  924TIP3    H224188   4.109   1.854   6.510  0.4216 -0.7949 -0.9886
  925TIP3   OH224189   3.934   1.220   5.474  0.4253 -0.0689  0.4400
  925TIP3    H124190   3.995   1.213   5.547  0.5188 -2.2323  0.2234
  925TIP3    H224191   3.990   1.232   5.397  0.3297  2.1383  0.6576
  926TIP3   OH224192   3.326   0.051  12.981 -0.3386 -0.3636 -0.0167
  926TIP3    H124193   3.334   0.066  12.887  0.4080 -0.8526 -0.0431
  926TIP3    H224194   3.302  -0.041  12.988  1.4242 -0.8387  0.3046
  927TIP3   OH224195   6.020   2.060   4.667 -0.1413 -0.5324  0.2677
  927TIP3    H124196   5.973   1.977   4.674  0.0909 -0.5427  2.3380
  927TIP3    H224197   6.017   2.097   4.756  1.7582  0.5499 -0.0663
  928TIP3   OH224198   1.532   2.759   5.069 -0.1812  0.0541 -0.1622
  928TIP3    H124199   1.480   2.828   5.110 -0.2290 -0.1787  0.1733
  928TIP3    H224200   1.499   2.678   5.108 -0.8785 -0.2530 -1.3437
  929TIP3   OH224201   2.367   5.991   0.650 -0.6531  0.2900  0.0251
  929TIP3    H124202   2.315   6.067   0.676 -0.2980 -0.0424  1.8708
  929TIP3    H224203   2.389   6.006   0.558 -2.4722  1.3108 -0.2804
  930TIP3   OH224204   2.402   3.882   1.866  0.8647  0.0002  0.7342
  930TIP3    H124205   2.486   3.846   1.892  1.9721  2.3566  0.7086
  930TIP3    H224206   2.410   3.898   1.772  0.5616  0.6068  0.8017
  931TIP3   OH224207   0.949   2.263   3.492  0.0283  0.5878  0.4066
  931TIP3    H124208   0.895   2.238   3.567  0.4272  0.2744  0.5888
  931TIP3    H224209   1.017   2.197   3.488  0.1025  0.6928 -0.1391
  932TIP3   OH224210   1.640   5.031   1.843  0.5123  0.1825 -0.5779
  932TIP3    H124211   1.642   5.057   1.751  0.3169 -1.0182 -0.9375
  932TIP3    H224212   1.547   5.030   1.865  0.5977  1.7330  0.0408
  933TIP3   OH224213   2.402   1.296   1.181 -0.0654  0.2598  0.0760
  933TIP3    H124214   2.307   1.296   1.170  0.0571  0.7674 -1.1524
  933TIP3    H224215   2.415   1.300   1.276 -1.2563 -0.6324  0.2912
  934TIP3   OH224216   5.380   1.074  14.343  0.1664 -0.1084  0.3052
  934TIP3    H124217   5.411   1.058  14.254 -0.8158  4.1500 -1.0181
  934TIP3    H224218   5.286   1.088  14.334 -0.4532 -2.1631  2.5312
  935TIP3   OH224219   1.754   0.361  16.355 -0.2777 -0.3865  0.1720
  935TIP3    H124220   1.777   0.438  16.406  0.0460  0.2807 -0.9414
  935TIP3    H224221   1.663   0.375  16.330 -0.0897 -0.1377 -0.3973
  936TIP3   OH224222   2.495   0.894  16.267  0.1338 -0.2000  0.5582
  936TIP3    H124223   2.456   0.855  16.189 -2.1152 -0.0265  1.5262
  936TIP3    H224224   2.529   0.978  16.238  1.1573 -0.9752 -0.6209
  937TIP3   OH224225   4.192   1.588  14.406 -0.6651  0.3265 -0.0014
  937TIP3    H124226   4.216   1.643  14.331  0.5558 -0.4466 -0.1964
  937TIP3    H224227   4.257   1.518  14.406 -3.6128 -2.7143 -1.4028
  938TIP3   OH224228   0.051   4.473  13.034 -0.5211 -0.5486 -0.1829
  938TIP3    H124229  -0.021   4.412  13.018  0.0283 -1.1738 -0.3153
  938TIP3    H224230   0.051   4.531  12.957  0.2497 -1.6955 -1.0953
  939TIP3   OH224231   3.109   2.226   5.591 -0.0751 -0.4201 -0.6038
  939TIP3    H124232   3.066   2.239   5.506 -1.3896 -0.2236  0.0643
  939TIP3    H224233   3.134   2.134   5.591  2.4827  0.1737 -2.3082
  940TIP3   OH224234   1.822   4.734  12.821  0.0083  0.0224 -0.6034
  940TIP3    H124235   1.892   4.675  12.850 -1.3555 -0.4786  1.8765
  940TIP3    H224236   1.869   4.808  12.782  1.9636 -0.1022  1.3179
  941TIP3   OH224237   0.430   1.710  13.748 -0.1386  0.8651 -0.3885
  941TIP3    H124238   0.409   1.790  13.796  2.8755  1.9909 -0.7385
  941TIP3    H224239   0.441   1.739  13.657  0.7623  0.0161 -0.5650
  942TIP3   OH224240   4.490   3.701   3.731 -0.3294 -0.3054 -0.3785
  942TIP3    H124241   4.578   3.735   3.715 -0.3918  0.6098  1.0498
  942TIP3    H224242   4.504   3.616   3.772 -0.0507  0.3781  1.0105
  943TIP3   OH224243   3.859   2.153  16.732 -0.3364  0.1445 -0.4703
  943TIP3    H124244   3.861   2.244  16.703  0.0565  0.0698 -0.6778
  943TIP3    H224245   3.906   2.153  16.815  0.3235 -0.0013 -0.8428
  944TIP3   OH224246   6.555   4.137  13.444 -0.3128  0.2812  0.3956
  944TIP3    H124247   6.647   4.161  13.435 -0.2551  0.0349  0.3244
  944TIP3    H224248   6.528   4.111  13.356 -0.4890  0.4838  0.3882
  945TIP3   OH224249   2.666   1.675   0.022  0.1030 -0.4535  0.1466
  945TIP3    H124250   2.590   1.715  -0.020 -0.9464  0.5944  2.8283
  945TIP3    H224251   2.631   1.604   0.075  1.1418 -0.7246  0.5036
  946TIP3   OH224252   2.028   2.157   4.817 -0.4286 -0.2189 -0.0357
  946TIP3    H124253   2.031   2.206   4.735  0.0449  0.1741  0.2143
  946TIP3    H224254   2.118   2.154   4.847 -0.5952 -0.3882  0.4607
  947TIP3   OH224255   4.122   2.304  13.224  0.4752 -0.0313 -0.0818
  947TIP3    H124256   4.091   2.315  13.134  1.0957 -0.0618 -0.3100
  947TIP3    H224257   4.218   2.305  13.216  0.5456 -0.9760  0.4637
  948TIP3   OH224258   0.325   1.674   3.011 -0.4995 -0.0306 -0.3517
  948TIP3    H124259   0.413   1.642   2.989 -0.1510  0.5065  0.2262
  948TIP3    H224260   0.271   1.596   3.014  0.3748 -0.6165  1.2318
  949TIP3   OH224261   5.651   0.462  14.119  0.4327  0.0723  0.6987
  949TIP3    H124262   5.592   0.472  14.194  0.1755 -0.8055  0.6237
  949TIP3    H224263   5.592   0.458  14.043  0.6097 -0.4208  0.5855
  950TIP3   OH224264   5.708   5.660   0.709 -0.9795  0.3107 -0.4290
  950TIP3    H124265   5.694   5.586   0.768 -1.0566 -0.2530 -1.1358
  950TIP3    H224266   5.778   5.711   0.751 -3.2162  1.7529  1.8171
  951TIP3   OH224267   4.282   2.338   2.015 -0.0008 -0.2042  0.1525
  951TIP3    H124268   4.273   2.370   1.926  0.8133 -0.9667 -0.2227
  951TIP3    H224269   4.194   2.310   2.041 -0.0521 -1.0109 -0.8289
  952TIP3   OH224270   4.835   2.854  14.132  0.3909 -0.3556  0.1957
  952TIP3    H124271   4.787   2.934  14.107  0.1147 -0.4485  0.4243
  952TIP3    H224272   4.839   2.858  14.228  2.5077  0.6232  0.1149
  953TIP3   OH224273   0.236   4.694   1.680 -0.2818 -0.4643  0.4606
  953TIP3    H124274   0.192   4.754   1.620 -1.2021 -0.3351  1.2386
  953TIP3    H224275   0.244   4.613   1.631 -0.7166 -0.2580  0.0396
  954TIP3   OH224276   6.031   5.999  11.868 -0.0909 -0.0177 -0.0004
  954TIP3    H124277   5.995   6.004  11.956  0.9509  0.6726  0.4090
  954TIP3    H224278   6.103   6.062  11.868  2.1183 -2.3626 -0.2759
  955TIP3   OH224279   3.182   2.494  14.280 -0.0745  0.3074  0.1232
  955TIP3    H124280   3.215   2.581  14.306 -2.0610  1.3588 -0.6385
  955TIP3    H224281   3.101   2.484  14.329 -0.4857 -0.5856 -0.7110
  956TIP3   OH224282   3.890   3.195   4.507 -0.2672 -0.1375  0.0085
  956TIP3    H124283   3.825   3.265   4.498  0.8938  0.8815 -0.8115
  956TIP3    H224284   3.927   3.207   4.594  1.6843  1.9120 -1.0201
  957TIP3   OH224285   4.784   2.051   4.840 -0.1472  0.4640 -0.0686
  957TIP3    H124286   4.690   2.030   4.837 -0.1629  0.4908  0.2432
  957TIP3    H224287   4.824   1.987   4.781 -0.1921 -0.4714  0.8943
  958TIP3   OH224288   0.132   6.253   6.400 -0.1904  0.3175 -0.5247
  958TIP3    H124289   0.212   6.203   6.421 -0.9794 -1.2014 -0.9697
  958TIP3    H224290   0.154   6.302   6.321  0.0392 -0.8210 -1.1969
  959TIP3   OH224291   1.589   5.853  14.942 -0.4477  0.0701  0.2694
  959TIP3    H124292   1.567   5.806  15.022 -0.3215  0.6895  0.6677
  959TIP3    H224293   1.600   5.784  14.876  1.0288 -0.5775  1.1410
  960TIP3   OH224294   1.854   4.860   2.249  0.2757  0.1349  0.2448
  960TIP3    H124295   1.886   4.865   2.159 -0.2423 -0.7006 -0.0044
  960TIP3    H224296   1.928   4.827   2.299  0.4731  0.3124  0.0723
  961TIP3   OH224297   6.636   5.255  11.494 -0.3130  0.0739 -0.9138
  961TIP3    H124298   6.582   5.183  11.462 -1.1290  0.4369 -0.4102
  961TIP3    H224299   6.641   5.316  11.420  1.5544 -1.0927 -1.8252
  962TIP3   OH224300   0.173   4.207  13.111  0.0934 -0.5764 -0.3619
  962TIP3    H124301   0.155   4.298  13.085 -0.0305 -1.0215 -1.9548
  962TIP3    H224302   0.269   4.200  13.108  0.1021 -0.5046 -0.2591
  963TIP3   OH224303   2.479   0.803  13.768  0.0626 -0.0221 -0.0735
  963TIP3    H124304   2.557   0.808  13.823 -0.8236  0.2002  1.2070
  963TIP3    H224305   2.406   0.805  13.830 -0.9983  1.0114 -1.3068
  964TIP3   OH224306   1.908   2.047   5.118  0.4791  0.2852 -0.5258
  964TIP3    H124307   1.900   1.959   5.082  1.3765  0.3016 -0.8012
  964TIP3    H224308   1.952   2.097   5.050  0.6459  0.7526 -0.0808
  965TIP3   OH224309   3.821   2.352   0.147  0.2598 -0.1298  0.0882
  965TIP3    H124310   3.869   2.389   0.073  2.5912 -0.2527  1.4586
  965TIP3    H224311   3.875   2.279   0.178 -1.0260 -0.5633  1.4448
  966TIP3   OH224312   4.796   1.903   0.727  0.1337  0.1727 -0.5681
  966TIP3    H124313   4.794   1.979   0.785 -1.9436  1.3595 -2.0320
  966TIP3    H224314   4.880   1.861   0.745  1.2681  2.6695  0.4906
  967TIP3   OH224315   0.031   3.015   0.560 -0.1073 -1.2594 -0.3332
  967TIP3    H124316   0.116   3.026   0.518 -0.7426 -1.7311 -1.8055
  967TIP3    H224317  -0.026   2.983   0.490 -1.5159 -0.8853  0.6105
  968TIP3   OH224318   0.132   2.464   4.422 -0.6490  0.1202 -0.0691
  968TIP3    H124319   0.117   2.420   4.338  1.4163  0.8311 -0.8603
  968TIP3    H224320   0.109   2.398   4.487 -1.2485 -0.8192 -1.1823
  969TIP3   OH224321   3.276   5.398   2.902 -0.6989  0.2688  0.1268
  969TIP3    H124322   3.223   5.453   2.844 -0.0574 -0.2810 -1.0117
  969TIP3    H224323   3.366   5.423   2.883 -0.3325 -1.7354 -1.0473
  970TIP3   OH224324   2.425   5.836   0.073 -0.1178 -0.2694  1.1308
  970TIP3    H124325   2.462   5.749   0.087 -2.2105 -1.0671  2.2000
  970TIP3    H224326   2.381   5.857   0.156 -0.3665  1.4494  0.6029
  971TIP3   OH224327   3.928   5.379  16.959 -0.2444  1.0724 -0.6260
  971TIP3    H124328   4.020   5.397  16.980 -0.2860  1.9462 -1.1653
  971TIP3    H224329   3.897   5.328  17.034  1.2976 -1.3637 -1.4990
  972TIP3   OH224330   1.598   6.493   4.865  0.2480 -0.2188  0.3494
  972TIP3    H124331   1.613   6.463   4.776  1.6522 -1.6523  1.0190
  972TIP3    H224332   1.625   6.420   4.920  0.9338  1.1998  2.0021
  973TIP3   OH224333   4.054   3.344  15.630  0.1602  0.1782  0.1601
  973TIP3    H124334   3.986   3.282  15.607  1.5594 -1.1594 -0.5683
  973TIP3    H224335   4.015   3.399  15.699 -2.1483  0.4881 -1.2831
  974TIP3   OH224336   4.121   1.263  12.919 -0.5276  0.4083 -0.1696
  974TIP3    H124337   4.153   1.294  12.835  2.1738  0.6167  0.8365
  974TIP3    H224338   4.112   1.168  12.908 -0.3749  0.4569 -0.7430
  975TIP3   OH224339   0.038   2.369   0.577 -0.2529  0.7648  0.2607
  975TIP3    H124340   0.012   2.383   0.668  0.6600  1.2279  0.4729
  975TIP3    H224341  -0.010   2.292   0.549 -0.9882  0.9639  0.9539
  976TIP3   OH224342   4.172   6.464   5.119 -0.0266 -0.7446 -0.0568
  976TIP3    H124343   4.163   6.389   5.178 -0.3114 -0.7945 -0.1582
  976TIP3    H224344   4.164   6.426   5.031 -0.7708 -0.5214 -0.0910
  977TIP3   OH224345   1.207   2.921   2.754 -0.1392 -0.6622  0.1177
  977TIP3    H124346   1.216   2.960   2.841 -0.0832 -0.6606  0.1109
  977TIP3    H224347   1.147   2.980   2.708  0.8316  0.0629 -0.2768
  978TIP3   OH224348   1.125   1.942  13.001  0.3402 -0.2165 -0.2932
  978TIP3    H124349   1.181   1.896  12.938  0.1361  1.0560 -1.4410
  978TIP3    H224350   1.176   2.019  13.027 -0.2152  0.0859 -0.0844
  979TIP3   OH224351   4.218   1.885   4.324  0.1691 -0.3859  0.0916
  979TIP3    H124352   4.275   1.819   4.363 -0.7663 -2.7215 -2.2056
  979TIP3    H224353   4.263   1.909   4.243 -1.4609 -1.3810 -1.1569
  980TIP3   OH224354   2.512   3.019   0.742 -0.3208  0.1809 -0.7126
  980TIP3    H124355   2.423   2.989   0.728 -0.2338 -0.3212 -0.2435
  980TIP3    H224356   2.534   2.988   0.831  0.1335  0.7416 -0.6238
  981TIP3   OH224357   2.321   1.601   4.326  0.6480 -0.4160 -0.6358
  981TIP3    H124358   2.320   1.547   4.247  1.1127  0.6350 -1.3805
  981TIP3    H224359   2.406   1.583   4.366  0.9881  0.0637 -1.1178
  982TIP3   OH224360   1.028   5.097   1.614  0.6529 -0.6138  0.0260
  982TIP3    H124361   0.955   5.119   1.556 -0.9573 -1.2859  1.6846
  982TIP3    H224362   1.078   5.031   1.566  1.9489  1.8782 -2.3656
  983TIP3   OH224363   3.311   3.654  12.587  0.6098 -0.3005  0.3898
  983TIP3    H124364   3.335   3.746  12.580 -0.3913 -0.0992 -0.7913
  983TIP3    H224365   3.225   3.648  12.545 -0.1524 -1.4738  2.0049
  984TIP3   OH224366   6.461   1.055   2.040 -0.4912  1.0401 -0.2182
  984TIP3    H124367   6.396   0.999   2.082 -2.0225  3.5869  1.0438
  984TIP3    H224368   6.501   1.103   2.112 -0.0168  2.3239 -1.3010
  985TIP3   OH224369   3.925   1.428  13.010 -0.3608 -0.8393  0.1543
  985TIP3    H124370   4.006   1.382  12.987  0.1232  0.0894 -0.0507
  985TIP3    H224371   3.864   1.358  13.033 -0.1278 -1.6932 -1.6012
  986TIP3   OH224372   0.958   0.665  15.706 -0.2587 -0.1089  0.1837
  986TIP3    H124373   0.954   0.571  15.724 -1.1241 -0.1434 -0.1320
  986TIP3    H224374   0.871   0.686  15.672 -0.5272  1.0595  1.4755
  987TIP3   OH224375   5.550   0.016  15.179 -0.3039  0.5686  0.0095
  987TIP3    H124376   5.535   0.036  15.272 -1.2904  0.3870 -0.0963
  987TIP3    H224377   5.499   0.083  15.132 -2.1917 -1.0295 -0.3662
  988TIP3   OH224378   6.509   5.647   3.733 -0.3007  0.0599 -0.1077
  988TIP3    H124379   6.477   5.573   3.785  2.8319 -0.7820  0.8716
  988TIP3    H224380   6.548   5.606   3.656  2.7948  0.3932  1.1405
  989TIP3   OH224381   5.065   0.551  13.159 -0.5038  0.1179  0.0206
  989TIP3    H124382   5.073   0.525  13.068  1.3542 -0.8258  0.3978
  989TIP3    H224383   5.036   0.643  13.155  0.0677  0.2629 -1.5290
  990TIP3   OH224384   0.643   2.943  11.658  0.2323 -0.2702  0.1666
  990TIP3    H124385   0.705   2.875  11.629  0.7068  0.4979 -0.7054
  990TIP3    H224386   0.643   3.006  11.586 -1.1758  0.0151  0.4013
  991TIP3   OH224387   5.884   0.995   3.319  0.2974 -0.7021 -0.0886
  991TIP3    H124388   5.974   1.025   3.313  0.7645 -1.9989  0.1250
  991TIP3    H224389   5.890   0.907   3.357 -0.7807 -2.1683 -2.9908
  992TIP3   OH224390   3.492   6.808  11.257  0.1266  0.1379 -0.2560
  992TIP3    H124391   3.410   6.765  11.236  0.1519  0.3692 -0.8628
  992TIP3    H224392   3.506   6.790  11.350  0.0343 -0.9716 -0.4442
  993TIP3   OH224393   0.128   2.423   4.887  0.9173 -0.1265  0.5970
  993TIP3    H124394   0.133   2.344   4.939 -0.1176 -0.6576 -0.0797
  993TIP3    H224395   0.117   2.392   4.797  0.6548  0.7751  0.3075
  994TIP3   OH224396   3.836   6.097   1.203  0.1137 -0.2885 -0.2779
  994TIP3    H124397   3.882   6.178   1.180  0.7449 -0.2761  0.9462
  994TIP3    H224398   3.794   6.069   1.122  1.6563  0.1168 -1.2509
  995TIP3   OH224399   0.070   6.462   0.440 -0.5139  0.2254 -0.1897
  995TIP3    H124400   0.135   6.452   0.510 -1.6880  0.9965  1.0537
  995TIP3    H224401   0.116   6.511   0.372  0.7736 -0.8781 -0.1536
  996TIP3   OH224402   6.568   0.483  13.368  0.0365 -0.0162  0.0623
  996TIP3    H124403   6.541   0.574  13.357  4.2254  1.1736 -3.7376
  996TIP3    H224404   6.639   0.487  13.432  0.5209 -0.5093 -0.4340
  997TIP3   OH224405   5.183   2.700  13.819 -0.9198 -0.1889  0.5036
  997TIP3    H124406   5.125   2.651  13.761 -2.2735  1.0064  0.7788
  997TIP3    H224407   5.214   2.773  13.765 -0.5593 -0.2017  0.6917
  998TIP3   OH224408   0.735   6.542   1.385  0.1031  0.4091 -0.3447
  998TIP3    H124409   0.828   6.524   1.373  0.1260  1.4239 -1.8773
  998TIP3    H224410   0.713   6.498   1.467  1.8967  0.0647 -0.0100
  999TIP3   OH224411   4.307   0.241  16.813  0.1582 -0.0672 -0.5258
  999TIP3    H124412   4.299   0.252  16.908  1.7759  0.4376 -0.4243
  999TIP3    H224413   4.356   0.318  16.784 -0.5971 -0.0489 -1.8283
 1000TIP3   OH224414   3.961   1.250   0.659 -0.2631  0.0806 -0.2052
 1000TIP3    H124415   3.927   1.206   0.737  0.5028  0.6533  0.4653
 1000TIP3    H224416   4.047   1.282   0.685 -0.2595  0.8291 -1.0908
 1001TIP3   OH224417   3.312   3.019   1.380  0.4592 -0.5134  0.6183
 1001TIP3    H124418   3.242   3.039   1.442  0.6413 -0.3657  0.7814
 1001TIP3    H224419   3.376   3.090   1.393  0.0272  0.0876 -0.4684
 1002TIP3   OH224420   2.848   5.400   3.666 -0.3737  0.4169  0.8613
 1002TIP3    H124421   2.760   5.390   3.630  0.5129 -0.0330 -1.3431
 1002TIP3    H224422   2.839   5.376   3.758 -2.0080 -2.4942  0.0568
 1003TIP3   OH224423   1.949   5.827  15.306  0.1575 -0.3166 -0.5965
 1003TIP3    H124424   2.023   5.810  15.365  0.0404 -0.3170 -0.4467
 1003TIP3    H224425   1.917   5.913  15.334  1.0390  0.3822 -1.6596
 1004TIP3   OH224426   3.598   5.086   2.411 -0.0827  0.7588 -0.1393
 1004TIP3    H124427   3.509   5.118   2.426 -0.2877  0.4989 -0.7832
 1004TIP3    H224428   3.591   4.991   2.414  0.0548  0.7195 -0.7958
 1005TIP3   OH224429   0.800   4.461   3.082 -0.4214 -0.4302  0.0080
 1005TIP3    H124430   0.818   4.549   3.114 -1.3880  0.4370 -1.6914
 1005TIP3    H224431   0.708   4.463   3.055  0.6272 -0.3653 -4.4996
 1006TIP3   OH224432   2.528   3.771   4.634 -0.1044  0.2691 -0.1871
 1006TIP3    H124433   2.492   3.700   4.687  1.6505 -0.8426 -0.4275
 1006TIP3    H224434   2.571   3.828   4.698  1.0152 -0.4630 -0.2612
 1007TIP3   OH224435   3.067   5.879  15.041 -0.1420 -0.4709 -0.0841
 1007TIP3    H124436   3.058   5.959  14.989 -2.0033 -0.0399  0.8173
 1007TIP3    H224437   3.036   5.903  15.128  0.1087 -1.9424  0.4478
 1008TIP3   OH224438   2.163   4.020  15.759 -0.3611 -0.0570 -0.3327
 1008TIP3    H124439   2.216   3.947  15.726 -0.0886  0.1624 -0.3818
 1008TIP3    H224440   2.125   3.987  15.841  1.3422  0.4282  0.6881
 1009TIP3   OH224441   2.370   5.222  12.894 -0.6147  0.2242  0.1675
 1009TIP3    H124442   2.353   5.299  12.839  0.2446  1.3599  1.4385
 1009TIP3    H224443   2.370   5.255  12.983 -0.4892 -1.3244  0.7788
 1010TIP3   OH224444   6.295   4.217   1.764  0.5937  0.0936  0.1677
 1010TIP3    H124445   6.222   4.198   1.823  1.4722  0.9955  1.6204
 1010TIP3    H224446   6.256   4.223   1.677 -1.3007  1.7758  1.0636
 1011TIP3   OH224447   5.343   4.361  16.357 -0.0884 -0.3058  0.0003
 1011TIP3    H124448   5.395   4.441  16.364 -0.5086 -0.0426  0.1706
 1011TIP3    H224449   5.330   4.333  16.448 -2.5647  1.1602  0.2061
 1012TIP3   OH224450   3.155   4.731  16.903 -0.6430  0.3763  0.0632
 1012TIP3    H124451   3.090   4.685  16.850 -0.8371 -0.8349  1.3181
 1012TIP3    H224452   3.172   4.812  16.854 -0.9326 -0.6097 -1.7604
 1013TIP3   OH224453   3.689   4.028  13.424 -0.2485  0.5068  0.3129
 1013TIP3    H124454   3.663   4.057  13.511 -0.8969  2.2031 -0.3874
 1013TIP3    H224455   3.765   4.082  13.402  0.7829 -0.8788  0.3423
 1014TIP3   OH224456   3.463   4.243  11.833  0.3916  0.0312  0.5825
 1014TIP3    H124457   3.378   4.242  11.790 -0.2168  0.9865  1.7149
 1014TIP3    H224458   3.524   4.275  11.766 -0.5052  1.3265  0.3533
 1015TIP3   OH224459   6.422   6.095  13.730 -0.2887  0.7887  0.1519
 1015TIP3    H124460   6.450   6.179  13.765 -0.1305  1.8677 -2.3503
 1015TIP3    H224461   6.478   6.030  13.773  2.1816  2.3288 -0.5386
 1016TIP3   OH224462   0.040   5.359  13.958 -0.0192  0.8957  0.1502
 1016TIP3    H124463   0.007   5.446  13.935 -1.0898  1.2437  2.6984
 1016TIP3    H224464  -0.036   5.312  13.991  0.4179 -1.2765 -1.6715
 1017TIP3   OH224465   4.108   2.454   2.602 -0.1260  0.6771  0.1903
 1017TIP3    H124466   4.170   2.431   2.672 -1.1820 -0.4370  0.7888
 1017TIP3    H224467   4.115   2.383   2.539 -0.2041  0.9655 -0.1443
 1018TIP3   OH224468   1.109   4.722   3.001  0.1866 -0.1552 -0.8130
 1018TIP3    H124469   1.126   4.687   3.089 -1.3759  1.8511  0.3805
 1018TIP3    H224470   1.014   4.712   2.989 -0.6705  4.3775  0.1442
 1019TIP3   OH224471   3.253   0.467   5.158  0.1971 -0.1175 -0.5744
 1019TIP3    H124472   3.318   0.535   5.138  0.9559 -0.9761 -1.0856
 1019TIP3    H224473   3.192   0.510   5.218  2.0347  0.2932  1.1009
 1020TIP3   OH224474   3.248   5.399  10.331 -0.0281 -0.3082 -0.3057
 1020TIP3    H124475   3.161   5.387  10.369  0.7258 -3.3125  0.7114
 1020TIP3    H224476   3.308   5.363  10.396  2.1205  2.2616 -0.6829
 1021TIP3   OH224477   2.624   2.295  10.328 -0.4204  0.7074 -0.1049
 1021TIP3    H124478   2.688   2.354  10.287 -0.5684  1.0603  0.1629
 1021TIP3    H224479   2.675   2.219  10.355  0.2442  1.7086  1.6829
 1022TIP3   OH224480   4.076   5.057  12.731  0.1210 -0.2485 -0.0086
 1022TIP3    H124481   4.006   5.117  12.755 -0.3297 -1.3954  1.7703
 1022TIP3    H224482   4.156   5.106  12.748 -0.2278 -0.3306  2.1120
 1023TIP3   OH224483   5.060   1.271   2.039  0.2715  0.5494 -0.4850
 1023TIP3    H124484   4.979   1.224   2.017 -0.7712  1.3220  1.4719
 1023TIP3    H224485   5.099   1.218   2.109 -0.2312  1.8504  0.8145
 1024TIP3   OH224486   5.326   2.352  15.138  0.8574 -0.0925  0.1914
 1024TIP3    H124487   5.271   2.355  15.217  1.0411 -1.9931  0.4450
 1024TIP3    H224488   5.269   2.314  15.071  0.4181  2.3272 -0.8962
 1025TIP3   OH224489   6.571   1.556   4.495 -0.1025 -0.3607 -0.2081
 1025TIP3    H124490   6.560   1.641   4.537  1.0509 -0.3210  0.0599
 1025TIP3    H224491   6.586   1.495   4.567  1.5956 -0.3375 -0.4841
 1026TIP3   OH224492   2.471   6.565  10.382  0.3864  0.0698  0.2490
 1026TIP3    H124493   2.504   6.651  10.356 -1.6673  0.4532 -1.3991
 1026TIP3    H224494   2.391   6.553  10.330 -0.7114 -1.8015  2.1763
 1027TIP3   OH224495   4.065   0.982   4.564 -0.0354 -0.2421  0.0512
 1027TIP3    H124496   4.000   1.043   4.599 -0.7722 -1.0533  0.1019
 1027TIP3    H224497   4.022   0.941   4.490  0.1729 -1.2752  0.4899
 1028TIP3   OH224498   6.553   5.657   4.128  0.5116 -0.4135 -0.0794
 1028TIP3    H124499   6.648   5.657   4.143  0.5375  1.4727  0.0117
 1028TIP3    H224500   6.515   5.670   4.215  0.1198 -1.8771 -0.0155
 1029TIP3   OH224501   1.234   3.209   6.728  0.3532  0.1267  0.5075
 1029TIP3    H124502   1.312   3.239   6.682  1.0013 -1.0702  0.7734
 1029TIP3    H224503   1.198   3.141   6.670 -0.4956  0.6702  0.3897
 1030TIP3   OH224504   4.953   3.965  10.795 -0.1401 -0.0624 -0.3284
 1030TIP3    H124505   4.905   4.048  10.791  1.2141  0.8601  1.3838
 1030TIP3    H224506   4.889   3.903  10.829 -0.2989  1.0512  1.5179
 1031TIP3   OH224507   2.822   0.210   4.496  0.2680  0.6037  0.6269
 1031TIP3    H124508   2.888   0.205   4.427  1.4255 -2.1904  1.7806
 1031TIP3    H224509   2.739   0.212   4.449  1.0500  0.1749 -0.8435
 1032TIP3   OH224510   3.661   3.009   4.004 -0.0543 -0.4232 -0.2096
 1032TIP3    H124511   3.756   3.018   4.009 -0.2263  1.5044  0.2913
 1032TIP3    H224512   3.646   2.914   4.007  1.7910 -0.7354  0.7773
 1033TIP3   OH224513   3.943   2.732   1.891 -0.2739  0.5629  0.6024
 1033TIP3    H124514   3.877   2.724   1.822  1.5676 -2.3345 -1.0409
 1033TIP3    H224515   4.023   2.755   1.845  0.9292 -1.0579  1.7471
 1034TIP3   OH224516   5.195   5.974  15.230  0.0780  0.3056  0.3876
 1034TIP3    H124517   5.257   6.007  15.164  0.4216 -1.1282 -0.0531
 1034TIP3    H224518   5.250   5.947  15.303 -0.2670  1.4437  1.0838
 1035TIP3   OH224519   1.491   1.273   6.302  0.2740  0.1796  0.0583
 1035TIP3    H124520   1.489   1.309   6.391  1.0756 -0.6049  0.4113
 1035TIP3    H224521   1.584   1.262   6.282  0.1148  0.7166 -1.0482
 1036TIP3   OH224522   4.717   0.128  16.937  0.5654 -0.3760 -0.3483
 1036TIP3    H124523   4.678   0.203  16.981 -0.1269 -0.2075 -1.2140
 1036TIP3    H224524   4.789   0.101  16.994 -0.1538 -0.0297  0.7556
 1037TIP3   OH224525   0.326   6.642  12.026  0.2130  0.0706  0.6996
 1037TIP3    H124526   0.351   6.695  12.102 -0.5347 -0.4537  1.3270
 1037TIP3    H224527   0.231   6.640  12.029 -0.0729  2.5177 -1.9740
 1038TIP3   OH224528   5.092   2.425  12.151  0.1750 -0.1708 -0.8955
 1038TIP3    H124529   5.148   2.484  12.202  1.1726 -0.3362 -1.7498
 1038TIP3    H224530   5.126   2.432  12.061  0.8382 -2.5832 -0.9134
 1039TIP3   OH224531   1.089   2.637   0.896 -0.6643 -0.4261  0.6078
 1039TIP3    H124532   1.016   2.696   0.881 -0.2702 -0.0841  0.0150
 1039TIP3    H224533   1.067   2.592   0.978 -0.6291  1.0594  1.4710
 1040TIP3   OH224534   1.711   6.262  15.701 -0.6083 -0.0485 -0.4315
 1040TIP3    H124535   1.664   6.328  15.650 -2.9634  0.6196  2.2787
 1040TIP3    H224536   1.773   6.313  15.754 -0.6990 -0.2758 -0.1045
 1041TIP3   OH224537   3.431   0.309  16.939  0.3345  0.7851  0.4566
 1041TIP3    H124538   3.400   0.261  17.016 -0.2078  1.0159  0.3911
 1041TIP3    H224539   3.441   0.243  16.871 -0.5027  0.7700  0.3372
 1042TIP3   OH224540   4.490   0.671  12.072 -0.2124 -0.4836  0.0438
 1042TIP3    H124541   4.528   0.693  12.158 -0.7649 -0.2137  0.2259
 1042TIP3    H224542   4.530   0.587  12.049 -0.7061 -1.0016  0.9791
 1043TIP3   OH224543   2.055   0.190  10.942  0.8224 -0.3119 -0.2838
 1043TIP3    H124544   2.143   0.228  10.941  0.2426  1.1892  1.0031
 1043TIP3    H224545   2.058   0.124  11.012  0.7808  0.1471  0.1562
 1044TIP3   OH224546   3.957   5.114  15.739 -0.2373  0.4341  0.3575
 1044TIP3    H124547   3.982   5.033  15.695  0.5153  0.7500  0.1805
 1044TIP3    H224548   3.992   5.105  15.827 -1.7178 -0.1848  0.9158
 1045TIP3   OH224549   4.805   3.985   4.205 -0.0791  0.3311  0.4713
 1045TIP3    H124550   4.744   3.956   4.137  0.9269  0.5651 -0.5667
 1045TIP3    H224551   4.750   4.029   4.270 -1.1382 -0.4704  0.1412
 1046TIP3   OH224552   5.815   0.659   0.930  0.4529 -0.8381 -0.0738
 1046TIP3    H124553   5.877   0.716   0.885  1.2629 -0.9704  0.8535
 1046TIP3    H224554   5.763   0.718   0.984  0.3543 -0.8276 -0.1793
 1047TIP3   OH224555   6.509   3.667   3.805  0.2944 -0.1520 -0.0040
 1047TIP3    H124556   6.450   3.624   3.867 -1.5648 -1.6327 -2.5968
 1047TIP3    H224557   6.490   3.760   3.815 -2.1045 -0.5477 -0.3028
 1048TIP3   OH224558   6.563   0.874  12.755 -0.3441  0.4936 -0.1515
 1048TIP3    H124559   6.575   0.910  12.842 -2.5287  0.3007  0.2754
 1048TIP3    H224560   6.587   0.782  12.763 -1.4560  0.2412  0.5277
 1049TIP3   OH224561   2.618   4.399   4.268 -0.0476  0.6499  0.9676
 1049TIP3    H124562   2.568   4.373   4.345 -0.9609  2.3652  1.0134
 1049TIP3    H224563   2.566   4.470   4.229  1.4345  1.2246 -0.0486
 1050TIP3   OH224564   2.640   4.066   5.850  0.4541 -0.2480  0.5383
 1050TIP3    H124565   2.678   4.005   5.913 -0.1412  0.3873  1.5346
 1050TIP3    H224566   2.695   4.058   5.772  0.8774 -1.4461  0.9382
 1051TIP3   OH224567   4.427   5.928   4.909 -0.0763 -0.2106 -0.3355
 1051TIP3    H124568   4.419   5.975   4.992 -0.7264 -0.6504 -0.1455
 1051TIP3    H224569   4.340   5.891   4.894 -0.0817  0.2108 -1.4222
 1052TIP3   OH224570   1.884   0.842   5.720 -0.9079  0.0117  0.1063
 1052TIP3    H124571   1.950   0.877   5.780 -1.0870  1.8403 -0.6870
 1052TIP3    H224572   1.831   0.783   5.774  0.9539 -1.0218  0.8994
 1053TIP3   OH224573   3.708   0.042  15.314 -0.3269  0.2559 -0.5891
 1053TIP3    H124574   3.770   0.028  15.385  0.7442 -2.1891 -1.8828
 1053TIP3    H224575   3.728   0.129  15.281  1.5751  0.0347 -0.1248
 1054TIP3   OH224576   0.214   3.584   2.738 -0.1387 -0.0506  0.1292
 1054TIP3    H124577   0.292   3.617   2.694 -1.4366  1.4117 -1.2143
 1054TIP3    H224578   0.217   3.489   2.723  1.5442 -0.0859  0.4424
 1055TIP3   OH224579   2.867   4.944  14.354 -0.0226 -0.3574 -0.0744
 1055TIP3    H124580   2.939   4.986  14.403 -1.3812 -0.7433  2.4093
 1055TIP3    H224581   2.894   4.852  14.346 -0.0807 -0.4390  0.5945
 1056TIP3   OH224582   4.568   5.940   0.285 -0.2062  0.0605  0.1798
 1056TIP3    H124583   4.625   5.864   0.294 -1.1259 -0.5408  1.1409
 1056TIP3    H224584   4.592   5.998   0.357  1.1371  1.1510 -1.0933
 1057TIP3   OH224585   6.126   6.506  13.897  0.1431 -0.3595  0.4313
 1057TIP3    H124586   6.054   6.567  13.885  1.0796  0.4508 -1.4997
 1057TIP3    H224587   6.190   6.554  13.949 -0.7160 -1.1438  2.3075
 1058TIP3   OH224588   3.880   1.649  12.614  0.0457 -0.4899 -0.2699
 1058TIP3    H124589   3.871   1.659  12.708  0.0240 -0.6287 -0.2569
 1058TIP3    H224590   3.791   1.645  12.581  0.0088  1.6419 -0.5283
 1059TIP3   OH224591   2.166   4.034   2.766 -0.2788 -0.0959 -0.4164
 1059TIP3    H124592   2.256   4.063   2.782 -1.3738  1.8571  3.4032
 1059TIP3    H224593   2.161   3.947   2.804  0.2799 -0.8382 -1.9615
 1060TIP3   OH224594   2.903   5.390  12.542  0.2682  0.0717 -0.2463
 1060TIP3    H124595   2.972   5.454  12.529 -0.0262  0.2255 -1.1506
 1060TIP3    H224596   2.842   5.431  12.603  1.8984 -0.8213  2.1506
 1061TIP3   OH224597   3.775   1.105  11.325  0.2378  0.0274 -0.1898
 1061TIP3    H124598   3.819   1.188  11.307  0.2997 -0.1466 -0.8820
 1061TIP3    H224599   3.775   1.097  11.420 -0.5207  1.2318 -0.0717
 1062TIP3   OH224600   1.243   4.624  11.308  0.3417  0.2439 -0.3331
 1062TIP3    H124601   1.197   4.547  11.341  0.8972  0.0923  0.0917
 1062TIP3    H224602   1.303   4.590  11.242 -0.0117  0.4225 -0.7574
 1063TIP3   OH224603   1.252   6.778   0.617  0.2118  0.0179  0.6895
 1063TIP3    H124604   1.246   6.683   0.608 -2.4471  0.2854 -2.0100
 1063TIP3    H224605   1.286   6.808   0.532  0.2893  1.5364  1.2261
 1064TIP3   OH224606   5.389   1.619   2.216  0.2693  0.1008 -0.0567
 1064TIP3    H124607   5.388   1.714   2.203 -0.2110  0.1090 -0.0019
 1064TIP3    H224608   5.462   1.603   2.276  1.3020  0.2648 -1.2503
 1065TIP3   OH224609   4.738   5.766  14.400  0.0298  1.3383  0.0156
 1065TIP3    H124610   4.682   5.800  14.470 -1.7173  0.0866 -0.7051
 1065TIP3    H224611   4.735   5.671  14.411  1.6446  1.2224 -0.3520
 1066TIP3   OH224612   5.648   5.247  12.276  0.5046 -0.4980  0.1102
 1066TIP3    H124613   5.727   5.259  12.223  0.6160 -0.0081  0.3870
 1066TIP3    H224614   5.637   5.330  12.322 -0.7964 -0.1740 -0.7556
 1067TIP3   OH224615   4.959   4.711   6.399  0.6564 -0.2329  0.2327
 1067TIP3    H124616   4.933   4.755   6.480 -0.4926 -1.3986  0.5219
 1067TIP3    H224617   4.996   4.627   6.427  0.9916 -0.3127 -0.4134
 1068TIP3   OH224618   2.193   5.537   3.194 -0.2233 -0.5766  0.7515
 1068TIP3    H124619   2.118   5.574   3.241  0.2062  1.1626  0.1331
 1068TIP3    H224620   2.251   5.611   3.179  1.3497 -1.7699  0.6594
 1069TIP3   OH224621   1.528   1.458  13.730 -0.9154  0.1743 -0.1282
 1069TIP3    H124622   1.607   1.411  13.755 -1.7992 -1.0568  0.4566
 1069TIP3    H224623   1.544   1.486  13.640  0.6165  0.9340  0.3526
 1070TIP3   OH224624   2.327   1.932  12.268 -0.0459  0.0040  0.0342
 1070TIP3    H124625   2.374   1.848  12.273 -0.0108  0.0048 -0.2883
 1070TIP3    H224626   2.296   1.947  12.357  1.3548  0.4490  0.4770
 1071TIP3   OH224627   6.672   0.051   6.239 -0.4788  0.1247  0.4215
 1071TIP3    H124628   6.748   0.027   6.291 -1.2944 -1.6390  0.8829
 1071TIP3    H224629   6.657  -0.025   6.183 -1.4280  0.7672 -0.2168
 1072TIP3   OH224630   4.090   1.809   0.275 -0.3130  0.0378 -0.0524
 1072TIP3    H124631   4.144   1.818   0.353 -0.0512  0.6494 -0.3002
 1072TIP3    H224632   4.125   1.873   0.213 -0.0072 -0.9711 -0.9672
 1073TIP3   OH224633   0.742   4.557  11.107  0.1797  0.7332 -0.0090
 1073TIP3    H124634   0.705   4.499  11.173  0.0487 -2.8839 -2.9046
 1073TIP3    H224635   0.833   4.530  11.100 -0.0780  0.2192 -1.9839
 1074TIP3   OH224636   1.492   1.606  11.167 -0.0159  0.3986 -0.2145
 1074TIP3    H124637   1.569   1.658  11.189  0.0955  0.2180 -0.1794
 1074TIP3    H224638   1.433   1.668  11.123 -0.0509  0.6512  0.1806
 1075TIP3   OH224639   2.660   2.559   2.868  0.3535 -0.1303  0.4470
 1075TIP3    H124640   2.735   2.568   2.927 -0.6546 -0.5208  1.8481
 1075TIP3    H224641   2.671   2.473   2.828  1.8976  0.7942 -1.2167
 1076TIP3   OH224642   3.551   6.234   4.502  0.1823  0.2645 -0.2890
 1076TIP3    H124643   3.583   6.314   4.460  2.6739  0.1519  1.2220
 1076TIP3    H224644   3.617   6.168   4.483 -1.5490 -1.3517 -1.0272
 1077TIP3   OH224645   4.898   4.607   5.855  0.0265 -0.5035 -0.2293
 1077TIP3    H124646   4.955   4.577   5.783 -0.4722 -2.0422 -0.0100
 1077TIP3    H224647   4.913   4.544   5.925 -0.5629  0.1651  0.5061
 1078TIP3   OH224648   0.830   6.232   5.365 -0.6960 -0.4909 -0.0193
 1078TIP3    H124649   0.867   6.159   5.316  0.3941  1.2933 -2.0199
 1078TIP3    H224650   0.905   6.271   5.409 -1.0131  0.2693 -0.1437
 1079TIP3   OH224651   3.963   6.159   3.456 -0.2742  0.0615 -0.0067
 1079TIP3    H124652   3.993   6.250   3.453 -0.3535  0.0623 -0.8588
 1079TIP3    H224653   3.867   6.166   3.459 -0.2611  0.0250  1.3547
 1080TIP3   OH224654   5.565   2.674  17.058 -0.9974 -0.1696 -0.4030
 1080TIP3    H124655   5.528   2.760  17.036  0.2950  0.9092  1.3109
 1080TIP3    H224656   5.570   2.674  17.153  2.6504 -0.4314 -0.4237
 1081TIP3   OH224657   3.951   3.194   5.137  0.8106 -0.8609 -0.3266
 1081TIP3    H124658   4.006   3.248   5.080 -0.7720 -0.2787 -1.3567
 1081TIP3    H224659   3.965   3.105   5.107  3.6392 -1.1681  1.5435
 1082TIP3   OH224660   6.671   2.954  14.636  0.0211 -0.3810 -0.3552
 1082TIP3    H124661   6.708   2.872  14.603  1.2399  0.5366 -1.3916
 1082TIP3    H224662   6.607   2.927  14.701  1.3156 -2.1372  0.2839
 1083TIP3   OH224663   2.087   1.630  12.149 -0.1099  0.4817  0.2201
 1083TIP3    H124664   2.026   1.658  12.080 -0.2249  1.8912  0.8706
 1083TIP3    H224665   2.034   1.631  12.229  0.0929 -0.8926  0.3935
 1084TIP3   OH224666   0.895   2.813   4.557 -0.2305  0.2044 -0.2462
 1084TIP3    H124667   0.865   2.727   4.585 -0.7481  0.0216 -1.3204
 1084TIP3    H224668   0.819   2.870   4.570 -0.0987  0.3609 -0.1637
 1085TIP3   OH224669   2.968   0.397   6.056 -0.1379  0.2265  0.2805
 1085TIP3    H124670   3.061   0.376   6.068 -0.2118  0.2256  0.8728
 1085TIP3    H224671   2.946   0.451   6.131 -1.1476 -1.4767  1.2674
 1086TIP3   OH224672   3.109   3.024  11.804  0.3336 -0.4031  0.1083
 1086TIP3    H124673   3.156   3.080  11.865  1.4451  0.4701 -1.4665
 1086TIP3    H224674   3.168   3.014  11.730 -1.5576 -0.0724 -1.5437
 1087TIP3   OH224675   5.168   5.897  16.042 -0.0196  0.4856 -0.4872
 1087TIP3    H124676   5.182   5.985  16.007 -0.4665  0.4413 -0.7805
 1087TIP3    H224677   5.075   5.881  16.030  0.0103  0.0778 -0.1813
 1088TIP3   OH224678   5.131   4.624  16.331 -1.1476 -0.3786  0.4075
 1088TIP3    H124679   5.180   4.706  16.318 -1.1121 -0.4342  0.1855
 1088TIP3    H224680   5.140   4.605  16.424 -0.7509 -0.3795  0.3717
 1089TIP3   OH224681   0.963   2.680   0.241 -0.1251  0.3127 -0.2242
 1089TIP3    H124682   1.001   2.638   0.318 -0.2101 -1.9268 -1.3233
 1089TIP3    H224683   0.899   2.617   0.209  1.1167  0.3410 -3.0852
 1090TIP3   OH224684   5.124   2.078   2.123  0.1261  0.1656  0.3452
 1090TIP3    H124685   5.174   2.113   2.198  1.9623 -1.8535  0.1721
 1090TIP3    H224686   5.102   2.155   2.071  2.2109  1.2831  1.0004
 1091TIP3   OH224687   4.977   3.544  13.157  0.2654  0.4402  0.0448
 1091TIP3    H124688   5.065   3.520  13.186  0.2653  0.2458 -0.1096
 1091TIP3    H224689   4.918   3.505  13.222  0.3211  1.1567  0.5292
 1092TIP3   OH224690   6.069   0.121  13.906 -0.0123 -0.0228 -0.1404
 1092TIP3    H124691   6.012   0.160  13.972  0.3597  1.1181 -0.4725
 1092TIP3    H224692   6.056   0.175  13.828  1.6172  0.3755 -0.1799
 1093TIP3   OH224693   6.741   4.911  10.695 -0.3887 -0.2018  0.7503
 1093TIP3    H124694   6.799   4.921  10.619  2.0605 -1.3541  2.3475
 1093TIP3    H224695   6.677   4.845  10.667 -0.5942  0.6287 -0.8467
 1094TIP3   OH224696   3.437   6.671   5.251 -0.1175 -0.1151 -0.6003
 1094TIP3    H124697   3.369   6.654   5.186  0.3617 -2.1371 -0.6395
 1094TIP3    H224698   3.519   6.649   5.207  0.1621 -2.2654  0.8543
 1095TIP3   OH224699   0.016   6.772   5.946 -0.9040 -0.1654 -0.1406
 1095TIP3    H124700   0.077   6.701   5.965 -1.8949 -1.0571 -0.1948
 1095TIP3    H224701   0.071   6.843   5.913  0.3049 -0.3115  1.4303
 1096TIP3   OH224702   5.219   4.778   5.612 -0.2746  0.1233  0.2588
 1096TIP3    H124703   5.178   4.865   5.615 -0.2021  0.1532  0.3982
 1096TIP3    H224704   5.201   4.746   5.524  3.4175  2.0807 -1.4389
 1097TIP3   OH224705   5.045   5.379  15.046  0.6106 -0.1778 -0.0982
 1097TIP3    H124706   5.092   5.302  15.015  1.3303  0.7235 -1.3670
 1097TIP3    H224707   4.988   5.403  14.972 -1.5159 -0.9334  1.1937
 1098TIP3   OH224708   0.322   0.003  16.177 -0.4673 -0.0490 -0.0266
 1098TIP3    H124709   0.409  -0.022  16.208  0.3528 -0.1564 -2.2166
 1098TIP3    H224710   0.275  -0.080  16.165  0.0284 -0.1812 -1.2019
 1099TIP3   OH224711   1.487   2.998   2.288  0.2593  0.4145  0.6654
 1099TIP3    H124712   1.490   2.904   2.304 -2.1309  0.1679  0.0782
 1099TIP3    H224713   1.555   3.014   2.222  0.7389 -0.8652  0.8301
 1100TIP3   OH224714   4.810   4.845  15.281 -0.4861 -0.4275  0.4230
 1100TIP3    H124715   4.806   4.933  15.243 -2.1802 -0.4599  0.4584
 1100TIP3    H224716   4.852   4.792  15.214  0.4229  0.3707  0.3433
 1101TIP3   OH224717   2.839   0.529  16.338 -0.5367  0.2744 -0.1148
 1101TIP3    H124718   2.828   0.458  16.275 -0.6896  0.9259 -0.8357
 1101TIP3    H224719   2.762   0.523  16.394 -0.7320  0.1019 -0.3996
 1102TIP3   OH224720   5.639   2.595  16.170 -0.2023  0.6707  0.6207
 1102TIP3    H124721   5.578   2.558  16.106  1.3282 -2.4036  0.7411
 1102TIP3    H224722   5.597   2.580  16.254  0.0009  0.0381  0.6116
 1103TIP3   OH224723   2.564   2.385  14.223  0.1801 -0.9477  0.1079
 1103TIP3    H124724   2.603   2.314  14.273  1.7253 -0.7100 -0.7165
 1103TIP3    H224725   2.637   2.426  14.177 -0.8453  0.4050 -0.4008
 1104TIP3   OH224726   5.395   3.801  11.038 -0.3681 -0.4391 -0.0825
 1104TIP3    H124727   5.434   3.816  10.951 -2.0968 -0.2858 -0.8802
 1104TIP3    H224728   5.470   3.784  11.095  1.0133  1.5896 -1.1452
 1105TIP3   OH224729   5.750   1.059  10.750 -0.0902 -0.6083  0.2621
 1105TIP3    H124730   5.799   1.136  10.779  0.6087 -0.8458 -0.2655
 1105TIP3    H224731   5.681   1.094  10.695 -0.7145 -0.2459  1.2565
 1106TIP3   OH224732   5.595   6.595  12.776  0.2903 -0.4154  0.1980
 1106TIP3    H124733   5.593   6.684  12.742 -2.7359 -0.0046  1.1964
 1106TIP3    H224734   5.589   6.606  12.871  1.6829 -1.6809  0.4646
 1107TIP3   OH224735   1.543   2.898  13.492  0.4903  0.1333  0.0482
 1107TIP3    H124736   1.540   2.922  13.399 -2.3878  0.7386  0.1873
 1107TIP3    H224737   1.538   2.803  13.492 -0.2941  0.1606 -0.4402
 1108TIP3   OH224738   6.324   1.675  15.456  0.1177 -0.2164 -0.1847
 1108TIP3    H124739   6.257   1.704  15.518  0.5534 -1.1509  0.7599
 1108TIP3    H224740   6.381   1.751  15.445  0.5261 -0.2736  1.2515
 1109TIP3   OH224741   1.542   3.931   3.376  0.1097  0.6597  0.2526
 1109TIP3    H124742   1.482   3.993   3.417 -0.0134  1.3380 -0.8935
 1109TIP3    H224743   1.587   3.982   3.309  0.1434 -0.4432 -0.6001
 1110TIP3   OH224744   1.713   0.729  11.009 -0.4347  0.3756  0.4861
 1110TIP3    H124745   1.713   0.775  10.925  0.1205  0.3563  0.4720
 1110TIP3    H224746   1.675   0.644  10.989 -0.0713  0.2772  0.1999
 1111TIP3   OH224747   1.026   5.486  13.168 -0.3009  0.1629 -0.1288
 1111TIP3    H124748   1.120   5.473  13.167 -0.2456  0.5974 -0.9243
 1111TIP3    H224749   0.993   5.417  13.227  0.4251 -0.4666 -0.4436
 1112TIP3   OH224750   5.796   0.744  12.691  0.2185 -1.0061  0.1738
 1112TIP3    H124751   5.735   0.703  12.629  0.8754  0.0938 -1.2565
 1112TIP3    H224752   5.864   0.783  12.636 -0.2509  1.8127  1.4172
 1113TIP3   OH224753   6.317   3.018   2.385 -0.2589 -0.0046  0.0547
 1113TIP3    H124754   6.321   2.936   2.336 -2.0341 -0.2685  0.2736
 1113TIP3    H224755   6.271   2.995   2.466  0.4482  0.9296  0.7465
 1114TIP3   OH224756   1.753   5.759  12.401  0.1523 -0.0861 -0.0240
 1114TIP3    H124757   1.675   5.711  12.430  0.6063 -0.9837 -0.2672
 1114TIP3    H224758   1.789   5.797  12.481 -0.8112  0.7625  0.0250
 1115TIP3   OH224759   1.482   3.166   5.837  0.0795  0.3047  0.7867
 1115TIP3    H124760   1.506   3.108   5.909 -1.2204  1.3031  2.0683
 1115TIP3    H224761   1.465   3.250   5.879  1.0033  1.3974 -0.9114
 1116TIP3   OH224762   1.144   4.616   3.924  0.4984 -0.2491  0.0831
 1116TIP3    H124763   1.122   4.526   3.900  0.8390 -0.4468  0.4815
 1116TIP3    H224764   1.221   4.637   3.871  0.3492 -0.1536 -0.0939
 1117TIP3   OH224765   5.013   2.706   3.588  0.0955 -0.2579 -0.0770
 1117TIP3    H124766   4.941   2.728   3.529 -0.5281  1.5389  1.2385
 1117TIP3    H224767   4.980   2.633   3.640 -0.8987  0.6244  0.5944
 1118TIP3   OH224768   0.025   5.883  12.462 -0.0789  0.3116 -0.2226
 1118TIP3    H124769  -0.022   5.865  12.544 -0.4140 -1.1038 -0.6915
 1118TIP3    H224770   0.092   5.947  12.487  2.1730 -2.6170  2.0509
 1119TIP3   OH224771   4.925   2.304   4.395  0.4488  0.3166  0.5815
 1119TIP3    H124772   4.841   2.272   4.426  0.2768  0.1927 -0.0076
 1119TIP3    H224773   4.967   2.228   4.355  0.2355  0.7036 -0.4059
 1120TIP3   OH224774   4.526   6.757  14.232  0.1153  0.1176 -0.1033
 1120TIP3    H124775   4.472   6.679  14.230 -1.6567  1.2955 -0.1056
 1120TIP3    H224776   4.570   6.754  14.317 -1.0506 -0.1619  0.5061
 1121TIP3   OH224777   0.585   2.565   3.578 -0.4746 -0.3473  0.1445
 1121TIP3    H124778   0.578   2.640   3.636  1.1591  0.6666 -0.8825
 1121TIP3    H224779   0.679   2.553   3.564 -0.6207 -3.0720  0.8421
 1122TIP3   OH224780   4.702   2.773   2.752 -0.1220 -0.1621 -0.5675
 1122TIP3    H124781   4.712   2.752   2.845 -2.6906 -1.2866 -0.4630
 1122TIP3    H224782   4.646   2.850   2.750 -0.2247 -0.2427 -1.1723
 1123TIP3   OH224783   6.167   0.856   4.843 -0.4634 -0.0542 -0.4939
 1123TIP3    H124784   6.102   0.789   4.819  2.5881 -2.5874 -2.5050
 1123TIP3    H224785   6.181   0.842   4.937 -0.9009 -1.3438 -0.5902
 1124TIP3   OH224786   5.740   3.985   0.140  0.2448 -0.1061 -0.9584
 1124TIP3    H124787   5.653   3.949   0.157  0.1299 -0.3975 -2.0418
 1124TIP3    H224788   5.786   3.977   0.223 -1.1457  1.2151  0.0051
 1125TIP3   OH224789   6.570   2.942  14.943  0.0979 -0.3527  0.3541
 1125TIP3    H124790   6.558   2.875  15.010  1.0477  1.7807  2.8354
 1125TIP3    H224791   6.653   2.984  14.966 -0.3090  1.4712 -1.2690
 1126TIP3   OH224792   0.589   3.431   6.468 -0.1141 -0.3590 -0.2168
 1126TIP3    H124793   0.619   3.421   6.559  1.7071 -2.1465 -0.9347
 1126TIP3    H224794   0.617   3.519   6.444 -0.2160 -0.0269  0.8061
 1127TIP3   OH224795   2.546   3.420   0.047 -0.1634 -0.2998  0.5388
 1127TIP3    H124796   2.541   3.509   0.013 -0.3263 -0.7583 -0.6660
 1127TIP3    H224797   2.530   3.429   0.141 -0.0966  0.9417  0.4400
 1128TIP3   OH224798   2.206   4.384   3.536  0.2505 -0.1439 -0.0685
 1128TIP3    H124799   2.180   4.475   3.549 -2.3728 -0.8758  0.2498
 1128TIP3    H224800   2.208   4.373   3.441 -3.5998 -0.7121 -0.2449
 1129TIP3   OH224801   3.362   1.257   4.391  0.0040  0.2354  0.7549
 1129TIP3    H124802   3.294   1.214   4.339  0.5977 -1.6188  1.4221
 1129TIP3    H224803   3.417   1.301   4.327  0.4387 -1.5930 -0.1914
 1130TIP3   OH224804   1.122   0.667   2.423  0.2006  0.5569  0.0019
 1130TIP3    H124805   1.144   0.604   2.354  1.8634  1.3410 -0.2380
 1130TIP3    H224806   1.195   0.661   2.485 -1.2525 -0.1280  1.7389
 1131TIP3   OH224807   1.052   6.430  14.472  0.3561 -0.5020  0.2574
 1131TIP3    H124808   1.116   6.454  14.405 -0.7840  1.1241 -0.3171
 1131TIP3    H224809   1.073   6.485  14.547  0.9712 -1.5634  0.8919
 1132TIP3   OH224810   3.789   6.209  13.899  0.5045  0.5959  0.4576
 1132TIP3    H124811   3.785   6.295  13.857  0.5624  0.4907  0.2362
 1132TIP3    H224812   3.764   6.147  13.830 -0.9397  0.5458  0.9978
 1133TIP3   OH224813   6.327   1.914  16.474  0.2594  0.0663 -0.0639
 1133TIP3    H124814   6.405   1.873  16.437 -0.2651 -0.3561 -0.7304
 1133TIP3    H224815   6.273   1.841  16.503  0.7427  0.3896  1.7746
 1134TIP3   OH224816   1.121   3.165   3.474 -0.3951  0.2971  0.1583
 1134TIP3    H124817   1.086   3.253   3.486  0.2142  0.6378 -0.4730
 1134TIP3    H224818   1.055   3.107   3.512 -1.1232  0.9866 -0.0333
 1135TIP3   OH224819   6.068   5.745   4.342  0.4016 -0.3382 -0.2470
 1135TIP3    H124820   6.146   5.793   4.316 -0.0565 -1.1554 -3.6671
 1135TIP3    H224821   6.042   5.784   4.426  1.0294  4.2066 -1.8577
 1136TIP3   OH224822   0.074   5.974   1.187 -0.2803  0.9609  0.5744
 1136TIP3    H124823   0.008   5.974   1.256 -0.3825  0.0600  0.4889
 1136TIP3    H224824   0.157   5.958   1.232 -0.5207 -1.0837  0.3628
 1137TIP3   OH224825   4.007   1.565   2.325  0.0886 -0.4035  0.6209
 1137TIP3    H124826   3.993   1.644   2.272 -0.9474 -0.4053  0.8841
 1137TIP3    H224827   4.101   1.564   2.341  0.9569 -1.7187 -3.3010
 1138TIP3   OH224828   4.442   3.427  16.388 -0.5968  0.6557 -0.4427
 1138TIP3    H124829   4.513   3.490  16.384  0.5678 -0.4780  0.8603
 1138TIP3    H224830   4.376   3.459  16.327  0.3352  2.6113 -0.4711
 1139TIP3   OH224831   4.494   5.676  12.001  0.2291 -0.0831 -0.3518
 1139TIP3    H124832   4.475   5.628  12.082  1.6149  0.1116  0.1170
 1139TIP3    H224833   4.516   5.764  12.031  1.5399 -0.2175 -0.8599
 1140TIP3   OH224834   6.063   1.938   5.107 -0.2669  0.0286  0.6874
 1140TIP3    H124835   5.979   1.895   5.095 -0.2290 -0.0899  0.8410
 1140TIP3    H224836   6.045   2.012   5.165 -0.5579  0.9485 -0.5325
 1141TIP3   OH224837   2.403   0.119  13.467  0.1366 -0.3071  0.4164
 1141TIP3    H124838   2.333   0.105  13.403 -0.3677  1.9582  0.4052
 1141TIP3    H224839   2.484   0.110  13.416 -0.2454  0.9607 -0.4784
 1142TIP3   OH224840   1.236   2.827  11.415  0.4213  0.5904 -0.3525
 1142TIP3    H124841   1.270   2.902  11.367 -0.8995  2.3241  1.2809
 1142TIP3    H224842   1.296   2.817  11.489 -1.5978  2.7240  1.7105
 1143TIP3   OH224843   4.769   3.880  11.145 -0.3535  0.0849 -0.6185
 1143TIP3    H124844   4.745   3.801  11.194 -0.8688  1.2094  1.0018
 1143TIP3    H224845   4.747   3.859  11.054 -2.0597 -1.0334  0.0080
 1144TIP3   OH224846   0.749   3.587  13.001 -0.1614 -0.0283 -0.1856
 1144TIP3    H124847   0.750   3.660  12.940 -0.6086  1.7620  1.8234
 1144TIP3    H224848   0.660   3.585  13.036 -0.1468 -1.5316 -0.1552
 1145TIP3   OH224849   1.260   0.491   4.696 -0.5424  0.3315  0.5940
 1145TIP3    H124850   1.321   0.551   4.654 -1.0387  1.3312  1.2541
 1145TIP3    H224851   1.314   0.416   4.723  0.5926  1.5517  1.9115
 1146TIP3   OH224852   5.949   1.932   3.301 -0.2943 -0.3448  0.4493
 1146TIP3    H124853   5.924   1.878   3.226 -1.2353 -1.0073  1.2278
 1146TIP3    H224854   6.005   2.000   3.263  0.8450 -1.7846 -0.5695
 1147TIP3   OH224855   1.981   5.165  11.454 -0.4893 -0.5708 -0.0197
 1147TIP3    H124856   1.960   5.258  11.458  0.6266 -0.3042  0.1139
 1147TIP3    H224857   2.051   5.160  11.390 -1.3088 -1.4833 -0.8589
 1148TIP3   OH224858   4.759   1.231   2.861  0.4644  0.5140  0.0172
 1148TIP3    H124859   4.842   1.275   2.879  0.3987  0.5245  0.3006
 1148TIP3    H224860   4.776   1.139   2.883  0.2916  0.5801  0.4478
 1149TIP3   OH224861   4.969   5.338  12.831 -0.0611 -0.1782 -0.5251
 1149TIP3    H124862   4.897   5.353  12.892 -0.4540 -2.0275 -0.4802
 1149TIP3    H224863   5.032   5.285  12.881  1.2782  1.2546 -0.6215
 1150TIP3   OH224864   1.106   1.056   4.828  0.4481 -0.0618  0.2585
 1150TIP3    H124865   1.122   1.149   4.843  0.1528  0.0433 -0.0657
 1150TIP3    H224866   1.144   1.012   4.905 -0.4708  0.4026  0.9892
 1151TIP3   OH224867   4.948   2.439  12.807  0.2397  0.0659  0.5554
 1151TIP3    H124868   4.873   2.474  12.854 -1.2411 -2.3279  0.1320
 1151TIP3    H224869   4.965   2.354  12.848  1.6391 -0.1886 -0.4610
 1152TIP3   OH224870   4.327   6.253  14.760 -0.1108  0.0917  0.1418
 1152TIP3    H124871   4.402   6.301  14.797  0.6769 -1.2266  0.3087
 1152TIP3    H224872   4.255   6.316  14.764  1.1109  1.6288 -0.6105
 1153TIP3   OH224873   2.066   0.456   1.265 -0.0628 -0.3075  0.0225
 1153TIP3    H124874   2.002   0.485   1.200 -0.8107  0.4845  1.0757
 1153TIP3    H224875   2.151   0.473   1.225 -0.4856  1.8064 -0.1083
 1154TIP3   OH224876   3.057   5.458   1.182 -0.3504 -0.2456  0.2199
 1154TIP3    H124877   2.980   5.507   1.211  0.6756  1.6349 -0.0648
 1154TIP3    H224878   3.107   5.442   1.262 -0.7706 -1.0362  0.3374
 1155TIP3   OH224879   5.477   4.812  13.629  0.5044 -0.1629 -0.8579
 1155TIP3    H124880   5.493   4.790  13.721  0.8265 -1.1082 -1.1311
 1155TIP3    H224881   5.392   4.856  13.630  0.4229 -0.3170 -0.1343
 1156TIP3   OH224882   3.215   1.106   3.657  0.3560 -0.4394  0.2113
 1156TIP3    H124883   3.239   1.163   3.730  0.6033  1.6696 -1.4025
 1156TIP3    H224884   3.298   1.093   3.610  0.1818 -1.6819  0.2194
 1157TIP3   OH224885   2.976   1.014   2.541 -0.1398 -0.3593 -0.7111
 1157TIP3    H124886   2.966   0.919   2.534 -1.1034 -0.2983 -0.3370
 1157TIP3    H224887   3.018   1.028   2.625  0.2738 -0.4670 -0.8985
 1158TIP3   OH224888   5.397   0.274  16.255 -0.2752  0.2454  0.2519
 1158TIP3    H124889   5.463   0.314  16.311  0.0593  1.2115 -0.7929
 1158TIP3    H224890   5.393   0.331  16.178 -2.5174  0.3819  0.3972
 1159TIP3   OH224891   4.224   5.653   0.341  0.4909  0.3525  0.5283
 1159TIP3    H124892   4.268   5.694   0.415  2.2901 -0.7592  0.1301
 1159TIP3    H224893   4.283   5.666   0.267 -0.0107 -0.8477 -0.1177
 1160TIP3   OH224894   3.790   5.683   0.675 -0.3670  0.1495 -0.1017
 1160TIP3    H124895   3.879   5.647   0.668  0.6496  2.4495  0.1693
 1160TIP3    H224896   3.734   5.611   0.647  1.5129 -1.6081  0.3358
 1161TIP3   OH224897   4.819   5.139   0.864 -1.6220  0.0647 -0.3672
 1161TIP3    H124898   4.826   5.084   0.941  1.1297 -0.1026 -0.6674
 1161TIP3    H224899   4.821   5.077   0.790  0.7624  0.4337 -0.6792
 1162TIP3   OH224900   3.472   6.591  14.465 -0.3946  0.2253 -0.0327
 1162TIP3    H124901   3.541   6.536  14.427 -0.3349 -0.2714  0.7707
 1162TIP3    H224902   3.414   6.612  14.392  0.8730  1.0764 -0.8354
 1163TIP3   OH224903   2.279   1.740  15.831  0.0481 -0.3090  0.1683
 1163TIP3    H124904   2.184   1.736  15.827 -0.2196  3.1202 -0.3715
 1163TIP3    H224905   2.300   1.829  15.802  3.3254 -0.4244  1.7473
 1164TIP3   OH224906   5.458   6.351  12.498  0.0090  0.5320 -0.4037
 1164TIP3    H124907   5.409   6.272  12.477  0.1329  0.5254 -0.6666
 1164TIP3    H224908   5.399   6.423  12.474 -0.2387  0.5183  0.1581
 1165TIP3   OH224909   4.933   0.077   2.088 -0.7046  0.0076  0.0663
 1165TIP3    H124910   4.875   0.080   2.164 -0.9342 -1.3654 -0.0247
 1165TIP3    H224911   4.948   0.169   2.065 -1.2961  0.4219  1.2587
 1166TIP3   OH224912   1.370   2.755   0.791 -0.5193 -0.0637  0.4461
 1166TIP3    H124913   1.287   2.707   0.792 -0.1282 -0.7550  1.2285
 1166TIP3    H224914   1.376   2.795   0.878  0.3123 -0.6507  0.6707
 1167TIP3   OH224915   3.878   2.314   0.748  0.6914 -0.1579 -0.3616
 1167TIP3    H124916   3.837   2.395   0.716 -1.4480 -1.4926 -1.3030
 1167TIP3    H224917   3.854   2.248   0.682 -0.1261 -2.1499  1.7808
 1168TIP3   OH224918   6.152   1.687   0.395  0.5491 -0.4576 -0.4399
 1168TIP3    H124919   6.205   1.704   0.317 -1.2805 -0.0905 -1.6679
 1168TIP3    H224920   6.155   1.592   0.406  3.0429 -0.3117  0.7394
 1169TIP3   OH224921   1.569   1.914  15.831 -0.0583  0.4362 -0.4633
 1169TIP3    H124922   1.558   1.880  15.742 -1.9206  0.3538 -0.2324
 1169TIP3    H224923   1.627   1.851  15.873  0.7253  0.3925 -1.5561
 1170TIP3   OH224924   6.162   5.251  11.067 -0.1000 -0.4021  0.2861
 1170TIP3    H124925   6.242   5.215  11.105  1.5636  1.7208 -0.9793
 1170TIP3    H224926   6.114   5.175  11.034  1.2868 -1.7400  1.2397
 1171TIP3   OH224927   0.044   3.915   4.767 -0.4179  0.3236  0.0315
 1171TIP3    H124928   0.004   3.977   4.707 -0.5684 -0.2232 -0.4333
 1171TIP3    H224929   0.097   3.858   4.711 -0.8418 -0.4123  0.3717
 1172TIP3   OH224930   1.063   2.556   1.194  0.0153  0.1466  0.3143
 1172TIP3    H124931   1.121   2.487   1.228 -0.3946  0.0080  0.7420
 1172TIP3    H224932   0.999   2.570   1.264 -2.1821 -1.6629 -1.1881
 1173TIP3   OH224933   3.468   6.241   2.367 -0.0558  0.1505 -0.0976
 1173TIP3    H124934   3.373   6.252   2.365 -0.3758 -1.8829  1.1430
 1173TIP3    H224935   3.486   6.180   2.295  0.6176  2.0122 -1.6008
 1174TIP3   OH224936   5.755   4.144  14.618 -0.2625  0.1478  0.2294
 1174TIP3    H124937   5.730   4.054  14.600  2.7754 -1.3074  2.4262
 1174TIP3    H224938   5.819   4.166  14.550 -1.7548  1.1255 -0.9280
 1175TIP3   OH224939   0.284   6.155   2.395 -0.0160 -1.0372  0.0344
 1175TIP3    H124940   0.351   6.108   2.445  0.7158 -1.0053 -0.8997
 1175TIP3    H224941   0.265   6.099   2.320  0.9050  0.1332 -1.1312
 1176TIP3   OH224942   3.320   2.861   0.240 -0.1908  0.4788 -0.3340
 1176TIP3    H124943   3.354   2.795   0.300  0.0386 -1.6600 -2.6767
 1176TIP3    H224944   3.388   2.929   0.237  0.4355 -0.0850  0.6916
 1177TIP3   OH224945   0.150   4.107   4.255  0.1950 -0.6912 -0.4458
 1177TIP3    H124946   0.109   4.067   4.331  0.2719 -3.3338 -1.6580
 1177TIP3    H224947   0.076   4.133   4.199  0.0923 -2.1678 -1.0490
 1178TIP3   OH224948   4.937   1.618  15.719 -0.5957  0.7635 -0.0969
 1178TIP3    H124949   4.937   1.648  15.628  0.6420  1.3234  0.0629
 1178TIP3    H224950   4.969   1.528  15.714 -1.1123  0.5857 -0.2660
 1179TIP3   OH224951   4.994   2.553   2.729 -0.4837 -0.4826  0.2349
 1179TIP3    H124952   4.932   2.624   2.712 -0.3935 -0.4346  0.1047
 1179TIP3    H224953   5.072   2.597   2.764 -1.8011 -0.8054  4.0877
 1180TIP3   OH224954   1.365   5.201   3.859 -0.1515 -0.3139  0.0757
 1180TIP3    H124955   1.344   5.121   3.812  1.3585 -0.5230 -0.2612
 1180TIP3    H224956   1.460   5.203   3.864 -0.1944  0.9577  0.9577
 1181TIP3   OH224957   1.320   4.722   4.127 -0.2460 -0.1717  0.7496
 1181TIP3    H124958   1.265   4.659   4.081 -0.7812  0.0003  1.1416
 1181TIP3    H224959   1.394   4.738   4.068 -0.4786 -0.6115  0.3386
 1182TIP3   OH224960   6.170   3.725  15.170  0.0230 -0.5342  0.2611
 1182TIP3    H124961   6.222   3.651  15.138  1.3792  0.8075 -0.8041
 1182TIP3    H224962   6.085   3.715  15.126  0.7905 -0.5189 -1.3255
 1183TIP3   OH224963   2.362   2.920   4.430 -0.2488  0.4561  0.2514
 1183TIP3    H124964   2.389   2.981   4.500 -0.4361  2.1817 -1.1022
 1183TIP3    H224965   2.357   2.975   4.352 -2.3163 -0.9287 -0.6668
 1184TIP3   OH224966   2.559   6.526  12.983  0.3187 -0.0105 -0.1627
 1184TIP3    H124967   2.601   6.462  13.040 -0.1305 -2.1903 -2.1258
 1184TIP3    H224968   2.630   6.583  12.955  1.3823 -1.5537 -0.7474
 1185TIP3   OH224969   3.442   5.650  11.669 -0.5296 -0.6187  0.8501
 1185TIP3    H124970   3.501   5.712  11.712 -0.1722  0.7951 -1.5093
 1185TIP3    H224971   3.498   5.601  11.609 -1.2133 -1.6602  1.0376
 1186TIP3   OH224972   6.291   2.906  13.169  0.3627  0.0984 -0.4151
 1186TIP3    H124973   6.385   2.918  13.152  0.1175  0.5264 -1.5284
 1186TIP3    H224974   6.283   2.815  13.198  1.3103  0.4786  1.1799
 1187TIP3   OH224975   0.408   4.225  13.876  0.2117  0.2240 -0.7111
 1187TIP3    H124976   0.406   4.132  13.852 -2.5349  0.2018 -0.6613
 1187TIP3    H224977   0.436   4.269  13.796  1.7728 -0.6025 -0.6712
 1188TIP3   OH224978   3.768   0.538   2.738  0.2413 -0.2102 -0.4717
 1188TIP3    H124979   3.812   0.604   2.684  0.7334  0.6238  0.8889
 1188TIP3    H224980   3.682   0.528   2.698 -1.2895  3.9144  1.2137
 1189TIP3   OH224981   6.125   4.979   6.604  0.0811 -0.4697 -0.5664
 1189TIP3    H124982   6.160   5.009   6.688 -2.0950  1.5068 -0.2603
 1189TIP3    H224983   6.111   5.059   6.554 -0.2798 -1.4871 -2.1545
 1190TIP3   OH224984   6.397   0.677   3.715  0.8129 -0.1425  0.1860
 1190TIP3    H124985   6.318   0.624   3.716  0.0972  0.7893 -1.7280
 1190TIP3    H224986   6.371   0.762   3.751  0.9505  0.1535 -0.4037
 1191TIP3   OH224987   2.066   5.697  14.303  0.5180  0.2029  0.3786
 1191TIP3    H124988   1.992   5.757  14.307 -0.2138 -0.3586 -2.5314
 1191TIP3    H224989   2.142   5.754  14.292  0.2346  0.6880  0.8584
 1192TIP3   OH224990   4.218   2.755   5.662  0.2732 -0.5759 -0.1816
 1192TIP3    H124991   4.194   2.667   5.634 -0.1855 -0.7059  0.5875
 1192TIP3    H224992   4.189   2.811   5.590 -3.1201 -0.6508  0.9439
 1193TIP3   OH224993   4.406   2.342  15.847  0.1877  0.2600 -0.6130
 1193TIP3    H124994   4.397   2.264  15.902  2.0967  1.3321  1.3821
 1193TIP3    H224995   4.355   2.409  15.891 -1.2260  0.2696 -2.1749
 1194TIP3   OH224996   3.682   0.527   3.681 -0.3469 -0.3579 -0.4499
 1194TIP3    H124997   3.734   0.603   3.655  0.4525 -0.8476 -0.3366
 1194TIP3    H224998   3.724   0.453   3.636  0.0240 -0.9782  0.8626
 1195TIP3   OH224999   2.223   1.825   2.843 -0.0756 -0.2628  0.1763
 1195TIP3    H125000   2.208   1.790   2.931 -1.2961 -0.9100 -0.2686
 1195TIP3    H225001   2.163   1.899   2.836  1.5900  1.2049  0.6519
 1196TIP3   OH225002   2.906   5.913   5.596  0.4874 -0.6386 -0.3268
 1196TIP3    H125003   2.904   5.971   5.673 -0.7909 -0.5675 -0.3795
 1196TIP3    H225004   2.994   5.876   5.596  1.9894  2.5556 -1.2405
 1197TIP3   OH225005   2.530   5.621   5.302  0.1461 -0.1674  0.4363
 1197TIP3    H125006   2.577   5.702   5.318 -0.1481  0.1274 -0.1447
 1197TIP3    H225007   2.595   5.563   5.263 -0.1787  0.5848 -1.3383
 1198TIP3   OH225008   1.577   3.271  15.276 -0.1004  0.2651 -0.6833
 1198TIP3    H125009   1.568   3.256  15.182  0.8666 -0.5767 -0.6601
 1198TIP3    H225010   1.498   3.235  15.315  0.5846 -1.6873 -0.9668
 1199TIP3   OH225011   6.298   5.664   2.494  0.2169  0.2107  0.3161
 1199TIP3    H125012   6.225   5.657   2.556  1.0283 -1.0291  1.1833
 1199TIP3    H225013   6.278   5.742   2.442 -1.3512  0.3097  1.0102
 1200TIP3   OH225014   1.392   2.058  12.714  0.2356  0.1423  0.2733
 1200TIP3    H125015   1.365   1.994  12.648 -0.7133 -0.6778  1.4120
 1200TIP3    H225016   1.310   2.096  12.745  0.6513  0.3755  1.1036
 1201TIP3   OH225017   4.003   5.240   4.630 -0.0277  0.7088  0.4102
 1201TIP3    H125018   4.006   5.208   4.540  0.6606  1.0561  0.3048
 1201TIP3    H225019   4.072   5.191   4.675  0.4736  1.4306  0.4451
 1202TIP3   OH225020   3.172   2.176  12.574  0.0204  0.2711 -0.1667
 1202TIP3    H125021   3.121   2.142  12.500 -1.6899  0.4844  0.8504
 1202TIP3    H225022   3.122   2.150  12.651  1.6664  0.2179  0.9206
 1203TIP3   OH225023   3.204   5.917  13.652  0.1931  0.2897  0.1709
 1203TIP3    H125024   3.250   5.842  13.692 -1.3081 -1.7670 -1.7032
 1203TIP3    H225025   3.264   5.946  13.583  0.3466  0.1427  0.2387
 1204TIP3   OH225026   0.140   2.960   5.430  0.6201  0.5879 -0.5016
 1204TIP3    H125027   0.197   2.884   5.419 -0.5297 -0.2407 -0.9461
 1204TIP3    H225028   0.115   2.984   5.341 -2.5742 -1.3347 -0.2783
 1205TIP3   OH225029   6.558   4.163   5.126 -0.2689  0.0849 -0.0707
 1205TIP3    H125030   6.533   4.165   5.033  1.5958  0.3381 -0.6075
 1205TIP3    H225031   6.488   4.113   5.168 -3.0974  3.0107 -0.9261
 1206TIP3   OH225032   2.598   3.860   3.595 -0.0255 -0.0950  0.3158
 1206TIP3    H125033   2.643   3.778   3.619  1.2638  0.6008  0.3692
 1206TIP3    H225034   2.668   3.925   3.589 -0.9374  0.8506 -0.4824
 1207TIP3   OH225035   4.299   2.388   3.684  0.1541  0.8292 -0.0069
 1207TIP3    H125036   4.301   2.465   3.740 -0.0406  1.9148 -1.4589
 1207TIP3    H225037   4.357   2.409   3.611  1.4000 -1.0605  0.3637
 1208TIP3   OH225038   3.314   5.433   2.393  0.2662  0.0352  0.4649
 1208TIP3    H125039   3.279   5.344   2.402 -1.2129  0.3779 -1.2607
 1208TIP3    H225040   3.393   5.423   2.340  0.2836 -0.2919  0.5531
 1209TIP3   OH225041   6.058   3.299  11.904  0.1417 -0.8572  0.3850
 1209TIP3    H125042   6.097   3.314  11.990  0.0976 -1.4153  0.5036
 1209TIP3    H225043   6.071   3.205  11.887 -0.3592 -0.8668  0.0352
 1210TIP3   OH225044   2.798   2.965   1.991  0.8486 -0.6309 -0.2240
 1210TIP3    H125045   2.890   2.958   2.014  1.2018  0.0499 -1.3454
 1210TIP3    H225046   2.788   3.054   1.958 -0.7926  0.1961  2.2712
 1211TIP3   OH225047   0.281   5.080   3.291 -0.0085  0.1775 -0.0893
 1211TIP3    H125048   0.211   5.072   3.355 -0.1989 -2.0300 -0.4603
 1211TIP3    H225049   0.236   5.086   3.206  0.2354  0.3538 -0.2077
 1212TIP3   OH225050   0.081   5.389  13.408  0.3936 -0.2612 -0.2173
 1212TIP3    H125051   0.058   5.376  13.316  0.8481 -1.6682 -0.1523
 1212TIP3    H225052   0.056   5.479  13.427 -0.8516 -0.3361 -1.3833
 1213TIP3   OH225053   2.208   1.971  10.701  0.1425  0.1843  0.4531
 1213TIP3    H125054   2.126   1.935  10.668  0.0271  1.1321 -0.3414
 1213TIP3    H225055   2.183   2.018  10.781  0.2909 -1.3995  1.4870
 1214TIP3   OH225056   2.443   6.688  16.124 -0.2334  0.1403 -0.2993
 1214TIP3    H125057   2.438   6.644  16.208  2.0150  1.8428  0.8555
 1214TIP3    H225058   2.503   6.635  16.072  0.2204  0.3015  0.0510
 1215TIP3   OH225059   1.656   5.761   0.707  0.2025  0.2301  0.2299
 1215TIP3    H125060   1.565   5.743   0.683  0.8744 -1.9318 -0.9473
 1215TIP3    H225061   1.656   5.759   0.803 -0.9449  0.0614  0.2405
 1216TIP3   OH225062   5.920   6.051  11.587  0.4622 -0.1908 -0.3601
 1216TIP3    H125063   5.940   6.015  11.673  0.2587 -0.8129 -0.5591
 1216TIP3    H225064   5.907   5.973  11.532  0.5750  0.1991 -0.9436
 1217TIP3   OH225065   1.750   1.996   4.017  0.1982  0.9639  0.1276
 1217TIP3    H125066   1.830   1.960   3.979  0.0954 -0.1919  0.9572
 1217TIP3    H225067   1.726   2.068   3.958  1.5037  0.9438 -0.4634
 1218TIP3   OH225068   2.273   1.999  13.254  0.0928  0.3446 -0.6917
 1218TIP3    H125069   2.210   2.023  13.186  0.6360 -0.3265 -1.4536
 1218TIP3    H225070   2.338   1.945  13.208 -1.0551 -2.6252  0.8497
 1219TIP3   OH225071   3.155   2.113  14.786 -0.3436 -0.2863  0.6909
 1219TIP3    H125072   3.096   2.175  14.829  1.6463  0.5569  2.3858
 1219TIP3    H225073   3.240   2.158  14.784  0.8340 -2.3823  0.5967
 1220TIP3   OH225074   4.226   5.283  16.494  0.2379 -0.1713  0.4468
 1220TIP3    H125075   4.144   5.252  16.455 -1.0160  1.6385  1.5159
 1220TIP3    H225076   4.204   5.302  16.585  1.4452  1.7396  0.4042
 1221TIP3   OH225077   6.453   6.147   3.172  0.0484  0.0052 -0.2457
 1221TIP3    H125078   6.539   6.155   3.132 -1.0779  1.0866 -2.6046
 1221TIP3    H225079   6.448   6.219   3.235  0.3253  0.9078 -1.2277
 1222TIP3   OH225080   3.552   3.467   5.597 -0.2037  0.4739  0.2936
 1222TIP3    H125081   3.502   3.544   5.571  1.1447  1.7232  1.1980
 1222TIP3    H225082   3.582   3.487   5.686  2.0057 -0.1013 -0.2473
 1223TIP3   OH225083   4.713   3.280  17.064  0.0525 -0.5394  0.2706
 1223TIP3    H125084   4.741   3.218  16.997 -2.0722 -0.4136 -0.8080
 1223TIP3    H225085   4.755   3.362  17.040  1.8461 -1.1960  0.9718
 1224TIP3   OH225086   0.764   3.658   5.474 -0.2554  0.1744  0.3503
 1224TIP3    H125087   0.831   3.590   5.477 -1.0065 -0.5455  1.0514
 1224TIP3    H225088   0.779   3.703   5.391  0.0973 -0.9968 -0.2327
 1225TIP3   OH225089   5.509   0.048  16.427  0.0210  0.1100 -0.4368
 1225TIP3    H125090   5.467  -0.012  16.366  1.2801 -0.5140 -0.7364
 1225TIP3    H225091   5.586   0.080  16.379  1.4739 -0.9858  1.0357
 1226TIP3   OH225092   6.251   6.092  16.791 -0.3442 -0.0021  0.2567
 1226TIP3    H125093   6.218   6.180  16.771  2.0609  0.8524 -0.3570
 1226TIP3    H225094   6.293   6.102  16.877  0.4957 -0.3714 -0.1057
 1227TIP3   OH225095   3.788   1.940   3.748 -0.5806  0.0408  0.1096
 1227TIP3    H125096   3.819   1.995   3.820  0.9874  0.6167 -0.9510
 1227TIP3    H225097   3.768   2.002   3.678  0.7646 -0.6969 -0.9455
 1228TIP3   OH225098   2.168   5.593   3.560 -0.6876 -0.2073 -0.6021
 1228TIP3    H125099   2.076   5.589   3.589 -0.2307  1.0519  1.1899
 1228TIP3    H225100   2.191   5.502   3.542 -1.7873 -0.7575  0.5957
 1229TIP3   OH225101   4.275   0.875  16.417  0.0322  0.8954 -0.1443
 1229TIP3    H125102   4.240   0.953  16.374 -1.5900  0.5605  0.5065
 1229TIP3    H225103   4.287   0.812  16.346 -0.2384  1.1751 -0.4441
 1230TIP3   OH225104   3.779   1.272  15.761  0.0658  0.0505  0.0341
 1230TIP3    H125105   3.805   1.363  15.778  1.7286 -0.3380 -0.2365
 1230TIP3    H225106   3.852   1.220  15.795 -1.2848 -1.2553  1.0447
 1231TIP3   OH225107   6.368   5.142   3.076 -0.2008  0.1314  0.2502
 1231TIP3    H125108   6.318   5.136   2.994  0.7476 -0.4517 -0.3121
 1231TIP3    H225109   6.324   5.081   3.135 -2.8103  2.7947  1.2956
 1232TIP3   OH225110   5.450   0.369   3.709 -0.1303 -0.1642 -0.3018
 1232TIP3    H125111   5.500   0.443   3.675 -0.0363 -0.2132 -0.2705
 1232TIP3    H225112   5.359   0.400   3.710  0.0672  0.4354  1.0335
 1233TIP3   OH225113   4.844   6.581   1.405  0.1007 -0.4677  0.4925
 1233TIP3    H125114   4.936   6.568   1.430 -0.3676  0.1077  2.6991
 1233TIP3    H225115   4.847   6.589   1.309  2.2267 -1.3016  0.4246
 1234TIP3   OH225116   3.805   6.406  14.636  0.1906 -0.5809 -0.5372
 1234TIP3    H125117   3.880   6.448  14.678  0.4673 -0.7512 -0.8549
 1234TIP3    H225118   3.774   6.470  14.571 -0.5200 -0.1282  0.2195
 1235TIP3   OH225119   1.765   3.222   0.305 -0.3227 -0.3031  0.5400
 1235TIP3    H125120   1.833   3.261   0.249 -0.4563 -0.5239  0.2235
 1235TIP3    H225121   1.807   3.215   0.391  0.3143 -1.1321  0.1745
 1236TIP3   OH225122   1.310   5.530  14.974  0.3059  0.7507  0.1983
 1236TIP3    H125123   1.252   5.566  14.907 -0.0946 -0.4110 -0.0978
 1236TIP3    H225124   1.375   5.480  14.925 -2.0176 -3.1408  0.6738
 1237TIP3   OH225125   3.686   2.902  12.576  0.0685  0.6428  0.1368
 1237TIP3    H125126   3.636   2.835  12.622 -0.1730  2.1497  2.1951
 1237TIP3    H225127   3.645   2.907  12.489 -0.7123 -0.9442  0.3827
 1238TIP3   OH225128   3.181   0.260   5.422  0.2737  0.2824  0.3263
 1238TIP3    H125129   3.131   0.292   5.347  0.7528  0.3662  0.0380
 1238TIP3    H225130   3.189   0.336   5.480 -0.2439  0.1732  0.5486
 1239TIP3   OH225131   6.531   2.161   3.788 -0.5371  0.7993 -0.9641
 1239TIP3    H125132   6.606   2.191   3.737  0.1599  2.1345  0.7254
 1239TIP3    H225133   6.471   2.125   3.724  1.1969  0.4228 -2.4613
 1240TIP3   OH225134   0.133   3.773  11.303  0.5900  0.0861  0.6191
 1240TIP3    H125135   0.135   3.863  11.272 -0.3446 -0.2838 -0.6508
 1240TIP3    H225136   0.224   3.750  11.319  1.2047  0.2783 -2.1191
 1241TIP3   OH225137   1.142   0.320  15.177 -0.2326  0.1758 -0.5810
 1241TIP3    H125138   1.080   0.363  15.235 -1.2038  0.7737 -2.0222
 1241TIP3    H225139   1.186   0.391  15.132  2.0579 -0.1935  0.8704
 1242TIP3   OH225140   4.886   0.365   6.125  0.3973 -0.3097  0.1089
 1242TIP3    H125141   4.791   0.359   6.115  0.5078  0.4675 -1.6251
 1242TIP3    H225142   4.916   0.274   6.125 -0.1636 -0.5171 -1.3961
 1243TIP3   OH225143   0.627   1.445   5.088  0.1321  0.5520  0.3267
 1243TIP3    H125144   0.650   1.373   5.029 -1.0109  0.7363 -0.3867
 1243TIP3    H225145   0.634   1.407   5.176  1.7057  0.2265  0.0932
 1244TIP3   OH225146   0.266   0.701  11.319  0.4325 -0.2451  0.8583
 1244TIP3    H125147   0.270   0.697  11.415 -0.0023 -0.9836  0.8556
 1244TIP3    H225148   0.354   0.727  11.293  0.2828  0.9688  1.4931
 1245TIP3   OH225149   5.182   5.102  14.423 -0.4886 -0.2392 -0.0168
 1245TIP3    H125150   5.102   5.110  14.475 -0.1309  1.9790  0.2710
 1245TIP3    H225151   5.249   5.076  14.485 -0.9741 -2.4121 -0.3111
 1246TIP3   OH225152   0.313   6.568  11.769 -0.6210 -0.1144  0.2140
 1246TIP3    H125153   0.400   6.540  11.740 -0.9432 -0.0998 -0.8094
 1246TIP3    H225154   0.323   6.587  11.862  0.2660 -0.9555  0.3023
 1247TIP3   OH225155   4.864   4.060   1.506  0.0845 -0.0907  0.5081
 1247TIP3    H125156   4.824   4.122   1.567 -0.9287  1.4120 -1.5357
 1247TIP3    H225157   4.953   4.091   1.494  0.0448  0.0703  0.6332
 1248TIP3   OH225158   4.467   6.643   1.949 -0.2827  0.0863 -0.1337
 1248TIP3    H125159   4.556   6.618   1.926  0.3490  0.6458  1.5504
 1248TIP3    H225160   4.477   6.720   2.005 -1.7539 -0.4868  0.9946
 1249TIP3   OH225161   3.450   3.245   6.362  0.1238  0.3070  0.9022
 1249TIP3    H125162   3.465   3.159   6.323 -0.4796 -1.4447  4.1623
 1249TIP3    H225163   3.529   3.262   6.413  0.8544  2.4666 -0.8037
 1250TIP3   OH225164   2.755   3.151   0.008  0.2630  0.0669  0.2846
 1250TIP3    H125165   2.714   3.237   0.018  1.8393  0.6663  2.2080
 1250TIP3    H225166   2.825   3.165  -0.056  0.2286  0.1096  0.2566
 1251TIP3   OH225167   0.309   2.772  11.594 -0.0675 -0.4295  0.2999
 1251TIP3    H125168   0.337   2.693  11.548  0.3566  0.4665 -1.0395
 1251TIP3    H225169   0.276   2.829  11.525  0.4248  0.8931  1.1232
 1252TIP3   OH225170   1.833   2.318  11.761  0.0151 -0.3455 -0.8776
 1252TIP3    H125171   1.908   2.327  11.702  0.4573 -0.0245 -0.2828
 1252TIP3    H225172   1.830   2.225  11.783 -0.2442 -0.4924 -1.5120
 1253TIP3   OH225173   0.368   4.512   3.354  0.3591 -0.3724  0.0797
 1253TIP3    H125174   0.318   4.487   3.276  0.5925 -0.5147 -0.0246
 1253TIP3    H225175   0.340   4.602   3.372  0.4753 -0.2581 -0.3058
 1254TIP3   OH225176   2.945   2.473   5.469  0.3519 -0.3286 -0.3604
 1254TIP3    H125177   2.989   2.523   5.537 -0.2338 -0.4316  0.0957
 1254TIP3    H225178   2.961   2.522   5.389  1.0808 -0.2322 -0.1612
 1255TIP3   OH225179   6.413   3.205   5.671  0.7904 -0.5180  0.1197
 1255TIP3    H125180   6.487   3.164   5.625  1.1535  0.7555 -0.4591
 1255TIP3    H225181   6.425   3.179   5.763  0.9514 -1.7656 -0.2274
 1256TIP3   OH225182   5.188   0.767  12.838  0.3005 -0.0845  0.3717
 1256TIP3    H125183   5.117   0.817  12.878 -0.0024 -1.0173  1.0481
 1256TIP3    H225184   5.152   0.738  12.754  0.1628  0.0978  0.3669
 1257TIP3   OH225185   5.997   3.278  16.106 -0.1982  0.0049 -0.2650
 1257TIP3    H125186   6.037   3.197  16.139 -1.4488 -0.2282  0.8082
 1257TIP3    H225187   5.903   3.263  16.115 -0.4564  2.0121  1.0942
 1258TIP3   OH225188   1.254   2.154  10.810  0.0727  0.0123 -0.1473
 1258TIP3    H125189   1.208   2.235  10.786  0.5691  0.3449  0.0137
 1258TIP3    H225190   1.188   2.086  10.800 -0.4200  0.4663 -0.0566
 1259TIP3   OH225191   3.649   5.319   9.997 -0.5254 -0.4014  0.7069
 1259TIP3    H125192   3.559   5.347  10.011 -0.7686 -0.0046 -1.3022
 1259TIP3    H225193   3.700   5.364  10.064 -1.4984  1.3621  0.3084
 1260TIP3   OH225194   4.783   6.379   2.388 -0.1155 -0.0781  0.2773
 1260TIP3    H125195   4.847   6.310   2.405  1.5339  1.6427  1.4789
 1260TIP3    H225196   4.774   6.382   2.293  1.3004 -0.6327  0.1164
 1261TIP3   OH225197   2.534   6.138  16.221 -0.0906  0.1882 -0.3269
 1261TIP3    H125198   2.503   6.186  16.298  0.5869  1.1685 -0.6494
 1261TIP3    H225199   2.619   6.104  16.246 -0.0979  0.0659 -0.4692
 1262TIP3   OH225200   4.441   5.450   6.459  1.0169  0.3777  0.0471
 1262TIP3    H125201   4.381   5.461   6.385 -0.3109  0.3803  1.0954
 1262TIP3    H225202   4.496   5.375   6.434 -1.3690 -1.5913  0.2645
 1263TIP3   OH225203   5.548   4.986   5.247  0.6445  0.1968 -0.2763
 1263TIP3    H125204   5.624   5.041   5.264  1.0290  0.1696 -1.7489
 1263TIP3    H225205   5.502   4.980   5.331  1.5690  1.2718  0.3192
 1264TIP3   OH225206   3.188   4.809  15.987 -0.2112 -0.0081  0.0648
 1264TIP3    H125207   3.138   4.890  15.990 -2.1507 -1.1560  0.3946
 1264TIP3    H225208   3.191   4.786  15.894  1.4805  1.0506 -0.1921
 1265TIP3   OH225209   1.603   5.739  12.048  0.3215  0.0391  0.3038
 1265TIP3    H125210   1.575   5.785  12.127 -0.9508 -0.3797  0.1159
 1265TIP3    H225211   1.557   5.783  11.977  1.0877  0.1048 -0.1612
 1266TIP3   OH225212   6.378   6.202  12.828 -0.2173 -0.2432  0.2149
 1266TIP3    H125213   6.406   6.122  12.873 -0.0109  0.6567  1.7486
 1266TIP3    H225214   6.459   6.242  12.798 -0.3377 -0.7041 -0.7775
 1267TIP3   OH225215   2.665   5.068  12.663 -0.1465  0.2609 -0.3718
 1267TIP3    H125216   2.596   5.135  12.662  0.0513  0.6262  2.4618
 1267TIP3    H225217   2.741   5.113  12.699  0.5966 -0.9739 -0.3499
 1268TIP3   OH225218   5.587   4.465  16.151  0.2006  0.1126  0.2469
 1268TIP3    H125219   5.541   4.461  16.235 -0.0793  0.2068  0.0987
 1268TIP3    H225220   5.674   4.497  16.172 -0.4007  1.8026  0.2872
 1269TIP3   OH225221   3.580   4.512   5.530 -0.0781 -0.3939  0.6442
 1269TIP3    H125222   3.513   4.479   5.471 -2.4206 -0.8866  3.3680
 1269TIP3    H225223   3.532   4.560   5.597  2.4652  0.6103  1.8873
 1270TIP3   OH225224   1.474   5.521  15.942  0.0222 -0.1733 -0.0096
 1270TIP3    H125225   1.501   5.599  15.893  0.8695 -0.8219 -0.6177
 1270TIP3    H225226   1.395   5.491  15.897  0.5221 -0.4870 -0.7028
 1271TIP3   OH225227   6.256   4.271  16.871  0.2013  0.0606 -0.3237
 1271TIP3    H125228   6.188   4.276  16.938  0.5886  1.8102  0.0116
 1271TIP3    H225229   6.288   4.361  16.864  2.9306 -0.7872  0.0172
 1272TIP3   OH225230   2.217   2.577   2.355  0.1749 -0.6272  0.5191
 1272TIP3    H125231   2.152   2.646   2.368 -0.5605 -1.0496 -0.6936
 1272TIP3    H225232   2.181   2.501   2.399  1.3038 -0.1135  2.4414
 1273TIP3   OH225233   6.257   2.088   4.148 -0.3068 -0.7486 -0.1988
 1273TIP3    H125234   6.187   2.113   4.087 -1.6795  0.8983  1.8722
 1273TIP3    H225235   6.213   2.084   4.233  2.1589  0.6504  1.2597
 1274TIP3   OH225236   3.635   5.282   2.653  0.6502  0.2368 -0.1743
 1274TIP3    H125237   3.691   5.343   2.605  2.8929 -1.7867 -0.2993
 1274TIP3    H225238   3.598   5.225   2.586 -0.1378  0.4135  0.0921
 1275TIP3   OH225239   4.373   5.777   1.676  0.1114  0.3559  0.1065
 1275TIP3    H125240   4.403   5.688   1.660  1.6451  1.2428 -2.6555
 1275TIP3    H225241   4.309   5.769   1.746 -0.1350 -2.9611 -0.3578
 1276TIP3   OH225242   4.726   0.286  14.603 -0.6185  0.1046 -0.0327
 1276TIP3    H125243   4.763   0.278  14.515 -0.1042 -1.8569  0.3121
 1276TIP3    H225244   4.632   0.270  14.591 -0.3309 -1.7543 -0.0629
 1277TIP3   OH225245   2.633   5.679   3.521 -0.5512  0.0722  0.3169
 1277TIP3    H125246   2.600   5.630   3.446  0.6913 -1.5396  0.7594
 1277TIP3    H225247   2.555   5.699   3.573 -1.2442 -0.2280 -0.5757
 1278TIP3   OH225248   3.071   0.093   1.952  0.1731  0.6714 -0.7341
 1278TIP3    H125249   3.014   0.026   1.989  0.0334  0.7075 -0.8842
 1278TIP3    H225250   3.069   0.165   2.015  1.4899 -0.0480  0.1790
 1279TIP3   OH225251   3.361   5.681   1.238 -0.4999 -0.5450  1.1436
 1279TIP3    H125252   3.301   5.744   1.280 -0.0267  0.3451  0.5307
 1279TIP3    H225253   3.445   5.695   1.281 -0.6225 -1.5040  1.7178
 1280TIP3   OH225254   2.993   4.137   5.124  0.4846 -0.3840 -0.2133
 1280TIP3    H125255   3.054   4.104   5.190 -0.0067 -0.1855  0.3482
 1280TIP3    H225256   3.047   4.191   5.066  1.0721 -1.1899 -0.4452
 1281TIP3   OH225257   3.273   1.587   5.477  0.2559  0.0392 -0.6672
 1281TIP3    H125258   3.355   1.624   5.509  0.2994  0.3700 -1.1452
 1281TIP3    H225259   3.221   1.571   5.556  0.1726  1.2739 -0.4506
 1282TIP3   OH225260   1.210   5.045  14.209  0.1897  0.2637  0.2929
 1282TIP3    H125261   1.141   5.111  14.209 -0.0708  0.0094 -0.6254
 1282TIP3    H225262   1.164   4.963  14.230  0.4833  0.3388  1.2660
 1283TIP3   OH225263   3.326   1.525   3.619 -0.3722 -0.3441  0.0720
 1283TIP3    H125264   3.293   1.589   3.682 -1.8595 -0.8159 -0.1788
 1283TIP3    H225265   3.413   1.557   3.595  0.1436 -0.0204  2.1647
 1284TIP3   OH225266   1.608   1.048   3.585 -0.0357  0.5877  0.3761
 1284TIP3    H125267   1.652   1.118   3.537 -2.5368  1.4285 -0.9212
 1284TIP3    H225268   1.568   1.092   3.660 -1.6785  0.6376 -0.4845
 1285TIP3   OH225269   2.258   2.081  16.365  0.9047 -0.3442  0.6241
 1285TIP3    H125270   2.237   2.080  16.459 -1.7118  0.7258  0.1306
 1285TIP3    H225271   2.213   2.159  16.332  1.0880 -1.1624 -1.6721
 1286TIP3   OH225272   0.680   0.868   0.226  0.0613 -0.4254 -0.2568
 1286TIP3    H125273   0.750   0.818   0.184  1.0022  1.0047 -0.4696
 1286TIP3    H225274   0.724   0.943   0.265 -0.7589 -1.6225  3.3076
 1287TIP3   OH225275   1.340   4.417   4.237 -0.3262  0.1455  0.0695
 1287TIP3    H125276   1.399   4.491   4.254 -0.6099  1.7691 -4.6995
 1287TIP3    H225277   1.281   4.416   4.312  1.3989  2.9557  1.6527
 1288TIP3   OH225278   0.084   4.758  11.012 -0.0523 -0.4552 -0.2987
 1288TIP3    H125279   0.039   4.840  10.990  1.2884  0.2083 -0.6576
 1288TIP3    H225280   0.039   4.727  11.091 -1.0682  0.2261 -0.5875
 1289TIP3   OH225281   2.106   2.616  16.568  0.5994 -0.4374 -0.0644
 1289TIP3    H125282   2.039   2.549  16.583 -0.1850  0.2258 -0.5441
 1289TIP3    H225283   2.095   2.678  16.639  0.0202  0.2074 -0.7029
 1290TIP3   OH225284   1.891   0.304  16.119  0.1368 -0.1508 -0.5151
 1290TIP3    H125285   1.939   0.386  16.114 -1.5520  1.1604  2.1276
 1290TIP3    H225286   1.851   0.305  16.207 -0.8222 -3.3099 -0.7842
 1291TIP3   OH225287   4.704   4.922   0.108  0.0489 -0.5438 -0.2136
 1291TIP3    H125288   4.736   4.957   0.025 -0.5445 -0.2147 -0.3097
 1291TIP3    H225289   4.696   4.827   0.093 -0.0659 -0.4841 -0.5314
 1292TIP3   OH225290   4.660   5.694   5.365 -0.0781 -0.3401  0.0658
 1292TIP3    H125291   4.643   5.744   5.445 -0.1085  0.0950 -0.2084
 1292TIP3    H225292   4.725   5.629   5.390 -0.1374 -0.2489  0.4601
 1293TIP3   OH225293   3.936   1.499  14.861 -0.2970  0.6144  0.6697
 1293TIP3    H125294   3.867   1.456  14.912 -1.1792  0.8377 -0.3188
 1293TIP3    H225295   3.971   1.566  14.921  0.2610 -0.6314  1.7828
 1294TIP3   OH225296   5.361   5.519  15.984 -0.4389  0.0602 -0.1681
 1294TIP3    H125297   5.389   5.603  16.019  1.2221 -0.5627  0.1163
 1294TIP3    H225298   5.270   5.510  16.011 -0.8222  1.9914 -0.6811
 1295TIP3   OH225299   4.379   3.445  14.154 -0.2697 -0.3612  0.0376
 1295TIP3    H125300   4.385   3.458  14.059 -0.4769 -1.4090 -0.1234
 1295TIP3    H225301   4.400   3.353  14.167  0.9906  0.0481  1.1452
 1296TIP3   OH225302   1.915   5.317   5.695  0.2147  0.8306 -0.1703
 1296TIP3    H125303   1.927   5.275   5.610  1.2977 -0.7282  0.7026
 1296TIP3    H225304   1.842   5.269   5.735  0.7544  0.4728  0.4028
 1297TIP3   OH225305   2.245   0.088   4.880 -0.2111  0.3988 -0.3470
 1297TIP3    H125306   2.285   0.174   4.893 -1.7175  0.9691  0.7368
 1297TIP3    H225307   2.223   0.058   4.968 -0.3139 -0.8143 -0.7597
 1298TIP3   OH225308   6.093   3.411   5.734 -0.1379  0.4739 -0.2924
 1298TIP3    H125309   6.045   3.328   5.728  0.0525  0.3418 -0.0340
 1298TIP3    H225310   6.076   3.442   5.823  1.5755 -0.4038  0.3967
 1299TIP3   OH225311   3.035   6.116  14.860 -0.7176 -0.0619 -0.0559
 1299TIP3    H125312   2.953   6.163  14.844  0.8732  3.4020  1.1657
 1299TIP3    H225313   3.071   6.101  14.772 -1.1253  1.3443 -0.4824
 1300TIP3   OH225314   5.601   1.159  16.852 -0.2793  0.5549  0.0428
 1300TIP3    H125315   5.584   1.083  16.797 -0.3180 -0.1917  1.0447
 1300TIP3    H225316   5.695   1.155  16.871 -0.2444  0.8665 -0.0586
 1301TIP3   OH225317   2.847   2.480  14.236 -0.4347  0.3438 -0.2354
 1301TIP3    H125318   2.924   2.435  14.271 -3.1422 -2.9170  2.1856
 1301TIP3    H225319   2.811   2.528  14.311 -1.5489  0.6381 -0.9349
 1302TIP3   OH225320   4.999   1.489  16.604  0.3593 -0.3469  0.0064
 1302TIP3    H125321   5.025   1.538  16.682  1.0642  2.6435 -1.9515
 1302TIP3    H225322   5.081   1.467  16.560 -0.0577 -1.3943 -0.2905
 1303TIP3   OH225323   0.313   4.292   2.167  0.2794  0.0640 -0.1670
 1303TIP3    H125324   0.234   4.285   2.113  1.3493  0.1786 -1.8316
 1303TIP3    H225325   0.373   4.228   2.130  0.3144 -1.5197  2.3730
 1304TIP3   OH225326   6.463   1.438   6.472  0.0542  0.3351  0.4250
 1304TIP3    H125327   6.448   1.532   6.468  1.6632  0.5754 -0.8773
 1304TIP3    H225328   6.554   1.429   6.503  0.1718 -0.7594 -0.1770
 1305TIP3   OH225329   2.484   4.505   3.207 -0.1334 -0.5910  0.1983
 1305TIP3    H125330   2.523   4.592   3.208  0.4437 -0.8370 -0.4717
 1305TIP3    H225331   2.393   4.520   3.179 -0.1196 -0.1815  0.3609
 1306TIP3   OH225332   3.698   5.151  16.812 -0.5504  0.4958  0.0248
 1306TIP3    H125333   3.760   5.176  16.742 -0.8125  1.6314  0.1750
 1306TIP3    H225334   3.633   5.097  16.768 -0.0777  0.2275 -0.3646
 1307TIP3   OH225335   3.347   4.826   4.731 -0.2923 -0.2343  0.3120
 1307TIP3    H125336   3.372   4.822   4.824 -1.4186  1.3587  0.7280
 1307TIP3    H225337   3.360   4.736   4.699  1.5833 -0.4846  1.5891
 1308TIP3   OH225338   0.298   5.831   4.583 -1.1017 -0.0549  0.1771
 1308TIP3    H125339   0.240   5.779   4.527 -1.2148 -1.0312  1.1649
 1308TIP3    H225340   0.285   5.795   4.671  1.9611 -1.2542  0.2749
 1309TIP3   OH225341   2.416   2.670   2.906 -0.0716 -0.4443  0.2062
 1309TIP3    H125342   2.505   2.652   2.874 -0.1383 -0.1917 -0.1347
 1309TIP3    H225343   2.382   2.585   2.933  0.1211 -0.6084 -0.0629
 1310TIP3   OH225344   3.778   5.382  16.058 -0.6042  0.1185  0.2949
 1310TIP3    H125345   3.769   5.446  16.129  0.7974  1.8066 -0.9818
 1310TIP3    H225346   3.827   5.310  16.097  0.0654  0.9768  1.0691
 1311TIP3   OH225347   4.238   3.708   2.296 -0.4453  0.0129  0.4774
 1311TIP3    H125348   4.275   3.662   2.372 -0.8257 -2.2369 -0.6231
 1311TIP3    H225349   4.144   3.708   2.312 -0.5387 -0.6033 -0.0494
 1312TIP3   OH225350   0.209   4.305   1.225  0.0932 -0.0339  0.5995
 1312TIP3    H125351   0.303   4.306   1.206 -0.4498 -0.8374 -3.0408
 1312TIP3    H225352   0.171   4.259   1.150 -3.2788  0.7376  1.6786
 1313TIP3   OH225353   2.994   5.301   0.562 -0.0807 -0.0630  0.4708
 1313TIP3    H125354   3.016   5.380   0.611 -0.4706  0.4472 -0.1493
 1313TIP3    H225355   3.074   5.281   0.512  0.0685 -0.1497  0.7428
 1314TIP3   OH225356   0.450   2.894  16.293 -0.5052 -0.1636  0.2131
 1314TIP3    H125357   0.357   2.912  16.311 -0.1596  2.3787 -0.0907
 1314TIP3    H225358   0.497   2.950  16.356  0.7985 -0.4160 -0.5070
 1315TIP3   OH225359   0.588   0.548  16.269  0.0160  0.1310  0.1980
 1315TIP3    H125360   0.636   0.623  16.304 -0.6933  0.7336 -0.0889
 1315TIP3    H225361   0.656   0.485  16.245  0.6191  0.6448  0.5227
 1316TIP3   OH225362   2.848   6.614  13.065 -0.1190 -0.0917 -0.1340
 1316TIP3    H125363   2.867   6.623  12.971  2.5548  1.5271  0.4653
 1316TIP3    H225364   2.862   6.701  13.101  0.1006 -0.9297  1.9531
 1317TIP3   OH225365   3.188   5.705   4.453 -0.2956 -0.1848 -0.1327
 1317TIP3    H125366   3.268   5.677   4.408 -0.0394 -1.1907  0.9020
 1317TIP3    H225367   3.135   5.626   4.459 -2.3303  0.8801 -2.6237
 1318TIP3   OH225368   2.097   6.692  16.519  0.3258  0.2771  0.1017
 1318TIP3    H125369   2.129   6.676  16.430 -1.8655 -1.7041 -0.4188
 1318TIP3    H225370   2.002   6.679  16.514 -0.1068  1.8086  2.4022
 1319TIP3   OH225371   4.370   1.573   1.735  0.5359  0.1331  0.5290
 1319TIP3    H125372   4.302   1.520   1.776  2.0927 -3.5650 -1.2661
 1319TIP3    H225373   4.323   1.630   1.674 -1.2212  1.0625  2.6039
 1320TIP3   OH225374   2.790   4.228   1.091  0.2828  0.5353  0.3802
 1320TIP3    H125375   2.794   4.156   1.028 -1.3093  0.9166 -0.2214
 1320TIP3    H225376   2.800   4.307   1.037 -0.1286  0.8230  0.7179
 1321TIP3   OH225377   0.830   2.604  15.654  0.3324  0.0031 -0.2528
 1321TIP3    H125378   0.746   2.578  15.694 -0.2164  0.2753 -1.2000
 1321TIP3    H225379   0.867   2.522  15.621 -0.9668  0.2154 -2.4319
 1322TIP3   OH225380   1.463   2.641   4.223 -0.2026  0.0557  0.4236
 1322TIP3    H125381   1.414   2.601   4.151 -0.7268  0.8829  0.3049
 1322TIP3    H225382   1.417   2.723   4.240 -0.6744 -0.5495  2.3263
 1323TIP3   OH225383   6.288   1.537  15.788  0.0114 -0.1925  0.3774
 1323TIP3    H125384   6.232   1.470  15.749  0.4486 -0.1093 -0.3975
 1323TIP3    H225385   6.267   1.617  15.741  0.4172 -0.0513  0.4291
 1324TIP3   OH225386   4.427   6.499  14.012 -0.0601 -0.8377 -0.2976
 1324TIP3    H125387   4.425   6.569  13.946 -2.2628 -0.4314  0.1190
 1324TIP3    H225388   4.502   6.444  13.987  0.6865  0.7174 -1.6265
 1325TIP3   OH225389   2.736   0.302   2.497 -0.3687 -0.2745 -1.1521
 1325TIP3    H125390   2.736   0.237   2.427  0.6678 -0.3836 -1.0635
 1325TIP3    H225391   2.818   0.350   2.485 -0.2898 -0.1470 -0.1501
 1326TIP3   OH225392   1.531   1.698   2.490  0.2174  0.1282 -0.2828
 1326TIP3    H125393   1.542   1.609   2.523  1.3801 -0.0926 -1.1716
 1326TIP3    H225394   1.621   1.730   2.480 -0.1699  1.0184 -0.9727
 1327TIP3   OH225395   5.214   0.750   5.360 -0.1676  0.0381 -0.2019
 1327TIP3    H125396   5.164   0.702   5.427  0.4715 -0.7796 -0.3043
 1327TIP3    H225397   5.300   0.710   5.360  0.2681  0.9406 -0.5700
 1328TIP3   OH225398   0.866   4.983  13.856 -0.1398  0.5112 -0.2097
 1328TIP3    H125399   0.919   4.945  13.926 -0.5028  0.5362  0.0810
 1328TIP3    H225400   0.816   4.909  13.821  0.0073  0.5071 -0.4173
 1329TIP3   OH225401   0.674   6.802   4.189  0.6491  0.8519  0.2570
 1329TIP3    H125402   0.656   6.895   4.203 -0.8542  0.3599  1.9985
 1329TIP3    H225403   0.708   6.772   4.273  1.5318 -0.0970 -0.4268
 1330TIP3   OH225404   4.223   0.613   0.222  0.2785 -0.1670 -0.3396
 1330TIP3    H125405   4.149   0.569   0.179 -0.9619  2.2157 -0.7854
 1330TIP3    H225406   4.284   0.632   0.151 -0.5544  1.3940 -0.6835
 1331TIP3   OH225407   3.585   0.549  14.006 -0.0489 -0.6040 -0.2292
 1331TIP3    H125408   3.618   0.549  13.916 -0.4092 -1.4537 -0.3708
 1331TIP3    H225409   3.660   0.578  14.059 -0.0385  0.5851 -0.8579
 1332TIP3   OH225410   4.675   5.889  16.871  0.4265 -0.1001  0.1374
 1332TIP3    H125411   4.651   5.899  16.963 -2.2685 -1.9572 -0.2410
 1332TIP3    H225412   4.673   5.978  16.836 -1.2021  0.3982  1.3379
 1333TIP3   OH225413   5.498   4.635   1.501 -0.5027 -0.4583 -0.0971
 1333TIP3    H125414   5.437   4.567   1.529 -1.0338 -0.6771 -1.6820
 1333TIP3    H225415   5.534   4.603   1.418  1.5977 -0.2116  0.6643
 1334TIP3   OH225416   2.566   3.205   4.026 -0.2134  0.2021 -0.1879
 1334TIP3    H125417   2.618   3.284   4.039 -0.4833  0.3948 -0.2790
 1334TIP3    H225418   2.596   3.145   4.095  0.1550  0.2982 -0.2641
 1335TIP3   OH225419   2.821   3.702   5.063  0.2258  0.6590  0.1362
 1335TIP3    H125420   2.789   3.758   5.135 -1.1628  0.6041 -0.3967
 1335TIP3    H225421   2.744   3.650   5.038  0.6034  0.8444 -1.5336
 1336TIP3   OH225422   6.701   4.808  15.833 -0.2649 -0.4520 -0.0683
 1336TIP3    H125423   6.611   4.825  15.859 -0.3699 -0.7177 -0.2550
 1336TIP3    H225424   6.726   4.885  15.781  0.3730  0.7069  1.8518
 1337TIP3   OH225425   3.759   4.109   3.265 -0.3580 -0.5492 -0.2059
 1337TIP3    H125426   3.689   4.056   3.304 -1.1960  0.7285  0.0850
 1337TIP3    H225427   3.827   4.046   3.242 -1.6335 -1.8399 -0.5593
 1338TIP3   OH225428   2.245   4.202  16.458 -0.0314 -0.1005  0.2593
 1338TIP3    H125429   2.290   4.209  16.542  0.7692  0.9067 -0.2259
 1338TIP3    H225430   2.310   4.166  16.398 -0.2935  0.0739 -0.1429
 1339TIP3   OH225431   4.345   4.393   4.383  0.1691  0.0817  0.1881
 1339TIP3    H125432   4.316   4.484   4.395 -0.8891 -0.1184 -0.7075
 1339TIP3    H225433   4.406   4.396   4.310  0.6539  0.1540  0.5855
 1340TIP3   OH225434   1.736   1.624  15.460 -0.0843  0.0485  0.2431
 1340TIP3    H125435   1.693   1.658  15.381 -1.7692 -0.5790  0.8344
 1340TIP3    H225436   1.827   1.610  15.434 -0.3799  0.7383 -1.3033
 1341TIP3   OH225437   0.710   6.014   0.429 -0.2519 -0.1363 -0.3726
 1341TIP3    H125438   0.629   6.007   0.377 -0.8660 -0.7360  0.6271
 1341TIP3    H225439   0.780   5.998   0.367 -1.0103 -1.7586 -0.8555
 1342TIP3   OH225440   1.561   0.635   0.161 -0.4741 -0.8833 -0.3318
 1342TIP3    H125441   1.541   0.684   0.082  1.4131  0.3537 -0.1260
 1342TIP3    H225442   1.605   0.556   0.131  1.3122  0.1344 -0.5582
 1343TIP3   OH225443   5.851   1.894  13.784  0.4442 -0.1778  0.2806
 1343TIP3    H125444   5.871   1.802  13.768  0.0045 -0.5043  1.5216
 1343TIP3    H225445   5.920   1.942  13.738 -0.1417 -1.0560 -1.6145
 1344TIP3   OH225446   1.497   4.891  16.087  0.4158 -1.0251  0.7833
 1344TIP3    H125447   1.461   4.865  16.002 -1.5795  0.4303  1.1115
 1344TIP3    H225448   1.589   4.910  16.070 -0.3869  1.3729 -1.5901
 1345TIP3   OH225449   0.085   1.887  11.779  0.0864  0.1938  0.2003
 1345TIP3    H125450   0.112   1.971  11.742  1.1426 -0.1553  0.1405
 1345TIP3    H225451   0.166   1.837  11.787 -0.6829 -1.3836 -1.1276
 1346TIP3   OH225452   5.955   2.117  17.041  0.5034  0.1132 -0.2385
 1346TIP3    H125453   6.010   2.098  17.117  0.8915  1.3412 -0.1748
 1346TIP3    H225454   5.910   2.035  17.022 -0.0101 -0.0902  1.6349
 1347TIP3   OH225455   4.341   1.408  14.963  0.3498  0.1102  0.0404
 1347TIP3    H125456   4.362   1.499  14.979  1.9969  0.2031 -2.1626
 1347TIP3    H225457   4.425   1.362  14.972 -0.8492 -1.7109  3.7043
 1348TIP3   OH225458   3.118   1.276   1.917  0.1299  0.1766  0.4319
 1348TIP3    H125459   3.154   1.222   1.987  1.2716  0.2762 -0.0489
 1348TIP3    H225460   3.124   1.221   1.839 -0.6169  0.2654  0.3100
 1349TIP3   OH225461   5.787   5.461   4.611 -0.1650 -0.0875  0.1505
 1349TIP3    H125462   5.702   5.477   4.568 -1.7097  1.3631  3.3642
 1349TIP3    H225463   5.772   5.384   4.666  0.5845  0.1817  0.7464
 1350TIP3   OH225464   1.475   5.587   3.146  0.4964 -0.4083  0.0060
 1350TIP3    H125465   1.513   5.649   3.208 -0.1307  1.1861 -1.1066
 1350TIP3    H225466   1.410   5.539   3.196  0.6240  0.2108  0.7840
 1351TIP3   OH225467   2.784   5.508  15.884 -0.5187 -0.4840 -0.0777
 1351TIP3    H125468   2.876   5.531  15.873 -0.7265  1.0137  0.9371
 1351TIP3    H225469   2.783   5.413  15.894  0.7469 -0.6973 -1.5073
 1352TIP3   OH225470   2.238   3.671   1.208 -0.2413  0.3433 -0.3271
 1352TIP3    H125471   2.190   3.682   1.290  0.0708  0.9694 -0.2238
 1352TIP3    H225472   2.192   3.728   1.146 -0.3557  0.0242 -0.5386
 1353TIP3   OH225473   4.011   5.514   4.681 -0.5381 -0.0041  0.0587
 1353TIP3    H125474   4.102   5.516   4.653 -0.9445  0.5541 -1.3017
 1353TIP3    H225475   3.988   5.421   4.682 -0.0262 -0.1336  0.2345
 1354TIP3   OH225476   3.753   4.583  13.195  0.2074 -0.1195 -0.2738
 1354TIP3    H125477   3.802   4.595  13.113  0.5912 -1.6177 -0.2819
 1354TIP3    H225478   3.819   4.586  13.264 -0.1118  1.1026  0.0053
 1355TIP3   OH225479   5.285   0.855   0.661  0.1537 -0.3187 -0.0231
 1355TIP3    H125480   5.199   0.863   0.619 -0.0643  0.6028  0.5624
 1355TIP3    H225481   5.270   0.883   0.751  1.1496  0.2916 -0.0309
 1356TIP3   OH225482   2.441   5.325   2.711  0.1657  0.0539  0.1864
 1356TIP3    H125483   2.454   5.234   2.687 -0.4281  0.1915 -0.7009
 1356TIP3    H225484   2.389   5.322   2.792  2.3949 -0.4183  1.7000
 1357TIP3   OH225485   5.206   1.069  11.108  0.4469 -0.8686  0.4934
 1357TIP3    H125486   5.113   1.079  11.131  0.5818  2.0685  0.0911
 1357TIP3    H225487   5.204   1.033  11.019 -0.3787  0.5359 -0.0874
 1358TIP3   OH225488   1.124   0.024   4.337  0.5589 -0.6423 -0.0414
 1358TIP3    H125489   1.178   0.101   4.355 -0.5758 -0.0611  0.9988
 1358TIP3    H225490   1.079   0.044   4.255  1.7680 -1.0814 -0.8545
 1359TIP3   OH225491   4.340   4.817   5.793 -0.1884  0.1119 -0.6824
 1359TIP3    H125492   4.330   4.886   5.858  1.8969  0.0712 -0.2370
 1359TIP3    H225493   4.283   4.746   5.823  0.5706  0.1823  1.0217
 1360TIP3   OH225494   2.687   5.568  16.814 -0.1718  0.6677 -0.3652
 1360TIP3    H125495   2.597   5.601  16.811 -0.2766  0.4254 -0.0571
 1360TIP3    H225496   2.732   5.612  16.743 -0.7802  0.0684 -1.1367
 1361TIP3   OH225497   5.713   5.122   4.417  0.4350  1.2025  0.2336
 1361TIP3    H125498   5.693   5.216   4.418  0.1221  1.1476 -0.3272
 1361TIP3    H225499   5.649   5.083   4.477  1.8539  1.5717  2.0726
 1362TIP3   OH225500   0.674   1.902  10.941 -0.1769 -0.1446  0.5342
 1362TIP3    H125501   0.681   1.973  11.005 -0.6852 -0.9524  1.5240
 1362TIP3    H225502   0.760   1.859  10.944  0.1667  0.4766 -0.1427
 1363TIP3   OH225503   3.640   4.504  14.512  0.0557  0.0853 -0.0640
 1363TIP3    H125504   3.629   4.480  14.420 -0.0711 -1.4189  0.3270
 1363TIP3    H225505   3.717   4.561  14.512 -0.2910  0.5917 -1.1650
 1364TIP3   OH225506   5.899   0.243  16.192  0.1993 -0.2066 -0.6970
 1364TIP3    H125507   5.941   0.323  16.163  0.5736 -0.3202 -0.4771
 1364TIP3    H225508   5.840   0.219  16.120  2.4639 -1.4940 -2.2557
 1365TIP3   OH225509   4.847   6.473  11.690  0.3405  1.2626  0.5421
 1365TIP3    H125510   4.803   6.425  11.760  0.3225  1.7224  0.8518
 1365TIP3    H225511   4.848   6.412  11.616  1.4267  0.3306  1.3044
 1366TIP3   OH225512   3.771   0.296  11.001 -0.5439 -0.6385 -0.1306
 1366TIP3    H125513   3.841   0.309  11.066  0.2708 -1.9585 -0.6825
 1366TIP3    H225514   3.816   0.301  10.917 -1.2676 -0.7187 -0.5277
 1367TIP3   OH225515   4.021   1.029  11.685  0.0819 -0.0565 -0.1745
 1367TIP3    H125516   3.970   1.039  11.604  3.2730 -0.1610 -2.3743
 1367TIP3    H225517   3.997   1.106  11.737 -2.3195 -0.1451 -1.0323
 1368TIP3   OH225518   5.621   1.927   1.568  0.1474  0.4474 -0.1669
 1368TIP3    H125519   5.616   2.011   1.613  0.4609 -0.8514  2.5262
 1368TIP3    H225520   5.715   1.910   1.558  0.0818  0.5764 -1.0460
 1369TIP3   OH225521   6.451   1.633   0.784 -0.2629  0.4954 -0.6288
 1369TIP3    H125522   6.374   1.683   0.813 -0.6071  0.8289 -2.0032
 1369TIP3    H225523   6.415   1.564   0.728  0.1810 -1.5985  1.5082
 1370TIP3   OH225524   3.450   0.084   6.463  0.4521  0.0408  0.3459
 1370TIP3    H125525   3.373   0.030   6.482 -0.2524  0.6376 -0.6878
 1370TIP3    H225526   3.413   0.166   6.428  1.5428  0.6003  0.4629
 1371TIP3   OH225527   5.897   5.878  15.435 -0.3050 -0.4590  0.5005
 1371TIP3    H125528   5.961   5.947  15.453 -1.8442  1.5468 -1.1832
 1371TIP3    H225529   5.940   5.822  15.371  0.5194 -0.3812  0.9617
 1372TIP3   OH225530   5.522   0.704   2.795 -0.5655 -0.6087  0.3751
 1372TIP3    H125531   5.542   0.621   2.837 -1.0304  0.2912  2.4865
 1372TIP3    H225532   5.574   0.703   2.714  0.9934 -2.0708  1.3282
 1373TIP3   OH225533   1.894   1.626  12.356 -0.0279  0.1251 -0.3408
 1373TIP3    H125534   1.843   1.577  12.420 -0.8178  1.1602 -0.1379
 1373TIP3    H225535   1.830   1.685  12.315  0.7082  0.3499 -1.1979
 1374TIP3   OH225536   2.898   3.019  14.208 -0.4737  0.0540 -0.5102
 1374TIP3    H125537   2.938   2.932  14.204 -0.4812  0.0888 -2.0560
 1374TIP3    H225538   2.927   3.055  14.292 -0.6114 -1.4876  0.2372
 1375TIP3   OH225539   0.730   6.707   3.763  0.3397  0.2233  0.3437
 1375TIP3    H125540   0.638   6.683   3.776  0.2280  1.0690  1.2978
 1375TIP3    H225541   0.777   6.624   3.765 -0.4732 -0.2910 -0.9397
 1376TIP3   OH225542   2.995   4.982  16.698 -0.2108  0.1537  0.0373
 1376TIP3    H125543   2.956   5.069  16.709 -0.6629 -0.1505  0.9751
 1376TIP3    H225544   3.071   4.996  16.642 -0.4220  1.1164 -0.0159
 1377TIP3   OH225545   4.516   1.467  15.753  0.4648  0.2443 -0.1595
 1377TIP3    H125546   4.429   1.466  15.715  0.1617  1.9858  0.3940
 1377TIP3    H225547   4.554   1.382  15.729 -0.3750  0.5096 -2.6915
 1378TIP3   OH225548   1.293   6.198   4.873  1.2102 -0.2811 -0.3940
 1378TIP3    H125549   1.316   6.257   4.802 -1.9290 -0.0465 -1.3588
 1378TIP3    H225550   1.365   6.134   4.876  2.8367  1.3725 -1.7838
 1379TIP3   OH225551   2.123   4.700   1.446  0.0292 -0.0415 -0.1822
 1379TIP3    H125552   2.149   4.792   1.454 -1.1204  0.2519  0.3095
 1379TIP3    H225553   2.157   4.674   1.361  0.5671  0.7665 -0.2371
 1380TIP3   OH225554   4.054   5.849   2.821 -0.0361 -0.2260 -0.2859
 1380TIP3    H125555   4.090   5.928   2.862 -0.3215 -0.1933 -0.0930
 1380TIP3    H225556   4.046   5.871   2.729 -0.3264  0.0491 -0.1960
 1381TIP3   OH225557   4.644   3.876  11.813  0.0299  0.0336 -0.3701
 1381TIP3    H125558   4.648   3.908  11.723  0.9740  0.9564 -0.0173
 1381TIP3    H225559   4.560   3.830  11.819 -0.2473  0.3664 -1.5840
 1382TIP3   OH225560   4.139   0.924  15.168 -0.5253  0.2345 -0.2012
 1382TIP3    H125561   4.107   0.844  15.210 -0.3658  1.0637  1.5824
 1382TIP3    H225562   4.061   0.975  15.150 -0.6063 -0.1841 -1.1122
 1383TIP3   OH225563   1.991   2.760   2.599  0.0345  0.0009 -1.0644
 1383TIP3    H125564   2.049   2.794   2.531 -0.2802 -0.3778 -1.5346
 1383TIP3    H225565   2.047   2.747   2.675 -0.0794  2.9326 -0.3632
 1384TIP3   OH225566   4.352   3.874   1.953  0.0189 -0.1606 -0.1643
 1384TIP3    H125567   4.301   3.855   1.874  0.3574  1.3379 -0.7875
 1384TIP3    H225568   4.303   3.945   1.996  0.5536 -0.0355  0.2471
 1385TIP3   OH225569   3.495   6.283   4.111  0.2505 -0.1036 -0.3657
 1385TIP3    H125570   3.518   6.196   4.145  0.2556 -0.0001 -0.0947
 1385TIP3    H225571   3.420   6.309   4.165 -0.3228 -0.3166 -1.0452
 1386TIP3   OH225572   2.933   0.386  16.678  0.9258  0.2617  0.1595
 1386TIP3    H125573   2.925   0.362  16.586  0.3467 -0.0631  0.2910
 1386TIP3    H225574   2.943   0.481  16.678  0.0051  0.3690 -0.1951
 1387TIP3   OH225575   6.309   5.520   3.146 -0.0118  0.5431  0.6193
 1387TIP3    H125576   6.262   5.518   3.230  0.7575  0.6553  1.0629
 1387TIP3    H225577   6.319   5.613   3.127 -0.2591  0.5156  0.3653
 1388TIP3   OH225578   0.681   6.646   0.172 -0.0052  0.4676 -0.5159
 1388TIP3    H125579   0.684   6.551   0.187 -1.5767  0.4195 -0.3637
 1388TIP3    H225580   0.711   6.685   0.254 -2.0235  0.1139  0.4351
 1389TIP3   OH225581   4.859   0.278   5.667  0.0007 -0.5708  0.3671
 1389TIP3    H125582   4.830   0.362   5.631  0.1583 -0.6543  0.0397
 1389TIP3    H225583   4.921   0.301   5.736 -2.1999 -0.3083  2.3875
 1390TIP3   OH225584   1.084   2.872   4.363 -0.0566 -0.1561  0.6299
 1390TIP3    H125585   1.119   2.783   4.356  0.6534  0.2210 -1.4221
 1390TIP3    H225586   1.013   2.865   4.426  0.1984 -2.1087  0.7712
 1391TIP3   OH225587   6.211   2.745   5.298 -0.2975  0.3805  0.8500
 1391TIP3    H125588   6.211   2.840   5.293  0.3275  0.4417  1.7773
 1391TIP3    H225589   6.293   2.718   5.256 -0.0953  0.3012  1.2898
 1392TIP3   OH225590   3.529   3.433  16.698  0.8470  0.9259  0.2451
 1392TIP3    H125591   3.527   3.364  16.632  0.6110  1.2142 -0.0537
 1392TIP3    H225592   3.476   3.399  16.770  1.1929  0.5663  0.3273
 1393TIP3   OH225593   4.029   6.613   5.409  0.4861 -0.7186  0.8810
 1393TIP3    H125594   4.103   6.653   5.455  0.5104 -0.7210  0.8437
 1393TIP3    H225595   3.980   6.687   5.373  0.9328 -0.7485  0.1847
 1394TIP3   OH225596   4.824   4.660   3.908  0.7497 -0.2484 -0.1885
 1394TIP3    H125597   4.827   4.756   3.907 -1.0547 -0.1391 -1.4553
 1394TIP3    H225598   4.914   4.633   3.923  1.3231  1.6411  0.0549
 1395TIP3   OH225599   6.360   4.850  15.285 -0.4422  0.3528 -0.0024
 1395TIP3    H125600   6.329   4.769  15.325 -0.0912  0.7648  1.1536
 1395TIP3    H225601   6.455   4.839  15.279  0.0494  1.8602  3.1184
 1396TIP3   OH225602   4.337   1.409   5.020 -0.0777 -0.1238  0.0852
 1396TIP3    H125603   4.389   1.449   5.089  0.2220 -0.1881 -0.1053
 1396TIP3    H225604   4.258   1.463   5.016  0.5574  0.7945 -0.5330
 1397TIP3   OH225605   4.075   2.845  14.913  0.0503  0.3548 -0.3611
 1397TIP3    H125606   4.104   2.902  14.985 -0.7247  0.5831 -0.2280
 1397TIP3    H225607   4.106   2.889  14.834  0.5466  0.3139 -0.1952
 1398TIP3   OH225608   4.788   2.413  16.678 -0.5890 -0.2279 -0.1255
 1398TIP3    H125609   4.760   2.322  16.691  3.2611 -1.4991  0.5998
 1398TIP3    H225610   4.807   2.419  16.584 -0.1210 -0.4095 -0.0421
 1399TIP3   OH225611   5.026   1.501   3.531 -0.2374  0.4215  0.4318
 1399TIP3    H125612   5.036   1.592   3.557  1.4417  0.4807 -0.2911
 1399TIP3    H225613   5.113   1.463   3.543 -1.3241 -1.6776  2.7488
 1400TIP3   OH225614   3.931   1.065  15.088 -0.8713  0.8790  0.2588
 1400TIP3    H125615   3.928   1.080  14.993  1.3571  0.6751  0.0925
 1400TIP3    H225616   3.917   1.151  15.127 -1.2794  1.0549 -0.2678
 1401TIP3   OH225617   1.532   3.099  15.899  0.0306  0.7810  0.0372
 1401TIP3    H125618   1.456   3.083  15.843 -1.3454  1.4236  1.6416
 1401TIP3    H225619   1.579   3.015  15.900 -0.8850  0.2427 -0.6393
 1402TIP3   OH225620   5.412   2.217  12.977  0.1009 -0.0075  0.0922
 1402TIP3    H125621   5.442   2.276  12.909  1.5295 -1.0878 -0.2755
 1402TIP3    H225622   5.492   2.194  13.025 -0.7902  0.3077  1.7994
 1403TIP3   OH225623   6.550   1.340  16.330 -0.0436 -0.5488 -0.3685
 1403TIP3    H125624   6.565   1.361  16.238  0.6683  0.4675 -0.0364
 1403TIP3    H225625   6.630   1.367  16.375 -0.3046 -1.2072  0.5295
 1404TIP3   OH225626   4.125   4.444   4.636  0.4782 -0.1722  0.3672
 1404TIP3    H125627   4.217   4.456   4.613  0.4928  1.9801  1.2330
 1404TIP3    H225628   4.095   4.532   4.660 -2.0097 -0.6838 -0.5816
 1405TIP3   OH225629   2.767   5.002  13.419  0.0973 -0.2452  0.1966
 1405TIP3    H125630   2.794   4.970  13.333  0.3586 -1.8600  0.8456
 1405TIP3    H225631   2.676   4.972  13.429  0.3790 -0.9104  0.8613
 1406TIP3   OH225632   3.051   2.124  12.331 -0.2750 -0.3876 -0.3332
 1406TIP3    H125633   3.011   2.037  12.321  0.1931 -0.7594  0.8669
 1406TIP3    H225634   3.134   2.117  12.285  0.4192 -1.0623  0.9678
 1407TIP3   OH225635   2.553   6.539   5.643 -0.2436  0.2380  0.0666
 1407TIP3    H125636   2.490   6.568   5.709  1.2683  0.5486  1.4332
 1407TIP3    H225637   2.609   6.475   5.688 -0.3595 -1.0170 -1.4762
 1408TIP3   OH225638   4.317   5.620  11.156 -0.2594  0.5569 -0.3943
 1408TIP3    H125639   4.367   5.650  11.232  0.0773 -0.0135 -0.3872
 1408TIP3    H225640   4.299   5.700  11.107  0.0491  0.8537 -0.0315
 1409TIP3   OH225641   0.823   1.584  15.790 -0.5099  0.1639 -0.1485
 1409TIP3    H125642   0.787   1.499  15.816 -0.2731  0.1943  0.2825
 1409TIP3    H225643   0.899   1.563  15.736 -0.8587  0.1023 -0.6246
 1410TIP3   OH225644   6.770   4.570   4.588  0.0130 -0.0031 -0.3177
 1410TIP3    H125645   6.702   4.595   4.650 -0.8073 -0.6199 -0.9494
 1410TIP3    H225646   6.808   4.654   4.559  0.9777  0.2654  1.5841
 1411TIP3   OH225647   5.030   0.326  13.863  0.3366 -0.0180  0.2337
 1411TIP3    H125648   5.065   0.391  13.923  0.7103 -1.6841  1.9434
 1411TIP3    H225649   4.983   0.264  13.920  0.2627 -1.3980 -1.2454
 1412TIP3   OH225650   4.700   2.874   1.508  0.4626  0.5099 -0.7765
 1412TIP3    H125651   4.674   2.951   1.457  0.0472  1.2018  0.4336
 1412TIP3    H225652   4.790   2.857   1.483 -0.1373  0.0082 -2.7207
 1413TIP3   OH225653   6.124   1.913   0.558  0.1705 -0.2391  0.0254
 1413TIP3    H125654   6.137   1.842   0.495 -0.5321 -1.0392  0.7671
 1413TIP3    H225655   6.110   1.990   0.503 -0.9769 -1.0162 -0.8264
 1414TIP3   OH225656   1.654   2.408  14.909  0.3366 -0.5981 -0.1453
 1414TIP3    H125657   1.579   2.467  14.904  0.6360  0.0426  1.8760
 1414TIP3    H225658   1.625   2.328  14.866 -1.3224 -0.1603  0.1050
 1415TIP3   OH225659   5.611   0.770  13.668 -0.4932 -0.4409  0.0591
 1415TIP3    H125660   5.653   0.790  13.584  0.3662  0.3440  0.6548
 1415TIP3    H225661   5.524   0.738  13.644 -0.2855 -0.1760 -1.1289
 1416TIP3   OH225662   3.786   2.456  15.168  0.2561 -0.1308  0.4188
 1416TIP3    H125663   3.821   2.541  15.142 -3.4918  1.7412  0.8120
 1416TIP3    H225664   3.812   2.447  15.260  0.0462  1.0030  0.6048
 1417TIP3   OH225665   5.612   4.773   0.251 -0.0438 -0.3336  0.2253
 1417TIP3    H125666   5.612   4.782   0.347  0.2836  0.1596  0.1812
 1417TIP3    H225667   5.573   4.687   0.236 -1.8745  0.3630  0.7244
 1418TIP3   OH225668   0.581   4.367  16.397  0.0283  0.2440 -0.2965
 1418TIP3    H125669   0.579   4.318  16.315  0.4343  2.4847 -1.7249
 1418TIP3    H225670   0.659   4.334  16.443  0.0057 -0.7687 -0.9432
 1419TIP3   OH225671   1.546   5.254  10.424 -0.1856  0.0546 -0.0834
 1419TIP3    H125672   1.477   5.310  10.460  0.1314  1.8194 -2.0037
 1419TIP3    H225673   1.510   5.166  10.427 -0.9526  0.3715  2.5165
 1420TIP3   OH225674   0.031   4.480   2.884 -0.0287  0.0102  0.3200
 1420TIP3    H125675   0.116   4.487   2.843  0.5070 -0.3442  1.3287
 1420TIP3    H225676  -0.022   4.429   2.822  0.4137  0.4279 -0.4098
 1421TIP3   OH225677   4.284   2.318  10.692 -0.2239 -0.3195  0.4377
 1421TIP3    H125678   4.268   2.249  10.627  0.5947  1.0255 -1.2646
 1421TIP3    H225679   4.374   2.300  10.723  0.7460  1.0257 -1.4319
 1422TIP3   OH225680   4.184   0.568   4.727  0.2719  0.3409 -0.3853
 1422TIP3    H125681   4.179   0.636   4.660  0.7446 -0.3729 -1.1709
 1422TIP3    H225682   4.132   0.496   4.691 -2.0063  0.9974  1.3590
 1423TIP3   OH225683   1.535   2.505   1.416 -0.7062  0.4256 -0.1155
 1423TIP3    H125684   1.479   2.444   1.465 -0.7212  0.8135  0.3573
 1423TIP3    H225685   1.605   2.526   1.477  0.2331 -0.4287 -0.8689
 1424TIP3   OH225686   3.031   1.762   0.621  0.1176 -0.4636 -0.3365
 1424TIP3    H125687   3.109   1.718   0.589  2.4631  1.3982  2.3183
 1424TIP3    H225688   2.986   1.697   0.675  0.7218 -1.1019 -0.6029
 1425TIP3   OH225689   3.152   1.737   4.059  0.0545  0.0951  0.2478
 1425TIP3    H125690   3.151   1.805   4.126 -0.9163 -0.6914  1.0726
 1425TIP3    H225691   3.193   1.662   4.101 -1.0729 -0.5883  0.1794
 1426TIP3   OH225692   3.571   5.147  12.556 -0.3970  0.4982 -0.0465
 1426TIP3    H125693   3.660   5.168  12.530  0.2454  0.3198  1.8764
 1426TIP3    H225694   3.521   5.227  12.538  0.0293  0.4708 -1.5051
 1427TIP3   OH225695   4.275   0.587   3.401  0.1373  0.4415 -0.4630
 1427TIP3    H125696   4.349   0.594   3.462  0.5354 -0.6289 -0.7958
 1427TIP3    H225697   4.202   0.557   3.456  0.1959  0.5821 -0.3073
 1428TIP3   OH225698   3.909   6.052   0.664 -0.8757  0.2758  0.0069
 1428TIP3    H125699   3.820   6.022   0.646 -0.3929 -0.4403 -1.3153
 1428TIP3    H225700   3.906   6.147   0.649 -0.9242 -0.0342 -2.3114
 1429TIP3   OH225701   1.541   3.273  16.117  0.3229  0.3352 -0.3819
 1429TIP3    H125702   1.520   3.196  16.065  0.1097  0.3658 -0.3402
 1429TIP3    H225703   1.633   3.292  16.096  0.0281  0.7865 -1.3107
 1430TIP3   OH225704   3.257   1.523  13.926  0.3811 -0.6739 -0.3829
 1430TIP3    H125705   3.189   1.474  13.879 -1.6372  1.5609  0.0252
 1430TIP3    H225706   3.318   1.550  13.857 -1.2954  0.5873 -1.4823
 1431TIP3   OH225707   4.712   5.829  10.952  0.0905  0.2077 -0.0043
 1431TIP3    H125708   4.627   5.848  10.910  0.6995 -0.9074 -1.8904
 1431TIP3    H225709   4.729   5.905  11.006 -2.0317  0.5477  0.2846
 1432TIP3   OH225710   0.831   5.363  11.529 -0.0960  0.2370  0.3991
 1432TIP3    H125711   0.889   5.435  11.553 -0.9341  0.5840  1.4901
 1432TIP3    H225712   0.763   5.364  11.597 -0.6384 -0.9866 -0.1005
 1433TIP3   OH225713   5.761   6.596   1.719  0.3068 -0.7231 -0.0715
 1433TIP3    H125714   5.730   6.639   1.639  2.9518 -0.7002 -1.1889
 1433TIP3    H225715   5.727   6.650   1.790 -0.3848  0.4687 -1.2491
 1434TIP3   OH225716   2.758   6.377  14.308  0.3538 -0.1797  0.4134
 1434TIP3    H125717   2.665   6.400  14.305  0.4205  0.3771  1.7393
 1434TIP3    H225718   2.798   6.445  14.362  1.5452 -0.3945 -0.1553
 1435TIP3   OH225719   4.860   2.820  16.255 -0.3921 -0.5412 -0.0695
 1435TIP3    H125720   4.844   2.810  16.349 -1.7410 -2.4574 -0.4460
 1435TIP3    H225721   4.939   2.874  16.250  0.4687 -1.4583  2.1870
 1436TIP3   OH225722   0.290   5.262   3.685 -0.0909  0.4859  0.0142
 1436TIP3    H125723   0.340   5.342   3.668 -0.4304  0.5671 -0.6239
 1436TIP3    H225724   0.212   5.270   3.629 -0.3543 -0.0752  0.2927
 1437TIP3   OH225725   2.247   3.696  16.061 -0.7078 -0.1984 -0.5538
 1437TIP3    H125726   2.327   3.739  16.090 -0.3401 -0.6650 -0.8466
 1437TIP3    H225727   2.264   3.603  16.074 -1.6732 -0.2433  0.5192
 1438TIP3   OH225728   6.165   6.567  14.649 -0.6118  0.0097 -0.5968
 1438TIP3    H125729   6.240   6.513  14.622  0.8309  1.4623  0.3264
 1438TIP3    H225730   6.088   6.514  14.627  0.6997 -2.0854 -0.4355
 1439TIP3   OH225731   0.949   2.329  11.788  0.4003  0.5008 -0.3226
 1439TIP3    H125732   1.036   2.333  11.748  1.0117  0.7507  0.9676
 1439TIP3    H225733   0.948   2.245  11.833 -0.4758 -0.0116 -1.2803
 1440TIP3   OH225734   1.889   5.364  15.364  0.0582  0.2696 -0.3638
 1440TIP3    H125735   1.931   5.372  15.449 -0.7778  4.5240 -0.1478
 1440TIP3    H225736   1.822   5.296  15.376  2.2883 -1.8165  1.1850
 1441TIP3   OH225737   3.102   3.125  13.010  0.3609 -0.5676 -0.0303
 1441TIP3    H125738   3.013   3.131  13.046 -0.2014 -1.0828 -1.2846
 1441TIP3    H225739   3.140   3.048  13.054  0.8656  0.6861  1.8529
 1442TIP3   OH225740   6.193   3.665   3.657 -0.2764 -0.1995 -0.2247
 1442TIP3    H125741   6.212   3.580   3.616 -0.8173 -1.2988  1.6346
 1442TIP3    H225742   6.276   3.712   3.654  0.5506 -1.5364  0.2730
 1443TIP3   OH225743   3.352   4.069   2.342  0.2521  0.9099  0.1478
 1443TIP3    H125744   3.311   4.002   2.287 -0.0402 -1.0092  2.5501
 1443TIP3    H225745   3.281   4.130   2.360  0.3166  1.5023 -1.4135
 1444TIP3   OH225746   4.286   6.537  11.466 -0.4201  0.4206 -0.2778
 1444TIP3    H125747   4.223   6.482  11.418 -1.1085  0.6432  0.3464
 1444TIP3    H225748   4.276   6.624  11.427 -0.2963  0.3958 -0.3648
 1445TIP3   OH225749   5.890   4.988  16.551  0.2255  0.7276 -0.2935
 1445TIP3    H125750   5.884   4.946  16.636  0.7592  2.2454  0.5240
 1445TIP3    H225751   5.971   4.955  16.513  0.0614  0.1635 -0.1631
 1446TIP3   OH225752   2.106   0.138  16.592 -0.1063  0.3039 -0.1315
 1446TIP3    H125753   2.025   0.123  16.543 -1.1471 -0.4100  1.6711
 1446TIP3    H225754   2.141   0.050  16.608  0.7742  0.5810 -0.4661
 1447TIP3   OH225755   4.206   4.124   3.666 -0.3227  0.4069  0.4736
 1447TIP3    H125756   4.164   4.176   3.597  1.3412  3.9634  1.9249
 1447TIP3    H225757   4.274   4.075   3.620 -1.2604  0.2490 -0.8126
 1448TIP3   OH225758   6.517   6.521   1.604 -0.0617 -0.2600 -0.4505
 1448TIP3    H125759   6.444   6.492   1.551  0.3669 -2.1764 -0.0750
 1448TIP3    H225760   6.479   6.538   1.691 -0.2593 -0.0344 -0.5803
 1449TIP3   OH225761   6.605   0.594  11.723 -0.0505  0.4817  0.4108
 1449TIP3    H125762   6.666   0.539  11.772  1.8472  0.8993 -1.3227
 1449TIP3    H225763   6.553   0.532  11.671 -0.0451  0.1903  0.7514
 1450TIP3   OH225764   2.583   5.248  13.121  0.0854  0.1741  0.3836
 1450TIP3    H125765   2.625   5.298  13.190  0.7489 -0.2345  0.2848
 1450TIP3    H225766   2.629   5.274  13.041 -0.3282  0.2550  0.1709
 1451TIP3   OH225767   3.758   2.347   4.739  0.3386 -0.4234  0.0630
 1451TIP3    H125768   3.806   2.418   4.783 -0.7456  0.4957 -0.1784
 1451TIP3    H225769   3.826   2.292   4.701  1.2171  0.4709  0.2984
 1452TIP3   OH225770   6.242   3.739   0.270  0.1635 -0.2803 -0.2629
 1452TIP3    H125771   6.149   3.716   0.259  0.5326 -1.4740 -1.0719
 1452TIP3    H225772   6.270   3.693   0.349  0.1956 -0.3056 -0.2892
 1453TIP3   OH225773   5.777   0.732  15.279 -0.2365 -0.2427 -0.0376
 1453TIP3    H125774   5.758   0.810  15.332 -0.4890 -0.2592 -0.1007
 1453TIP3    H225775   5.691   0.692  15.266 -0.0980 -0.5729  0.0582
 1454TIP3   OH225776   4.368   0.005   3.527  0.0972  0.0697 -0.7260
 1454TIP3    H125777   4.277   0.033   3.532 -0.1265 -0.7806  0.1129
 1454TIP3    H225778   4.417   0.087   3.514 -0.6637  0.6876  0.1450
 1455TIP3   OH225779   6.376   0.472  15.548  0.6056  0.7523  0.6550
 1455TIP3    H125780   6.338   0.519  15.623  0.4107  0.1291  0.9462
 1455TIP3    H225781   6.382   0.381  15.577 -0.5073  0.3043 -0.4838
 1456TIP3   OH225782   4.622   0.800  16.389  0.2000  0.0153  0.4042
 1456TIP3    H125783   4.605   0.888  16.421  0.9371  0.9007 -1.4526
 1456TIP3    H225784   4.707   0.806  16.345  0.5246 -1.7663  0.6949
 1457TIP3   OH225785   1.629   3.656   0.037  0.1306 -0.1290 -0.1862
 1457TIP3    H125786   1.718   3.674   0.067  0.0740 -0.2620  0.0634
 1457TIP3    H225787   1.634   3.660  -0.059  0.8542 -2.2319 -0.2735
 1458TIP3   OH225788   4.019   5.010   6.173 -0.1447  0.0052  0.5600
 1458TIP3    H125789   4.067   4.981   6.250 -0.3292  3.2248  2.0284
 1458TIP3    H225790   3.978   5.092   6.199 -3.3370 -0.6210 -1.8295
 1459TIP3   OH225791   0.216   0.142   2.111 -0.6818 -0.6620 -0.3672
 1459TIP3    H125792   0.153   0.116   2.179 -0.1414  0.4251  0.5771
 1459TIP3    H225793   0.254   0.059   2.081 -0.5815 -1.1454  1.0177
 1460TIP3   OH225794   1.041   4.624  12.401 -0.0331  0.0680  0.0811
 1460TIP3    H125795   0.962   4.570  12.405  0.0098 -0.1459 -1.3972
 1460TIP3    H225796   1.035   4.670  12.317  1.3385  0.1631  0.0066
 1461TIP3   OH225797   6.246   2.980  14.230  0.1185 -0.1121 -0.1243
 1461TIP3    H125798   6.294   2.970  14.312  0.8243  0.5304 -0.4459
 1461TIP3    H225799   6.182   3.049  14.248  0.2298 -0.0175 -0.0869
 1462TIP3   OH225800   3.451   2.182  14.390 -0.9793 -0.3563 -0.2502
 1462TIP3    H125801   3.449   2.189  14.295 -1.8471 -0.7818 -0.2802
 1462TIP3    H225802   3.542   2.199  14.414 -0.8394  0.1874 -1.1160
 1463TIP3   OH225803   6.272   1.830  13.718  0.3321 -0.3292 -0.4775
 1463TIP3    H125804   6.200   1.868  13.668 -0.8408  0.7541  1.8343
 1463TIP3    H225805   6.328   1.905  13.740 -0.3435 -0.3465  1.5306
 1464TIP3   OH225806   4.031   5.752   3.270  0.1445  0.4139  0.1591
 1464TIP3    H125807   4.029   5.715   3.181 -2.7058 -0.6386  0.5346
 1464TIP3    H225808   3.942   5.785   3.284  0.2263 -0.2930  2.9469
 1465TIP3   OH225809   5.411   5.995  16.858  0.1012  0.6952 -0.5889
 1465TIP3    H125810   5.465   6.000  16.779  1.9180  1.4458  0.6302
 1465TIP3    H225811   5.462   5.942  16.919 -1.9208 -1.1251 -0.3480
 1466TIP3   OH225812   2.501   4.359   1.567  0.1634  0.4223 -0.2598
 1466TIP3    H125813   2.594   4.381   1.564  0.1576  0.4448 -0.2715
 1466TIP3    H225814   2.456   4.443   1.579  0.0001  0.7140 -2.4916
 1467TIP3   OH225815   4.752   5.695   2.366 -0.1878  0.4956 -0.3218
 1467TIP3    H125816   4.682   5.659   2.312  0.0467 -1.6538  0.7081
 1467TIP3    H225817   4.707   5.736   2.440 -0.4287  1.7247 -1.1187
 1468TIP3   OH225818   1.402   5.277  16.013 -0.2370  0.0990 -0.0189
 1468TIP3    H125819   1.346   5.288  15.936 -1.5507  1.2706  1.0363
 1468TIP3    H225820   1.449   5.360  16.022 -1.5534  0.7447  1.4843
 1469TIP3   OH225821   4.721   1.200   1.895  0.1353 -0.2104 -0.0261
 1469TIP3    H125822   4.757   1.280   1.857  2.8127  0.4549  3.4093
 1469TIP3    H225823   4.787   1.133   1.877 -0.5700 -0.8828 -0.1572
 1470TIP3   OH225824   0.117   1.159   0.353 -0.0050 -0.9166  0.6137
 1470TIP3    H125825   0.044   1.219   0.365  1.7778  1.1017  2.2191
 1470TIP3    H225826   0.126   1.150   0.258 -1.4161 -0.0529  0.3808
 1471TIP3   OH225827   5.608   3.106  16.481  0.5114  0.1765 -0.2667
 1471TIP3    H125828   5.656   3.188  16.495  1.1210 -0.2249  0.0153
 1471TIP3    H225829   5.674   3.045  16.449  0.0482 -0.1987 -0.5122
 1472TIP3   OH225830   4.960   4.924   1.960 -0.4740  0.4995  0.4916
 1472TIP3    H125831   4.994   4.852   1.907 -0.1114  1.3398 -0.4628
 1472TIP3    H225832   4.881   4.953   1.915 -0.5793  0.7424  0.8240
 1473TIP3   OH225833   3.212   5.192  14.962 -0.4380 -0.2353  0.4105
 1473TIP3    H125834   3.289   5.136  14.975 -0.0485  0.5626  1.7931
 1473TIP3    H225835   3.247   5.273  14.924 -0.9111 -0.6579 -0.9835
 1474TIP3   OH225836   6.487   5.001  11.433  0.2323  0.1293  0.1389
 1474TIP3    H125837   6.509   4.947  11.358 -0.8486 -0.1775  0.0290
 1474TIP3    H225838   6.400   4.973  11.459  1.0291 -0.6166  2.2572
 1475TIP3   OH225839   3.160   4.370  13.053  0.8706  0.0540  0.1357
 1475TIP3    H125840   3.122   4.362  13.140  1.0975 -1.1310  0.1502
 1475TIP3    H225841   3.177   4.463  13.042 -2.0875  0.6651  0.0758
 1476TIP3   OH225842   4.015   4.648  13.645 -0.0745 -0.3947 -0.0003
 1476TIP3    H125843   4.095   4.634  13.695 -0.4020 -0.1087  0.6145
 1476TIP3    H225844   3.987   4.737  13.668  0.4962  0.2733 -1.7455
 1477TIP3   OH225845   1.698   0.442  12.825 -0.4897  0.0445 -0.4009
 1477TIP3    H125846   1.612   0.469  12.793 -0.1558 -1.5113 -2.8336
 1477TIP3    H225847   1.757   0.460  12.752  0.8686 -0.9613  0.4066
 1478TIP3   OH225848   3.355   5.469   0.640  0.1133 -0.1158  0.5352
 1478TIP3    H125849   3.392   5.381   0.624 -0.8732 -0.4548  0.0679
 1478TIP3    H225850   3.304   5.459   0.720 -0.9054 -0.2684 -0.1089
 1479TIP3   OH225851   2.274   1.565  14.074 -0.0871  0.1083  0.3270
 1479TIP3    H125852   2.342   1.632  14.073 -0.8436  0.9035 -0.0114
 1479TIP3    H225853   2.297   1.506  14.001 -0.3902  1.0520 -0.5619
 1480TIP3   OH225854   6.722   4.903   4.252  0.3281 -0.1425 -0.3055
 1480TIP3    H125855   6.627   4.900   4.246  0.2991 -2.9845 -0.0155
 1480TIP3    H225856   6.740   4.915   4.345  0.2006 -1.1908 -0.1336
 1481TIP3   OH225857   6.593   3.457  13.350 -0.3028 -0.0871 -0.0768
 1481TIP3    H125858   6.561   3.394  13.415 -0.0719  0.8671  0.9908
 1481TIP3    H225859   6.601   3.540  13.398 -0.5238  0.7545 -1.4218
 1482TIP3   OH225860   4.282   3.728  16.734 -0.0590 -0.2414  0.1094
 1482TIP3    H125861   4.310   3.637  16.737  0.0790 -0.2696 -1.2321
 1482TIP3    H225862   4.337   3.768  16.666  0.3712  1.0296  1.1528
 1483TIP3   OH225863   3.910   5.715   4.192 -0.3996 -0.3069  0.1351
 1483TIP3    H125864   3.914   5.694   4.286 -1.6057 -1.1529  0.0194
 1483TIP3    H225865   3.914   5.811   4.189  1.0424 -0.3154  0.9488
 1484TIP3   OH225866   0.456   2.660   2.977 -0.1823  0.0086  0.0376
 1484TIP3    H125867   0.552   2.653   2.970  0.0539 -1.6654  3.0054
 1484TIP3    H225868   0.441   2.746   3.017  0.2379 -0.2553  0.7946
 1485TIP3   OH225869   1.745   5.817  16.897 -0.1595  0.1685 -0.1980
 1485TIP3    H125870   1.748   5.793  16.805 -0.3486  1.6472 -0.6196
 1485TIP3    H225871   1.813   5.884  16.906 -0.3667  0.2741  0.6550
 1486TIP3   OH225872   2.962   0.739   4.359 -0.2543 -0.5702 -0.8983
 1486TIP3    H125873   2.938   0.715   4.269 -0.9554  1.0831 -1.1929
 1486TIP3    H225874   2.878   0.748   4.404 -0.0440  0.9382 -0.7403
 1487TIP3   OH225875   0.650   4.015  14.044  0.1359 -0.2896  0.1753
 1487TIP3    H125876   0.692   4.041  14.127 -2.3514  2.2589  0.8214
 1487TIP3    H225877   0.609   3.931  14.063 -0.3117  0.2078  1.5780
 1488TIP3   OH225878   0.866   4.460   3.386  0.3678 -0.0858  0.1905
 1488TIP3    H125879   0.873   4.553   3.410  0.6593  0.0529 -0.4384
 1488TIP3    H225880   0.845   4.461   3.293 -0.6519 -0.6348  0.4030
 1489TIP3   OH225881   3.975   2.463  13.588 -0.3964  0.0633  0.6269
 1489TIP3    H125882   3.910   2.412  13.539  1.4054 -2.2287  0.4501
 1489TIP3    H225883   4.022   2.513  13.522 -0.9643  0.5599  0.5887
 1490TIP3   OH225884   4.114   0.131   1.259 -0.2940 -0.1496  0.5735
 1490TIP3    H125885   4.190   0.078   1.284 -0.7679 -0.9384  0.4089
 1490TIP3    H225886   4.039   0.082   1.293 -0.8082 -0.0760 -0.4041
 1491TIP3   OH225887   5.093   5.327  14.058 -0.1590  0.2573 -0.3234
 1491TIP3    H125888   5.017   5.342  14.115  1.3827  0.8158  1.7329
 1491TIP3    H225889   5.154   5.398  14.080  1.3828 -0.7574 -1.1015
 1492TIP3   OH225890   0.487   1.638   4.432 -0.4876 -0.0850  0.2046
 1492TIP3    H125891   0.510   1.652   4.524 -0.4314  1.4669 -0.0310
 1492TIP3    H225892   0.395   1.611   4.434 -0.4322 -0.2452  0.7186
 1493TIP3   OH225893   0.082   5.116  14.463  0.0711  0.2998  0.2603
 1493TIP3    H125894   0.020   5.099  14.533  0.2362 -2.0163 -0.0904
 1493TIP3    H225895   0.033   5.101  14.382  0.4429  0.8993 -0.0959
 1494TIP3   OH225896   2.289   3.098  13.065  0.2467  0.0473  0.6319
 1494TIP3    H125897   2.209   3.128  13.108  0.9614  0.5677  1.6453
 1494TIP3    H225898   2.297   3.153  12.987 -0.5020 -0.1827  0.3802
 1495TIP3   OH225899   1.485   2.077  12.416  0.4072 -0.1393  0.0956
 1495TIP3    H125900   1.445   2.038  12.339 -0.5183  2.0795 -0.6139
 1495TIP3    H225901   1.420   2.141  12.448  0.9433 -0.6600  2.4556
 1496TIP3   OH225902   6.580   0.040   2.067 -0.1711 -0.0672 -0.6093
 1496TIP3    H125903   6.622   0.122   2.091 -1.5656  0.5749 -0.2759
 1496TIP3    H225904   6.609   0.022   1.978 -0.2868  1.0806 -0.8850
 1497TIP3   OH225905   3.022   3.327   1.092  0.5702 -0.2529  0.3613
 1497TIP3    H125906   3.075   3.404   1.070 -1.1031  0.5210 -1.3789
 1497TIP3    H225907   2.938   3.364   1.120  0.2789 -1.4413  1.1115
 1498TIP3   OH225908   5.413   6.244  13.433 -0.5456 -0.1013 -0.1794
 1498TIP3    H125909   5.477   6.256  13.503  1.0133 -3.8148 -0.7628
 1498TIP3    H225910   5.462   6.257  13.353 -1.1469 -0.5198 -0.6223
 1499TIP3   OH225911   5.221   4.322   2.558  0.0717 -0.4297  0.1571
 1499TIP3    H125912   5.231   4.240   2.606  4.0776 -0.0317  0.3499
 1499TIP3    H225913   5.215   4.390   2.626 -0.6031 -0.3339  0.0112
 1500TIP3   OH225914   3.613   5.066  11.102  0.4401 -0.0599 -0.1288
 1500TIP3    H125915   3.697   5.061  11.058 -0.8490 -2.5237 -2.6398
 1500TIP3    H225916   3.616   4.995  11.166  0.3710  0.0207 -0.0363
 1501TIP3   OH225917   4.706   1.996   3.001 -0.4910 -0.2787 -0.1456
 1501TIP3    H125918   4.632   2.036   2.955 -0.7418  0.8528  1.1737
 1501TIP3    H225919   4.756   2.070   3.036 -1.9568 -0.9336  3.9501
 1502TIP3   OH225920   1.756   5.414  16.682 -0.0276  0.0778  0.5488
 1502TIP3    H125921   1.740   5.351  16.611 -2.0588 -0.3392  1.3084
 1502TIP3    H225922   1.845   5.395  16.712  1.6488  1.4343 -2.9735
 1503TIP3   OH225923   5.215   5.296  10.919  0.3682  0.4092  0.1324
 1503TIP3    H125924   5.268   5.361  10.873  1.3606 -1.6969 -1.9394
 1503TIP3    H225925   5.133   5.340  10.939  1.2504  2.4605 -0.5587
 1504TIP3   OH225926   4.461   2.402  14.744 -0.2881 -0.2622  0.8151
 1504TIP3    H125927   4.413   2.332  14.701 -0.2918 -0.6532  1.4416
 1504TIP3    H225928   4.410   2.420  14.824 -0.2900  0.4556  0.6575
 1505TIP3   OH225929   4.634   5.279  12.313 -0.3730 -0.2457  0.2310
 1505TIP3    H125930   4.680   5.299  12.232 -1.8153 -0.6343 -0.7009
 1505TIP3    H225931   4.688   5.212  12.355 -0.6280 -1.4899 -1.3568
 1506TIP3   OH225932   3.037   0.315  15.070  0.1553  0.6880  0.0747
 1506TIP3    H125933   3.007   0.226  15.047 -1.2881  1.1048  0.2082
 1506TIP3    H225934   2.986   0.338  15.148  2.4078  0.6708  1.6295
 1507TIP3   OH225935   3.866   3.337  15.861  0.0835  0.5302 -0.5533
 1507TIP3    H125936   3.937   3.315  15.921  0.0636 -0.1681 -0.7770
 1507TIP3    H225937   3.859   3.261  15.803 -1.6752  0.0281  0.2525
 1508TIP3   OH225938   5.447   2.157   2.081 -0.2263 -0.4152 -0.8127
 1508TIP3    H125939   5.381   2.215   2.119 -0.2649  0.1380 -1.7058
 1508TIP3    H225940   5.474   2.101   2.154 -1.9983 -0.9723 -0.5271
 1509TIP3   OH225941   1.203   5.148   1.061 -0.4601  0.6517 -0.6604
 1509TIP3    H125942   1.109   5.154   1.042 -0.7609 -0.8694  0.1110
 1509TIP3    H225943   1.210   5.072   1.119  1.0994  1.5397  0.3873
 1510TIP3   OH225944   2.398   1.142   5.469  0.0941 -0.3390 -0.1285
 1510TIP3    H125945   2.378   1.162   5.561  1.0132 -1.3284  0.3018
 1510TIP3    H225946   2.348   1.063   5.450  0.7420 -0.7490 -0.1490
 1511TIP3   OH225947   6.516   1.409   1.892 -0.6752  0.4758  0.1279
 1511TIP3    H125948   6.515   1.474   1.963  1.7355  0.6587  0.0492
 1511TIP3    H225949   6.536   1.460   1.814 -2.1900  0.0956 -0.5568
 1512TIP3   OH225950   0.356   0.561   2.882  0.0419  0.6460 -0.3082
 1512TIP3    H125951   0.351   0.544   2.788 -1.4979 -0.9793  0.0066
 1512TIP3    H225952   0.265   0.557   2.912  0.6239 -0.3730  1.4624
 1513TIP3   OH225953   6.695   5.139  12.551 -0.5006  0.2007 -0.7965
 1513TIP3    H125954   6.774   5.102  12.592 -0.4788  0.4541 -0.6102
 1513TIP3    H225955   6.720   5.154  12.459 -0.0206  1.1748 -0.5199
 1514TIP3   OH225956   6.012   3.465  15.394  0.3419 -0.4336  0.4548
 1514TIP3    H125957   5.929   3.448  15.438  0.8178  1.5026  2.2263
 1514TIP3    H225958   5.988   3.521  15.320 -0.3471 -3.0448 -1.4690
 1515TIP3   OH225959   6.321   6.280  14.363 -0.0923 -0.1100  0.3559
 1515TIP3    H125960   6.266   6.233  14.299  0.4878 -1.7903  1.0290
 1515TIP3    H225961   6.275   6.268  14.446 -1.3172  2.8142  0.2294
 1516TIP3   OH225962   2.112   3.327  14.680  0.0735 -0.6358  0.3602
 1516TIP3    H125963   2.151   3.267  14.744  0.0846 -0.7147  0.2805
 1516TIP3    H225964   2.022   3.338  14.710  0.5964  0.8377  1.4686
 1517TIP3   OH225965   0.987   0.490  15.335 -0.2225  0.5931 -0.0034
 1517TIP3    H125966   0.936   0.450  15.405  0.3440 -0.2886 -0.0850
 1517TIP3    H225967   0.923   0.544  15.287 -1.1342 -0.6191 -0.2088
 1518TIP3   OH225968   2.616   5.065   0.846 -0.8296  0.3648 -0.6014
 1518TIP3    H125969   2.594   5.127   0.777 -0.8864  0.6114 -0.3642
 1518TIP3    H225970   2.607   4.979   0.805 -1.1117  0.5017 -0.8311
 1519TIP3   OH225971   0.553   0.042   2.105 -0.4138 -0.1653  0.0540
 1519TIP3    H125972   0.618  -0.005   2.053 -2.1977  0.3975 -2.9114
 1519TIP3    H225973   0.573   0.134   2.091 -1.8070  0.0192 -0.9545
 1520TIP3   OH225974   0.710   3.531   2.678  0.2124 -0.3642 -0.1643
 1520TIP3    H125975   0.706   3.626   2.690 -0.3982 -0.5237  1.0040
 1520TIP3    H225976   0.681   3.495   2.761  1.6546 -1.5922 -0.1488
 1521TIP3   OH225977   0.694   0.424  13.231 -0.1788  0.0208  0.0836
 1521TIP3    H125978   0.655   0.366  13.165 -1.7178  1.0037  0.0831
 1521TIP3    H225979   0.705   0.369  13.308 -0.5412 -0.5579 -0.2736
 1522TIP3   OH225980   0.264   4.130   3.237  0.7475  0.2580  0.2788
 1522TIP3    H125981   0.229   4.124   3.326 -0.1514 -0.4271 -0.1080
 1522TIP3    H225982   0.198   4.179   3.188  1.3424  0.8280  0.0378
 1523TIP3   OH225983   1.316   0.773   5.590  0.4651  0.2371 -0.4725
 1523TIP3    H125984   1.339   0.695   5.540  1.4723 -0.1068  0.4796
 1523TIP3    H225985   1.221   0.774   5.591  0.4353 -0.3475 -1.4541
 1524TIP3   OH225986   5.085   3.863   0.579 -0.2712 -0.6253 -0.2916
 1524TIP3    H125987   5.030   3.933   0.543 -0.5367 -1.9143 -2.5813
 1524TIP3    H225988   5.027   3.814   0.637 -0.1307  0.8917  1.1881
 1525TIP3   OH225989   1.860   2.050  16.828 -0.6021  0.3454 -0.6062
 1525TIP3    H125990   1.865   1.967  16.876 -0.6749  0.2548 -0.7558
 1525TIP3    H225991   1.937   2.099  16.858 -0.3380  0.0645 -0.8209
 1526TIP3   OH225992   4.915   3.960   6.000  0.2368 -0.0707  0.0253
 1526TIP3    H125993   4.923   4.046   6.041 -1.8997 -0.0679  0.5806
 1526TIP3    H225994   4.824   3.956   5.972  0.6286 -1.6675 -1.1326
 1527TIP3   OH225995   3.453   3.563   1.286  0.7154  0.3226  0.0500
 1527TIP3    H125996   3.416   3.479   1.260  1.8937 -0.3877  0.5840
 1527TIP3    H225997   3.485   3.601   1.204 -1.1332  0.9657 -0.4273
 1528TIP3   OH225998   6.287   0.550   2.334  0.5433 -0.0547 -0.1561
 1528TIP3    H125999   6.199   0.519   2.355  0.1089  0.8988 -0.4765
 1528TIP3    H226000   6.324   0.577   2.419  0.5445 -0.5063 -0.0140
 1529TIP3   OH226001   5.424   6.068   2.999  0.3023 -0.0874 -0.5122
 1529TIP3    H126002   5.517   6.050   3.012  0.1864 -0.3899 -0.0529
 1529TIP3    H226003   5.418   6.102   2.910  0.5976 -2.0353 -1.3239
 1530TIP3   OH226004   2.941   0.278  12.499 -0.4179  0.0718  0.1547
 1530TIP3    H126005   2.944   0.340  12.427  2.2397  1.3293  1.2145
 1530TIP3    H226006   2.860   0.228  12.485  0.8892 -1.1199 -4.7109
 1531TIP3   OH226007   3.143   0.259   4.220  0.5407 -0.1589 -0.6443
 1531TIP3    H126008   3.120   0.174   4.256  0.7030 -0.1891 -0.6138
 1531TIP3    H226009   3.069   0.316   4.244 -0.4733 -0.7167 -2.2601
 1532TIP3   OH226010   4.224   5.569  12.307  0.4199 -0.0569  0.1973
 1532TIP3    H126011   4.242   5.498  12.368  2.7492 -0.2694 -0.6719
 1532TIP3    H226012   4.278   5.551  12.231 -3.1587 -0.3898 -2.5325
 1533TIP3   OH226013   0.461   1.596   2.136  0.0791  0.0208  0.0895
 1533TIP3    H126014   0.433   1.687   2.148  0.6001  0.1195  0.5620
 1533TIP3    H226015   0.380   1.549   2.116  0.0892  1.0088 -2.8362
 1534TIP3   OH226016   4.928   3.129  13.240  0.0371  0.0478 -0.3577
 1534TIP3    H126017   4.910   3.102  13.150  0.8918  1.0215 -0.8318
 1534TIP3    H226018   5.015   3.168  13.237 -0.5375  1.4869  0.5846
 1535TIP3   OH226019   5.815   5.595  16.687  0.7239  0.0518  0.5436
 1535TIP3    H126020   5.848   5.670  16.738 -1.5814  0.3471  1.7191
 1535TIP3    H226021   5.744   5.632  16.634  0.7067 -0.9940 -0.1853
 1536TIP3   OH226022   1.963   4.276   6.030  0.2913  0.2154  0.7617
 1536TIP3    H126023   1.920   4.319   6.104  0.5103  1.0446  0.4207
 1536TIP3    H226024   2.027   4.340   5.999 -0.9981  0.6288 -1.2629
 1537TIP3   OH226025   0.502   3.100  11.341  0.7750 -0.8144  0.2489
 1537TIP3    H126026   0.439   3.172  11.335  0.5643 -0.9395  0.9062
 1537TIP3    H226027   0.466   3.033  11.283  1.5500  0.0139 -1.2586
 1538TIP3   OH226028   4.984   1.134   2.449 -0.2299 -0.1521 -0.2525
 1538TIP3    H126029   4.990   1.221   2.488  0.2482 -0.0253 -0.6019
 1538TIP3    H226030   4.965   1.076   2.522 -0.4563  0.2305 -0.0020
 1539TIP3   OH226031   2.798   3.466   0.929 -0.2091  0.5416  0.9695
 1539TIP3    H126032   2.787   3.395   0.866 -0.8206  0.2510  1.3939
 1539TIP3    H226033   2.855   3.529   0.884  0.8454 -0.4864  0.8194
 1540TIP3   OH226034   6.286   0.563  12.386  0.4202  0.2146  0.5202
 1540TIP3    H126035   6.278   0.480  12.432  1.6142 -1.0677 -1.4327
 1540TIP3    H226036   6.207   0.568  12.331  0.4596  0.2807  0.4692
 1541TIP3   OH226037   6.307   2.272  12.430  0.2241  0.0592  0.6628
 1541TIP3    H126038   6.390   2.236  12.398  0.3690 -0.2858  1.3983
 1541TIP3    H226039   6.251   2.275  12.352  1.8890  3.3058 -0.5628
 1542TIP3   OH226040   6.071   2.534  13.480 -0.0440  0.3583  0.3274
 1542TIP3    H126041   6.102   2.522  13.391 -0.6490 -0.6121  0.2386
 1542TIP3    H226042   5.980   2.563  13.470 -0.6825 -1.4286  0.6225
 1543TIP3   OH226043   0.865   4.535   4.605 -0.1014 -0.2192  0.3756
 1543TIP3    H126044   0.776   4.555   4.632 -0.0300 -1.4580  1.6542
 1543TIP3    H226045   0.872   4.440   4.614  0.8482 -0.3499 -1.3022
 1544TIP3   OH226046   5.023   0.100   0.231 -0.3198  0.1463 -0.3403
 1544TIP3    H126047   5.027   0.166   0.163  1.2812  2.1711  1.5537
 1544TIP3    H226048   5.080   0.134   0.301 -2.8835 -1.0774  2.6070
 1545TIP3   OH226049   4.378   0.148   5.709  1.2682  0.1003 -0.0937
 1545TIP3    H126050   4.434   0.190   5.644  1.0250  0.3146 -0.1670
 1545TIP3    H226051   4.294   0.137   5.664  2.1469 -3.3515 -1.2218
 1546TIP3   OH226052   1.516   6.093  13.255 -0.2073 -0.2646 -0.2419
 1546TIP3    H126053   1.597   6.049  13.230 -1.7142 -1.9275 -2.6216
 1546TIP3    H226054   1.484   6.134  13.174 -0.6569  2.3578  1.1312
 1547TIP3   OH226055   3.141   4.187  16.973  0.3199 -0.0646 -0.3881
 1547TIP3    H126056   3.220   4.237  16.994  0.7293 -1.2917  1.2289
 1547TIP3    H226057   3.172   4.098  16.961 -0.6383 -0.2864 -1.3857
 1548TIP3   OH226058   2.669   5.114   0.052 -0.4935 -0.2521 -0.0036
 1548TIP3    H126059   2.676   5.043   0.116  2.5732 -0.3522 -0.2947
 1548TIP3    H226060   2.603   5.084  -0.011 -0.9604 -1.7660  1.1628
 1549TIP3   OH226061   1.392   5.916   5.342 -0.3234  0.5380 -0.2675
 1549TIP3    H126062   1.418   5.827   5.318 -2.1108 -0.3840  0.8921
 1549TIP3    H226063   1.426   5.927   5.431 -1.3978  0.3733  0.1879
 1550TIP3   OH226064   1.029   2.083   5.240 -0.3687  0.4402 -0.0865
 1550TIP3    H126065   0.934   2.079   5.231 -0.2626  0.6586 -1.4292
 1550TIP3    H226066   1.062   2.072   5.151  0.8182  1.8847  0.1433
 1551TIP3   OH226067   3.773   6.162   6.547 -0.1537  0.0053  0.5470
 1551TIP3    H126068   3.796   6.092   6.486  0.7855  0.5529  0.2399
 1551TIP3    H226069   3.740   6.233   6.491  1.1297  0.6771  0.5955
 1552TIP3   OH226070   6.776   4.746   0.186  1.0609  0.2506 -0.1149
 1552TIP3    H126071   6.788   4.675   0.123 -1.1354 -0.2956  0.0023
 1552TIP3    H226072   6.835   4.725   0.258  3.6025  0.8725 -1.8823
 1553TIP3   OH226073   1.077   4.013  15.661  0.0268 -0.0958  0.4709
 1553TIP3    H126074   1.017   3.941  15.639  0.5726 -0.8713  1.4118
 1553TIP3    H226075   1.024   4.075  15.710 -0.4744  0.2061 -0.4273
 1554TIP3   OH226076   2.395   1.708  13.833 -0.2654  0.1505 -0.4889
 1554TIP3    H126077   2.363   1.795  13.854  1.0374  0.3580  0.8700
 1554TIP3    H226078   2.473   1.723  13.779  0.5892 -0.0866  0.6326
 1555TIP3   OH226079   2.667   6.464  15.379  0.5803  0.0062  0.0258
 1555TIP3    H126080   2.754   6.505  15.383  0.1061  0.9224  1.6325
 1555TIP3    H226081   2.686   6.370  15.372  1.6855  0.2581 -0.7841
 1556TIP3   OH226082   0.622   5.413   3.072 -0.2380  0.1201 -0.0857
 1556TIP3    H126083   0.629   5.438   2.980 -0.7426  0.9832  0.0961
 1556TIP3    H226084   0.529   5.419   3.091  0.1097  2.7758  1.2121
 1557TIP3   OH226085   0.315   3.268  12.668  0.1071 -0.1640  0.3317
 1557TIP3    H126086   0.250   3.305  12.727  1.1021  1.6068  0.3848
 1557TIP3    H226087   0.377   3.339  12.653 -0.4995 -0.2596 -3.4752
 1558TIP3   OH226088   0.453   0.504  16.535 -0.5777 -0.5270 -0.5418
 1558TIP3    H126089   0.475   0.593  16.506 -0.6997 -1.0083 -2.2429
 1558TIP3    H226090   0.530   0.476  16.584 -0.2990  0.3156 -0.4775
 1559TIP3   OH226091   5.715   2.471   4.733 -0.3117 -0.5449  0.0095
 1559TIP3    H126092   5.715   2.523   4.813 -1.7015  1.3942 -1.1624
 1559TIP3    H226093   5.748   2.530   4.665 -1.3340 -1.3751 -1.2685
 1560TIP3   OH226094   1.124   2.868   6.750  0.0333 -0.6658  0.0416
 1560TIP3    H126095   1.089   2.783   6.721 -0.5168  0.1378 -1.7609
 1560TIP3    H226096   1.122   2.923   6.672 -0.4164  1.2888  1.3532
 1561TIP3   OH226097   2.161   4.382   5.495 -0.2802 -0.1947  0.3196
 1561TIP3    H126098   2.097   4.312   5.511  1.9061 -2.0978  1.2395
 1561TIP3    H226099   2.214   4.349   5.422 -0.8569  1.7863 -1.0888
 1562TIP3   OH226100   2.071   6.309  13.402  0.1593 -0.6915  0.2431
 1562TIP3    H126101   2.072   6.238  13.467 -0.0077 -0.1521  0.8394
 1562TIP3    H226102   1.978   6.327  13.389  0.2079 -0.4598  0.2260
 1563TIP3   OH226103   5.258   2.004  12.865 -0.0713  0.0653 -0.0653
 1563TIP3    H126104   5.185   2.052  12.826 -0.4571  0.5229  1.1901
 1563TIP3    H226105   5.311   2.071  12.909  1.6737 -0.1067 -1.7464
 1564TIP3   OH226106   6.469   6.698   0.982 -0.2641  0.1560  0.0531
 1564TIP3    H126107   6.545   6.743   1.020  0.6895 -0.3778 -1.1593
 1564TIP3    H226108   6.506   6.620   0.941 -1.5586 -0.3952 -0.0940
 1565TIP3   OH226109   3.851   2.805   4.744  0.0357  0.0120  0.3034
 1565TIP3    H126110   3.894   2.793   4.659 -0.2495 -1.6623  0.3520
 1565TIP3    H226111   3.801   2.886   4.734 -1.5604 -1.1069 -1.8738
 1566TIP3   OH226112   0.057   3.064   5.681 -0.1816 -0.3553  1.1271
 1566TIP3    H126113   0.104   3.057   5.598 -1.7592 -0.5647  0.2175
 1566TIP3    H226114   0.082   2.985   5.729 -1.0350 -1.4317 -0.1289
 1567TIP3   OH226115   2.833   0.374  11.596  0.3010  0.0064  0.1950
 1567TIP3    H126116   2.751   0.337  11.566 -0.1097  0.1170  1.1612
 1567TIP3    H226117   2.856   0.439  11.529  0.3597 -1.0360 -0.8243
 1568TIP3   OH226118   3.836   6.758  12.525 -0.4243 -0.0943  0.1770
 1568TIP3    H126119   3.825   6.849  12.550 -0.1238 -0.2408  0.8830
 1568TIP3    H226120   3.756   6.715  12.556 -0.3744 -0.1449  0.2362
 1569TIP3   OH226121   3.512   2.028  16.656  0.2561 -0.6994  0.0111
 1569TIP3    H126122   3.557   1.967  16.597 -0.3811 -1.8253  0.6585
 1569TIP3    H226123   3.467   1.972  16.719 -0.8722  0.4337  0.2563
 1570TIP3   OH226124   5.682   4.432  12.534  0.0673 -0.4506 -0.2062
 1570TIP3    H126125   5.685   4.502  12.600 -0.4694 -1.2976  0.7363
 1570TIP3    H226126   5.742   4.365  12.567 -0.4911 -1.0488 -0.3927
 1571TIP3   OH226127   4.717   2.722   4.894  0.1748 -0.1768  0.0917
 1571TIP3    H126128   4.670   2.683   4.967  0.5761  0.7350  0.8504
 1571TIP3    H226129   4.798   2.670   4.887  0.2118 -0.1631  0.4049
 1572TIP3   OH226130   6.473   2.478  13.245  0.3434 -0.4377 -0.2835
 1572TIP3    H126131   6.507   2.388  13.249  1.1997 -0.1110  0.2769
 1572TIP3    H226132   6.536   2.525  13.190  1.3040  0.3639  1.4066
 1573TIP3   OH226133   4.262   2.185  16.672 -0.0830  0.1127  0.2809
 1573TIP3    H126134   4.212   2.128  16.614 -0.0454  0.7857 -0.4200
 1573TIP3    H226135   4.238   2.156  16.760  1.4689 -2.3742  0.0056
 1574TIP3   OH226136   5.144   4.526   2.388  0.0485  0.5887  0.3804
 1574TIP3    H126137   5.143   4.450   2.445 -0.4038  1.3786  1.4492
 1574TIP3    H226138   5.054   4.532   2.354 -0.1304  1.0912  0.9225
 1575TIP3   OH226139   2.029   5.332  15.597 -0.5850 -0.2769 -0.1817
 1575TIP3    H126140   1.998   5.282  15.673  0.6101  0.2279  0.6768
 1575TIP3    H226141   2.025   5.423  15.625  1.9236 -0.1766  0.1530
 1576TIP3   OH226142   3.756   4.564  10.403  0.0783 -0.2759  0.0599
 1576TIP3    H126143   3.736   4.538  10.493 -0.4528  2.0818  0.6847
 1576TIP3    H226144   3.835   4.515  10.381 -0.2992 -1.5900  1.4577
 1577TIP3   OH226145   5.957   1.772   2.088 -0.6260 -0.2465 -0.2867
 1577TIP3    H126146   6.029   1.820   2.046 -0.4755 -0.6107 -0.4546
 1577TIP3    H226147   5.893   1.839   2.111 -0.4905  0.0159 -0.6640
 1578TIP3   OH226148   3.222   3.660  14.720  0.1127 -0.1869 -0.4065
 1578TIP3    H126149   3.226   3.603  14.796  2.0439 -0.0595 -0.3729
 1578TIP3    H226150   3.131   3.690  14.718 -0.3928 -1.5090  0.8443
 1579TIP3   OH226151   1.871   1.961  14.796  0.1955  0.1960  0.7639
 1579TIP3    H126152   1.900   1.879  14.836 -0.8020 -0.1609  0.7787
 1579TIP3    H226153   1.902   2.029  14.856  1.9353 -0.0777  0.2249
 1580TIP3   OH226154   6.219   0.968  11.046  0.0062 -0.4052  0.2651
 1580TIP3    H126155   6.226   0.897  10.983 -1.5354  0.0000 -0.4252
 1580TIP3    H226156   6.132   0.957  11.085 -0.4093  1.2525 -0.0911
 1581TIP3   OH226157   1.702   2.220  14.539  0.0052  0.8980 -0.2467
 1581TIP3    H126158   1.668   2.306  14.562 -1.0491  0.2418  0.7690
 1581TIP3    H226159   1.663   2.201  14.454  0.0038  1.3139 -0.3393
 1582TIP3   OH226160   4.094   4.671   1.722 -0.4874  0.3473  0.2709
 1582TIP3    H126161   4.047   4.591   1.745  1.0188 -0.9174 -0.8001
 1582TIP3    H226162   4.171   4.671   1.778 -0.3560  0.9198  0.0958
 1583TIP3   OH226163   3.589   1.301   4.757 -0.0540  0.8488  0.1092
 1583TIP3    H126164   3.618   1.272   4.670  2.5272  1.3848  0.6955
 1583TIP3    H226165   3.611   1.394   4.759  0.1985  0.7761  1.4212
 1584TIP3   OH226166   6.010   3.357  14.671  0.2957 -0.5230  0.2273
 1584TIP3    H126167   5.949   3.350  14.745 -0.6019  2.4643 -0.1140
 1584TIP3    H226168   5.955   3.383  14.597  1.6117 -0.5584 -0.7982
 1585TIP3   OH226169   6.795   2.453   3.199 -0.0396 -0.0535  0.2756
 1585TIP3    H126170   6.792   2.547   3.180  2.4935  0.7537  3.1747
 1585TIP3    H226171   6.871   2.421   3.151  0.1168 -0.2804  0.6806
 1586TIP3   OH226172   2.324   0.927  11.165  0.6240  0.5508  0.4049
 1586TIP3    H126173   2.383   0.868  11.119 -0.7671 -1.3156  0.9125
 1586TIP3    H226174   2.294   0.877  11.240 -0.9731  1.7389  0.6050
 1587TIP3   OH226175   0.774   4.418   0.689  0.6775  0.3371  0.3817
 1587TIP3    H126176   0.822   4.337   0.672  0.8655  0.4068  0.5675
 1587TIP3    H226177   0.705   4.392   0.750  0.8840  0.3581  0.6291
 1588TIP3   OH226178   3.008   2.552  11.957 -0.1364 -0.7021 -0.1427
 1588TIP3    H126179   3.066   2.565  12.031  2.2095 -3.2717 -1.3435
 1588TIP3    H226180   3.012   2.634  11.908  4.0728 -1.2720 -1.0932
 1589TIP3   OH226181   6.036   6.268  11.419  0.0209  0.2323  0.0358
 1589TIP3    H126182   5.995   6.286  11.334  1.2024 -0.6957 -0.7779
 1589TIP3    H226183   5.969   6.223  11.469  0.3083 -2.3018 -1.6823
 1590TIP3   OH226184   1.001   0.060  10.695 -0.0621  0.6574 -0.2890
 1590TIP3    H126185   0.978   0.134  10.638  0.3288  0.1301 -1.1547
 1590TIP3    H226186   1.080   0.024  10.656  0.5062  0.5882  0.9002
 1591TIP3   OH226187   4.082   6.202  12.069  0.1742  0.3353  0.2978
 1591TIP3    H126188   3.988   6.219  12.065  0.1928  0.7303  1.3326
 1591TIP3    H226189   4.111   6.242  12.151  1.7011  2.4279 -1.1372
 1592TIP3   OH226190   3.868   4.678   4.983  0.4014 -0.4789  0.0729
 1592TIP3    H126191   3.943   4.641   5.029 -0.2919 -0.9669  0.8442
 1592TIP3    H226192   3.900   4.761   4.947  1.3296 -0.7263  0.3044
 1593TIP3   OH226193   3.841   1.663  12.879  0.4461 -0.0692 -0.1098
 1593TIP3    H126194   3.911   1.720  12.910  2.0361 -1.2356 -1.3457
 1593TIP3    H226195   3.859   1.579  12.921 -0.7791 -0.1521  0.2757
 1594TIP3   OH226196   3.093   5.233  16.330  1.0451  0.1088  0.1169
 1594TIP3    H126197   3.123   5.273  16.249 -0.9703 -1.1479 -1.3727
 1594TIP3    H226198   3.014   5.282  16.354  1.8190  0.7048  1.5721
 1595TIP3   OH226199   3.122   3.478   5.987 -0.2628 -0.0899  0.2139
 1595TIP3    H126200   3.164   3.442   6.065 -0.0387  0.1850  0.2232
 1595TIP3    H226201   3.120   3.572   6.003 -0.4940 -0.0643  0.0220
 1596TIP3   OH226202   3.847   5.070   1.002  0.3960 -0.0180 -0.3584
 1596TIP3    H126203   3.823   5.160   0.983  0.4502  0.3867  1.2936
 1596TIP3    H226204   3.939   5.074   1.028  0.9889 -0.8717 -2.2138
 1597TIP3   OH226205   6.800   4.198   5.251  0.2214  0.4591  0.4311
 1597TIP3    H126206   6.791   4.161   5.339  0.7104 -0.6552  0.0310
 1597TIP3    H226207   6.725   4.164   5.202  0.5079  0.2385  0.1403
 1598TIP3   OH226208   6.502   4.989  16.132  0.5791 -0.3212  0.2836
 1598TIP3    H126209   6.465   4.903  16.111  1.6443 -0.4007 -1.4509
 1598TIP3    H226210   6.447   5.051  16.084  0.1290 -0.0673  1.1153
 1599TIP3   OH226211   4.782   3.912  16.109  0.4971 -0.0328  0.3391
 1599TIP3    H126212   4.689   3.921  16.088  0.4151  1.5164  1.2531
 1599TIP3    H226213   4.784   3.899  16.204  1.2174  0.0673  0.3408
 1600TIP3   OH226214   3.379   0.425  12.759 -0.8069 -0.1829 -0.0765
 1600TIP3    H126215   3.316   0.393  12.694 -0.3842 -0.4467 -0.3624
 1600TIP3    H226216   3.371   0.520  12.756  0.5074 -0.0803 -1.8556
 1601TIP3   OH226217   5.496   4.302  14.342  0.3874 -0.2608 -0.6351
 1601TIP3    H126218   5.445   4.328  14.419  0.7085 -2.5026  0.4292
 1601TIP3    H226219   5.458   4.353  14.270 -0.1082  1.6966  0.9264
 1602TIP3   OH226220   2.286   5.718   5.201  0.1194  0.1443  0.6375
 1602TIP3    H126221   2.356   5.653   5.192 -0.6630 -0.5404 -0.8987
 1602TIP3    H226222   2.218   5.673   5.251 -0.5525 -0.3975 -0.6907
 1603TIP3   OH226223   3.512   3.972   3.815 -0.0423  0.4883 -0.2822
 1603TIP3    H126224   3.506   3.987   3.910 -0.3144  0.8122 -0.3497
 1603TIP3    H226225   3.604   3.989   3.794  0.2316 -0.4985  0.0785
 1604TIP3   OH226226   1.523   2.757   3.578 -0.5499 -0.1356  0.5762
 1604TIP3    H126227   1.563   2.833   3.536  0.9772 -0.3059  1.6429
 1604TIP3    H226228   1.486   2.706   3.506  0.4488  0.4561 -0.3818
 1605TIP3   OH226229   5.770   4.136  14.018  0.5579  0.5432  0.4472
 1605TIP3    H126230   5.844   4.143  13.957  0.5566 -0.0101  0.3814
 1605TIP3    H226231   5.693   4.157  13.965  0.4566 -0.8120  0.0260
 1606TIP3   OH226232   2.343   5.909  12.002 -0.0178 -0.0407 -0.6289
 1606TIP3    H126233   2.416   5.954  12.044  0.2575  0.0017 -1.1398
 1606TIP3    H226234   2.359   5.920  11.908 -1.0268  0.5079 -0.7448
 1607TIP3   OH226235   1.295   5.829   3.096 -0.1205 -0.3496 -0.3186
 1607TIP3    H126236   1.338   5.895   3.041 -1.2522 -0.4884 -1.4159
 1607TIP3    H226237   1.353   5.753   3.091  0.1240 -0.1392 -0.7754
 1608TIP3   OH226238   4.338   6.274   3.521 -0.5586  0.3067  0.2845
 1608TIP3    H126239   4.245   6.298   3.513 -0.1646  1.1504 -2.5927
 1608TIP3    H226240   4.384   6.332   3.461  1.7406 -0.8380  0.8123
 1609TIP3   OH226241   0.254   4.148  15.779  0.4266  0.5467 -0.3614
 1609TIP3    H126242   0.318   4.081  15.757 -0.0103  0.7364 -2.4511
 1609TIP3    H226243   0.271   4.169  15.871  1.5731 -1.2988 -0.1004
 1610TIP3   OH226244   1.053   4.273   3.508 -0.5240 -0.2473  0.3918
 1610TIP3    H126245   0.976   4.330   3.513 -0.6690 -0.3652 -0.3318
 1610TIP3    H226246   1.049   4.220   3.588 -0.2837  0.8627  1.1654
 1611TIP3   OH226247   3.016   5.116   5.840 -0.1584 -0.4062  0.0918
 1611TIP3    H126248   2.981   5.198   5.873 -2.2781 -1.5656  0.8635
 1611TIP3    H226249   2.963   5.048   5.881  1.2550 -2.1690 -0.8410
 1612TIP3   OH226250   6.004   4.134   3.334  0.1088 -0.2911  0.6884
 1612TIP3    H126251   6.076   4.158   3.392  0.3267  0.6962  0.0296
 1612TIP3    H226252   6.042   4.135   3.246 -0.4632 -0.7756  0.4278
 1613TIP3   OH226253   5.135   4.589   1.472  0.4507 -0.0313 -0.0074
 1613TIP3    H126254   5.170   4.677   1.473  1.7769 -0.5285 -0.7649
 1613TIP3    H226255   5.196   4.537   1.524 -0.7552 -0.3680  1.1304
 1614TIP3   OH226256   5.409   1.369  16.774  0.1731 -0.5064 -0.3315
 1614TIP3    H126257   5.454   1.307  16.831  1.8707  1.1821  0.2604
 1614TIP3    H226258   5.430   1.341  16.685 -0.3234 -1.6084 -0.1252
 1615TIP3   OH226259   6.514   4.218   0.611 -0.0548 -0.6553 -0.2321
 1615TIP3    H126260   6.591   4.221   0.668 -0.2142 -0.6171 -0.0191
 1615TIP3    H226261   6.484   4.309   0.605  0.0198 -0.6446 -0.4567
 1616TIP3   OH226262   0.214   1.754   4.203 -0.2189 -0.2488  0.3032
 1616TIP3    H126263   0.176   1.824   4.150  0.6650  0.1487  0.1651
 1616TIP3    H226264   0.140   1.701   4.231 -0.6810 -1.0125 -2.0919
 1617TIP3   OH226265   2.535   1.851   1.178 -0.0423 -0.2432 -0.0448
 1617TIP3    H126266   2.616   1.841   1.127  1.8705 -0.1536  2.7242
 1617TIP3    H226267   2.517   1.763   1.212 -0.4118 -0.0268  0.3285
 1618TIP3   OH226268   3.410   0.460   3.484 -0.1634 -0.1481 -0.5257
 1618TIP3    H126269   3.317   0.462   3.458 -0.2576 -3.1690 -0.7778
 1618TIP3    H226270   3.446   0.384   3.438  2.0557  0.0078  0.8139
 1619TIP3   OH226271   1.746   3.671  15.021 -0.4799  0.3807 -0.0059
 1619TIP3    H126272   1.741   3.767  15.020 -1.3856  0.3373 -1.1126
 1619TIP3    H226273   1.813   3.652  15.087 -0.0631  1.7815  0.0192
 1620TIP3   OH226274   4.449   4.001  16.751 -0.6040  0.1446  0.6042
 1620TIP3    H126275   4.517   4.046  16.802  0.4654 -2.0160  1.1712
 1620TIP3    H226276   4.414   3.936  16.811 -2.4644  0.4835 -0.0474
 1621TIP3   OH226277   6.734   0.275  11.471  0.0763  0.1071  0.0123
 1621TIP3    H126278   6.781   0.210  11.418  2.5449  1.7534 -0.0040
 1621TIP3    H226279   6.702   0.338  11.407 -1.2777 -0.4417  0.1259
 1622TIP3   OH226280   1.549   1.549   0.958  0.9064  0.0013  0.5929
 1622TIP3    H126281   1.548   1.633   1.004 -4.5648  0.5591  0.0975
 1622TIP3    H226282   1.468   1.506   0.986  0.7959 -2.7029 -3.2164
 1623TIP3   OH226283   5.711   6.332   3.719  0.1535  0.3481 -0.5101
 1623TIP3    H126284   5.644   6.351   3.654 -0.4910 -0.5049 -0.1279
 1623TIP3    H226285   5.672   6.360   3.802 -0.2161 -1.1652 -0.1387
 1624TIP3   OH226286   2.502   6.627  14.968  0.4051  0.0200  0.2934
 1624TIP3    H126287   2.485   6.627  15.062  0.5356 -1.4057  0.3362
 1624TIP3    H226288   2.436   6.687  14.932 -0.1857 -0.0601  1.1979
 1625TIP3   OH226289   1.738   0.654   1.396 -0.1315  0.2841 -0.1096
 1625TIP3    H126290   1.767   0.594   1.327 -1.1648 -0.5250  0.1321
 1625TIP3    H226291   1.649   0.680   1.370 -0.3833  0.2798  0.7019
 1626TIP3   OH226292   3.785   0.552  12.613  0.1496  0.0699 -0.3365
 1626TIP3    H126293   3.717   0.602  12.658  0.1268  0.0823 -0.3839
 1626TIP3    H226294   3.819   0.612  12.547  0.1114  0.0174 -0.4046
 1627TIP3   OH226295   1.793   0.125   1.166 -0.5943  0.0200  0.4781
 1627TIP3    H126296   1.836   0.181   1.100  2.2074 -0.1974  1.9575
 1627TIP3    H226297   1.842   0.043   1.162 -2.5759 -1.2191  0.5795
 1628TIP3   OH226298   4.905   2.336  16.929  0.6210  0.1053  0.0083
 1628TIP3    H126299   4.820   2.329  16.973  0.9937  1.0962  0.9547
 1628TIP3    H226300   4.885   2.359  16.839 -0.1718 -1.8937 -0.3776
 1629TIP3   OH226301   3.526   2.463  11.205  0.2981 -0.1723 -0.5898
 1629TIP3    H126302   3.440   2.469  11.164  0.9737  0.9712 -1.9001
 1629TIP3    H226303   3.562   2.551  11.201  1.4175 -0.5587  0.2208
 1630TIP3   OH226304   1.245   3.835  14.049 -0.5295 -0.3230 -0.1597
 1630TIP3    H126305   1.245   3.930  14.061  2.3546 -0.2667  0.2198
 1630TIP3    H226306   1.338   3.812  14.042 -1.1600 -3.0784 -0.6893
 1631TIP3   OH226307   3.330   6.490  11.877  0.4376  0.9874 -0.0562
 1631TIP3    H126308   3.361   6.572  11.838 -0.2579  0.5129 -1.6698
 1631TIP3    H226309   3.346   6.501  11.971  0.9948  2.6834 -0.3144
 1632TIP3   OH226310   5.007   4.100   4.083 -0.5527  0.0125 -0.1611
 1632TIP3    H126311   5.064   4.150   4.141 -0.7686 -0.2883  0.3216
 1632TIP3    H226312   4.954   4.046   4.143  0.3143 -1.4819 -0.6952
 1633TIP3   OH226313   2.026   4.503   4.559  0.0150 -0.2031  0.2175
 1633TIP3    H126314   1.949   4.446   4.564 -0.0438 -0.0097  3.0727
 1633TIP3    H226315   1.998   4.584   4.601  1.4725  0.2305  0.4089
 1634TIP3   OH226316   3.684   5.955  14.526  0.0921  0.2822 -0.4796
 1634TIP3    H126317   3.609   5.930  14.472 -1.5760 -0.4181  1.9762
 1634TIP3    H226318   3.664   6.044  14.555 -0.6130 -0.4314  1.3723
 1635TIP3   OH226319   3.337   6.241  10.898  0.3618 -0.3660 -0.1583
 1635TIP3    H126320   3.344   6.236  10.993 -1.4182 -0.1372  0.0129
 1635TIP3    H226321   3.316   6.332  10.880 -1.5125 -0.8208 -0.5520
 1636TIP3   OH226322   2.043   5.888  13.205 -0.1807 -0.3585 -0.3421
 1636TIP3    H126323   2.133   5.883  13.237 -0.2521 -0.5614 -0.1686
 1636TIP3    H226324   2.030   5.980  13.184  0.1243 -0.3567 -0.5353
 1637TIP3   OH226325   4.540   1.566  11.866 -0.1678  0.4868 -0.1483
 1637TIP3    H126326   4.613   1.610  11.821  1.2356  0.4923  1.9648
 1637TIP3    H226327   4.548   1.474  11.841 -1.0132  0.8620 -1.8967
 1638TIP3   OH226328   2.511   0.344   2.641  0.0812  0.3712 -0.4305
 1638TIP3    H126329   2.540   0.401   2.713  0.9691  0.9595 -1.2350
 1638TIP3    H226330   2.587   0.337   2.584 -0.5138 -0.3644 -1.1500
 1639TIP3   OH226331   2.634   0.067  16.688 -0.3867 -0.3355 -0.1615
 1639TIP3    H126332   2.599   0.135  16.631 -1.0846  0.1141  0.7710
 1639TIP3    H226333   2.685   0.011  16.630  0.2610  1.0124 -0.9404
 1640TIP3   OH226334   5.762   6.353   5.181  0.2275  0.0432  0.3964
 1640TIP3    H126335   5.720   6.363   5.096 -1.2497  1.5595  1.2614
 1640TIP3    H226336   5.762   6.258   5.197  0.0136 -0.2093 -1.0068
 1641TIP3   OH226337   3.442   4.795  13.023 -0.3081  0.1759 -0.0606
 1641TIP3    H126338   3.362   4.750  12.999 -1.5564  2.2579 -0.0371
 1641TIP3    H226339   3.460   4.766  13.113 -2.1608  1.1252  0.6698
 1642TIP3   OH226340   1.466   3.878   3.805 -0.0883 -0.3073  0.8249
 1642TIP3    H126341   1.507   3.840   3.727 -0.0271 -0.5778  0.9846
 1642TIP3    H226342   1.518   3.843   3.878 -0.1354 -0.0440  0.9851
 1643TIP3   OH226343   5.386   3.920   5.155 -0.8489 -0.2411 -0.4054
 1643TIP3    H126344   5.351   3.831   5.146  0.4896 -0.8205 -0.2022
 1643TIP3    H226345   5.324   3.975   5.107 -0.6078 -1.5641 -2.3910
 1644TIP3   OH226346   5.604   0.872  10.470 -0.1049  0.5806  0.4373
 1644TIP3    H126347   5.698   0.860  10.454 -0.3270  0.0022 -0.5480
 1644TIP3    H226348   5.587   0.819  10.549  0.2856  0.1945  0.2717
 1645TIP3   OH226349   4.024   2.671   4.913  0.3733  0.0095  0.7241
 1645TIP3    H126350   4.093   2.623   4.868 -0.6511 -0.5221 -0.3385
 1645TIP3    H226351   3.978   2.718   4.843  0.3215  1.2260  1.5414
 1646TIP3   OH226352   2.367   2.848  16.630  0.1526 -0.1858 -0.0480
 1646TIP3    H126353   2.334   2.821  16.544 -0.2198 -3.1783  0.9078
 1646TIP3    H226354   2.289   2.858  16.684  0.4724 -0.3010  0.4449
 1647TIP3   OH226355   1.134   6.244  11.569 -0.3519  0.2875  0.0745
 1647TIP3    H126356   1.205   6.211  11.624  1.3741  1.4438 -1.3339
 1647TIP3    H226357   1.109   6.169  11.515 -0.2278 -0.1367  0.5929
 1648TIP3   OH226358   5.498   3.948   0.279 -0.2519  0.6393 -0.3497
 1648TIP3    H126359   5.428   4.013   0.277  0.2859  1.2579  0.5239
 1648TIP3    H226360   5.510   3.929   0.372  0.0433 -0.2283 -0.5594
 1649TIP3   OH226361   2.061   5.930   3.140  0.3366 -0.1886  0.4012
 1649TIP3    H126362   2.106   5.849   3.164  1.5767  0.6595  1.0583
 1649TIP3    H226363   2.105   5.998   3.191 -0.1789  1.0062 -0.6817
 1650TIP3   OH226364   6.791   2.938  14.213 -0.4163  0.7512  0.2519
 1650TIP3    H126365   6.720   2.987  14.171  0.8272  0.0225 -2.9602
 1650TIP3    H226366   6.799   2.858  14.161  1.8086  0.1620  1.3984
 1651TIP3   OH226367   4.554   3.309  15.891  0.2284  0.2711 -0.9049
 1651TIP3    H126368   4.592   3.397  15.886 -0.5632  0.5711 -2.0476
 1651TIP3    H226369   4.463   3.323  15.913  0.3613 -0.3477  0.0941
 1652TIP3   OH226370   4.808   3.881  16.410 -0.1400  0.3075 -0.1782
 1652TIP3    H126371   4.747   3.953  16.427  0.3749  0.4635  1.1581
 1652TIP3    H226372   4.815   3.836  16.494  0.1860 -0.8061 -0.7863
 1653TIP3   OH226373   1.365   4.196  14.526  0.1301  0.1281  0.5731
 1653TIP3    H126374   1.366   4.102  14.546  1.0401  0.0253  0.0792
 1653TIP3    H226375   1.382   4.239  14.610  0.8501 -0.1884  0.5918
 1654TIP3   OH226376   4.789   3.367   4.084  1.1306  0.2134 -0.1644
 1654TIP3    H126377   4.762   3.449   4.125  0.8265 -0.0735  0.2169
 1654TIP3    H226378   4.739   3.362   4.003  1.3780  0.5492 -0.3426
 1655TIP3   OH226379   2.860   2.025   4.111 -0.8901  0.3604  0.0384
 1655TIP3    H126380   2.867   1.948   4.167 -0.6707  0.2610 -0.1236
 1655TIP3    H226381   2.895   1.996   4.026 -1.1766  0.5219 -0.1365
 1656TIP3   OH226382   1.977   1.360   1.536 -0.0762 -0.0483  0.5275
 1656TIP3    H126383   1.986   1.319   1.622 -0.4334 -0.8392  0.1936
 1656TIP3    H226384   2.066   1.362   1.501 -0.2696 -2.1880 -0.1909
 1657TIP3   OH226385   5.062   5.098   4.370  0.2585  0.4250 -0.3843
 1657TIP3    H126386   4.987   5.097   4.309  1.1705 -0.0267 -1.5419
 1657TIP3    H226387   5.087   5.190   4.376  0.5196  0.4147 -1.1696
 1658TIP3   OH226388   1.028   0.369   4.637  0.5370  0.1277 -0.0352
 1658TIP3    H126389   0.956   0.424   4.668  0.3491  0.7516 -1.5041
 1658TIP3    H226390   1.106   0.421   4.650  0.5206  0.1744 -0.1256
 1659TIP3   OH226391   1.291   5.438   1.117 -0.1663  0.1208  0.6413
 1659TIP3    H126392   1.272   5.411   1.027  2.2033 -1.9134  0.6634
 1659TIP3    H226393   1.259   5.367   1.171 -1.4832  1.2875  1.4614
 1660TIP3   OH226394   6.658   0.853   4.418 -0.3700  0.0821 -0.1943
 1660TIP3    H126395   6.750   0.876   4.404 -0.1629  0.5868  1.7432
 1660TIP3    H226396   6.647   0.771   4.370  2.3870 -2.5363  3.1470
 1661TIP3   OH226397   4.336   5.922  16.786  0.5305 -0.0244  0.0570
 1661TIP3    H126398   4.323   5.915  16.881  0.4975 -2.2016 -0.0603
 1661TIP3    H226399   4.271   5.986  16.757 -1.4406 -1.4490  1.1417
 1662TIP3   OH226400   2.744   6.493  12.421 -0.2651  0.2938 -0.5869
 1662TIP3    H126401   2.752   6.486  12.326 -0.3770 -1.8632 -0.4861
 1662TIP3    H226402   2.671   6.554  12.434  1.5460  2.8673 -1.7840
 1663TIP3   OH226403   1.029   4.896   5.197  1.4544 -0.1887 -0.0846
 1663TIP3    H126404   1.035   4.990   5.180  0.7332  0.0468  0.8500
 1663TIP3    H226405   1.112   4.873   5.239  1.4656  0.1164  0.0602
 1664TIP3   OH226406   0.908   2.207   5.776 -0.4964 -0.1262 -1.2062
 1664TIP3    H126407   0.969   2.272   5.812  0.5898 -0.7055 -1.9612
 1664TIP3    H226408   0.823   2.231   5.814  0.6385 -1.2030  2.4937
 1665TIP3   OH226409   6.020   2.247   5.508  0.0785  0.6033 -0.6421
 1665TIP3    H126410   6.101   2.296   5.522  0.6426 -0.5268  0.2007
 1665TIP3    H226411   5.969   2.261   5.588  0.0180  0.2282 -0.6149
 1666TIP3   OH226412   0.717   2.823  13.502 -0.2857 -0.4831  0.4404
 1666TIP3    H126413   0.798   2.833  13.553  0.5188 -1.3977 -0.6094
 1666TIP3    H226414   0.682   2.912  13.495  2.5760  0.6469 -2.1452
 1667TIP3   OH226415   1.955   3.665   2.107  0.3950  0.0207 -0.1989
 1667TIP3    H126416   1.996   3.602   2.167 -2.4567 -2.2287 -0.3865
 1667TIP3    H226417   1.942   3.744   2.160 -0.1997 -1.2048  1.5768
 1668TIP3   OH226418   4.281   1.673  12.554 -0.2682 -0.3310  0.1859
 1668TIP3    H126419   4.271   1.742  12.619  0.2810 -0.2436  0.1765
 1668TIP3    H226420   4.374   1.674  12.531 -0.3177 -0.8567 -0.0513
 1669TIP3   OH226421   3.697   2.822   5.019  0.5336 -0.1615 -0.7233
 1669TIP3    H126422   3.603   2.822   5.039  0.6226 -1.2501 -0.2207
 1669TIP3    H226423   3.710   2.744   4.965  0.9639  0.6365 -1.7954
 1670TIP3   OH226424   2.416   1.442  11.628  1.2967 -0.0765  0.3212
 1670TIP3    H126425   2.396   1.518  11.573 -0.0693 -0.7401 -0.1397
 1670TIP3    H226426   2.430   1.479  11.715  2.6909  0.9022 -0.2990
 1671TIP3   OH226427   6.194   5.101   5.259 -0.4282 -0.6576 -0.3373
 1671TIP3    H126428   6.146   5.022   5.284  0.1429 -1.2480 -1.0647
 1671TIP3    H226429   6.282   5.089   5.296 -0.0539 -0.8082 -1.2549
 1672TIP3   OH226430   2.636   0.287  12.833  0.1503 -0.0958  0.1219
 1672TIP3    H126431   2.596   0.243  12.908  0.4838 -4.0760 -1.7922
 1672TIP3    H226432   2.730   0.282  12.850  0.1716  0.3357  0.1274
 1673TIP3   OH226433   0.737   3.910  11.490 -0.3586  0.8538  0.5015
 1673TIP3    H126434   0.811   3.849  11.491  0.9991  2.4126  2.7210
 1673TIP3    H226435   0.777   3.997  11.482 -2.1159  1.6276 -0.5610
 1674TIP3   OH226436   2.810   1.363  11.346 -0.4198  0.8908  0.6911
 1674TIP3    H126437   2.778   1.437  11.295  2.6751  1.9134  0.0139
 1674TIP3    H226438   2.789   1.286  11.292  0.7317  1.7528 -1.0828
 1675TIP3   OH226439   2.569   2.157   5.050 -0.4167 -0.5945 -0.3395
 1675TIP3    H126440   2.537   2.088   4.992  0.6168 -1.0434 -0.4143
 1675TIP3    H226441   2.644   2.194   5.003 -0.2020 -0.2698  0.2507
 1676TIP3   OH226442   2.582   4.943   1.960  0.0654 -0.2035  0.2389
 1676TIP3    H126443   2.556   4.853   1.980 -1.3834  0.6145  2.5189
 1676TIP3    H226444   2.599   4.982   2.046 -0.5679  2.0230 -0.5845
 1677TIP3   OH226445   6.524   1.595  10.438 -0.3806 -0.8051 -0.0786
 1677TIP3    H126446   6.599   1.587  10.497  0.1267  1.3587 -0.3520
 1677TIP3    H226447   6.448   1.576  10.493  0.1517  0.1550  1.0398
 1678TIP3   OH226448   4.487   0.216   3.396 -0.7243 -0.2409 -0.2034
 1678TIP3    H126449   4.540   0.180   3.325  2.6030 -1.8772  2.8004
 1678TIP3    H226450   4.512   0.308   3.400  1.9069 -0.9067  0.9462
 1679TIP3   OH226451   6.306   3.469  13.238  0.6719  0.0548 -0.8023
 1679TIP3    H126452   6.391   3.471  13.281  0.4891  0.6219 -0.4586
 1679TIP3    H226453   6.300   3.381  13.201  0.9401 -0.3690  0.1308
 1680TIP3   OH226454   2.452   3.363  13.735  0.3375  0.2783  0.3549
 1680TIP3    H126455   2.419   3.375  13.824  0.2008  1.3982  0.1602
 1680TIP3    H226456   2.540   3.327  13.747  1.2181  2.4791  1.0336
 1681TIP3   OH226457   4.998   1.628  13.224 -0.3335  0.2100 -0.5024
 1681TIP3    H126458   4.935   1.557  13.231  0.0271 -0.0748 -0.0112
 1681TIP3    H226459   5.030   1.639  13.314  0.1004  0.5417 -0.6968
 1682TIP3   OH226460   4.365   5.300   5.251  0.1023  0.0987 -0.1333
 1682TIP3    H126461   4.361   5.347   5.334 -0.9681  0.3400 -0.3065
 1682TIP3    H226462   4.403   5.215   5.273  0.3606  0.3730  0.4956
 1683TIP3   OH226463   5.481   0.608   5.679 -0.2434 -0.2151  0.4570
 1683TIP3    H126464   5.395   0.566   5.669 -1.1152  0.6831  3.2001
 1683TIP3    H226465   5.535   0.541   5.722  0.1278 -0.4121 -0.3001
 1684TIP3   OH226466   6.614   2.192  10.430 -0.5190 -0.3128 -0.4184
 1684TIP3    H126467   6.696   2.209  10.476 -0.6636 -1.2078  0.1983
 1684TIP3    H226468   6.584   2.278  10.401 -0.9132  0.4182  1.9844
 1685TIP3   OH226469   6.799   3.158  12.014  0.2162 -0.2624  0.2477
 1685TIP3    H126470   6.784   3.193  12.102  0.6539 -0.5139  0.4219
 1685TIP3    H226471   6.886   3.188  11.990 -0.2956  0.6824 -0.5283
 1686TIP3   OH226472   2.716   4.233   0.135  0.3679  0.2264  0.3112
 1686TIP3    H126473   2.791   4.176   0.120  1.3495  2.0442 -2.4717
 1686TIP3    H226474   2.640   4.175   0.130  1.4115 -1.1521 -0.1349
 1687TIP3   OH226475   6.764   0.321  12.243  0.2296 -0.4427  0.3076
 1687TIP3    H126476   6.741   0.413  12.227  0.3669 -0.8058 -2.5051
 1687TIP3    H226477   6.682   0.280  12.270 -0.2253  0.2009 -0.0555
 1688TIP3   OH226478   5.040   4.519   4.012  0.0398  0.6054 -0.2236
 1688TIP3    H126479   5.132   4.520   3.988  0.0003 -1.3360 -0.6531
 1688TIP3    H226480   5.037   4.557   4.099  1.2115  0.8830 -0.2931
 1689TIP3   OH226481   6.177   5.873  15.298  0.4717 -0.0355 -0.2430
 1689TIP3    H126482   6.249   5.924  15.335  0.0184 -0.5319  1.4073
 1689TIP3    H226483   6.207   5.782  15.304 -0.1530 -0.2243  0.2085
 1690TIP3   OH226484   5.511   0.687  15.315  0.0172  0.3128  0.0570
 1690TIP3    H126485   5.432   0.734  15.287  1.5019  2.8187 -0.2136
 1690TIP3    H226486   5.512   0.698  15.410  0.7732  1.6260 -0.0762
 1691TIP3   OH226487   3.788   3.624  14.864  0.1707 -0.0261  0.0649
 1691TIP3    H126488   3.785   3.719  14.864  1.5225  0.0785  2.1529
 1691TIP3    H226489   3.736   3.598  14.788 -1.3012  2.3255  0.1827
 1692TIP3   OH226490   3.208   4.020  11.845 -0.4630 -0.5372  0.5187
 1692TIP3    H126491   3.183   4.089  11.784 -0.0474  0.2249  1.1971
 1692TIP3    H226492   3.156   4.037  11.924 -0.2330 -0.9034  0.7528
 1693TIP3   OH226493   0.078   2.868  11.382 -0.2176 -0.0965 -0.5724
 1693TIP3    H126494   0.025   2.947  11.391 -0.0674  0.4598 -3.5894
 1693TIP3    H226495   0.024   2.809  11.329  0.5725 -1.1642 -0.2230
 1694TIP3   OH226496   2.917   3.688  15.112 -0.1905 -0.1755  0.5009
 1694TIP3    H126497   2.862   3.693  15.190 -1.2766  0.5720 -0.2772
 1694TIP3    H226498   2.963   3.772  15.110  0.7215 -0.6548  0.9498
 1695TIP3   OH226499   0.033   4.885  11.805  0.0745  0.1848  0.0611
 1695TIP3    H126500  -0.043   4.877  11.747 -0.0551 -0.9255  0.3618
 1695TIP3    H226501   0.108   4.887  11.746 -0.0079 -1.7028 -0.1420
 1696TIP3   OH226502   0.225   3.752   5.560  0.2199  0.5398 -0.3200
 1696TIP3    H126503   0.179   3.755   5.477 -0.3514  0.6592 -0.0027
 1696TIP3    H226504   0.223   3.659   5.585 -2.3604  0.8964  1.0627
 1697TIP3   OH226505   2.074   3.366  12.541 -0.6325  0.0320  0.0663
 1697TIP3    H126506   2.145   3.428  12.526  0.1197 -0.6753  0.6540
 1697TIP3    H226507   1.994   3.419  12.531 -0.0165  1.6608  2.8465
 1698TIP3   OH226508   0.190   6.474   5.337 -0.3444 -0.1764  0.3106
 1698TIP3    H126509   0.239   6.397   5.366 -0.4841  0.1194  1.3680
 1698TIP3    H226510   0.130   6.441   5.270 -0.4397 -0.9921  0.7957
 1699TIP3   OH226511   0.550   6.709   0.767 -0.2135 -0.1478  0.4962
 1699TIP3    H126512   0.629   6.688   0.818 -0.1554 -0.2896  0.3482
 1699TIP3    H226513   0.478   6.687   0.825 -0.1569 -1.0295  0.2392
 1700TIP3   OH226514   5.419   5.826  16.156  0.4617  0.3486  0.1129
 1700TIP3    H126515   5.483   5.824  16.085 -0.0519  0.8769 -0.3741
 1700TIP3    H226516   5.335   5.834  16.113 -0.1111 -1.8514  0.6703
 1701TIP3   OH226517   1.543   1.926   0.440  0.0489  0.2703  0.1241
 1701TIP3    H126518   1.599   1.900   0.512 -0.1080 -2.3013 -0.5841
 1701TIP3    H226519   1.604   1.951   0.370  0.2144  1.1895  0.5793
 1702TIP3   OH226520   2.146   1.452   5.146 -0.4535  0.1503  0.0421
 1702TIP3    H126521   2.140   1.477   5.238  3.1295  1.6952  0.0065
 1702TIP3    H226522   2.187   1.365   5.148  3.5272  1.7879  0.0919
 1703TIP3   OH226523   2.518   2.952  14.304 -0.1121 -0.2923 -0.3409
 1703TIP3    H126524   2.512   2.874  14.249 -2.6944 -0.4981  0.1101
 1703TIP3    H226525   2.483   2.925  14.389  0.0345  1.0548  0.1757
 1704TIP3   OH226526   6.065   2.298   3.392  0.1024 -0.0051 -0.2764
 1704TIP3    H126527   6.056   2.212   3.351 -1.5030 -0.2051  0.4154
 1704TIP3    H226528   5.999   2.352   3.348  0.5518  0.6564 -0.1497
 1705TIP3   OH226529   5.377   6.801   1.037  0.2142  0.0321 -0.2952
 1705TIP3    H126530   5.362   6.743   1.112 -0.1871  0.3920 -0.0954
 1705TIP3    H226531   5.302   6.786   0.980  0.8540 -0.7447 -0.9595
 1706TIP3   OH226532   6.330   5.982  10.760  0.0217 -0.8079 -0.1626
 1706TIP3    H126533   6.321   6.056  10.700  1.2846  1.2592  2.0506
 1706TIP3    H226534   6.424   5.962  10.759  0.7554  1.6010  3.5636
 1707TIP3   OH226535   4.733   4.493  16.400  0.0634 -0.0368 -0.8470
 1707TIP3    H126536   4.687   4.429  16.455  0.2928  1.6947  1.4826
 1707TIP3    H226537   4.821   4.456  16.389 -0.0410 -0.5100 -0.1696
 1708TIP3   OH226538   3.145   0.126  16.668  0.4377 -0.0425 -0.4921
 1708TIP3    H126539   3.227   0.127  16.619  0.1717 -0.8190 -0.9687
 1708TIP3    H226540   3.079   0.159  16.607  0.2109 -0.4474 -0.4732
 1709TIP3   OH226541   4.385   6.005   5.387  0.2527 -0.2917 -0.6893
 1709TIP3    H126542   4.407   5.997   5.480  0.6942 -1.0559 -0.8477
 1709TIP3    H226543   4.425   6.088   5.360  4.0023 -2.0319 -1.1893
 1710TIP3   OH226544   1.772   2.873  12.008 -0.4073  0.3669 -0.2705
 1710TIP3    H126545   1.745   2.879  11.917 -0.0933  0.9258 -0.3379
 1710TIP3    H226546   1.819   2.790  12.015  0.6489  0.8906 -0.9253
 1711TIP3   OH226547   0.158   0.822  12.200 -0.5789  0.0850  0.2690
 1711TIP3    H126548   0.075   0.777  12.186 -1.6043  1.2551  2.1846
 1711TIP3    H226549   0.150   0.861  12.287  1.4461  1.3956 -0.0641
 1712TIP3   OH226550   4.115   6.352  11.205 -0.0471  0.1873 -0.4443
 1712TIP3    H126551   4.190   6.340  11.264  0.1332  0.8909 -0.5150
 1712TIP3    H226552   4.118   6.276  11.147 -0.5316 -0.7744  0.7646
 1713TIP3   OH226553   2.502   0.808   3.087  0.7321 -0.1380 -0.1883
 1713TIP3    H126554   2.493   0.793   2.992  1.7578 -1.2861 -0.1161
 1713TIP3    H226555   2.576   0.868   3.094  1.0454 -0.5453 -0.0666
 1714TIP3   OH226556   1.696   4.574  16.055  0.7468 -0.0822 -0.3191
 1714TIP3    H126557   1.629   4.522  16.012  0.8251  0.8161 -1.5660
 1714TIP3    H226558   1.656   4.660  16.068  1.3769  0.2210 -0.3234
 1715TIP3   OH226559   1.688   4.510   2.771  0.1575  0.0287  0.6176
 1715TIP3    H126560   1.747   4.566   2.721 -0.2107  0.7886  1.0286
 1715TIP3    H226561   1.614   4.566   2.794  0.8006  0.0105  2.9417
 1716TIP3   OH226562   1.360   0.435   1.629 -0.3402 -0.0440  0.1168
 1716TIP3    H126563   1.353   0.391   1.544 -1.2539  1.8808 -0.8581
 1716TIP3    H226564   1.452   0.461   1.635  0.2193 -1.9608  0.7065
 1717TIP3   OH226565   3.625   0.561  14.750 -0.4180  0.1198 -0.0903
 1717TIP3    H126566   3.705   0.518  14.718 -1.3342 -1.1614 -0.7221
 1717TIP3    H226567   3.569   0.490  14.779 -1.1940  1.0331  0.7483
 1718TIP3   OH226568   5.016   3.720   5.176 -0.0250  0.1263 -0.0642
 1718TIP3    H126569   5.092   3.662   5.178 -0.6285 -0.6760 -0.2563
 1718TIP3    H226570   4.956   3.680   5.113 -1.0561  0.1847  0.8605
 1719TIP3   OH226571   2.382   6.066   3.005 -0.5563 -0.0304 -0.4305
 1719TIP3    H126572   2.330   6.144   2.984 -0.4299  0.0189 -0.5678
 1719TIP3    H226573   2.462   6.100   3.045 -0.2200 -0.0468 -1.0680
 1720TIP3   OH226574   6.687   2.603  13.114 -0.1516 -0.1010  0.6484
 1720TIP3    H126575   6.744   2.599  13.191 -0.2186 -0.8391  0.6677
 1720TIP3    H226576   6.722   2.676  13.062  0.2986 -0.0191  1.0561
 1721TIP3   OH226577   4.098   1.276  12.363 -0.8517  0.1039 -0.3240
 1721TIP3    H126578   4.100   1.267  12.458  1.0703  2.3021 -0.0656
 1721TIP3    H226579   4.060   1.363  12.348  2.3036  1.4695 -1.2723
 1722TIP3   OH226580   2.383   3.123   0.117  0.3855  0.4172  0.0000
 1722TIP3    H126581   2.454   3.182   0.092 -0.0001  1.1244  0.5508
 1722TIP3    H226582   2.402   3.042   0.069  1.3236  0.7343 -0.1947
 1723TIP3   OH226583   3.066   0.649   5.909 -0.3415 -0.2519  0.3112
 1723TIP3    H126584   3.070   0.723   5.969  1.9148 -1.0593  1.2548
 1723TIP3    H226585   3.030   0.577   5.963  0.4129 -0.6315  0.3149
 1724TIP3   OH226586   0.315   6.068  11.520  0.6028  0.4342  0.2502
 1724TIP3    H126587   0.295   6.153  11.560 -0.3787  0.0931  0.5032
 1724TIP3    H226588   0.285   6.076  11.430 -1.3095 -0.2760  0.7844
 1725TIP3   OH226589   3.121   4.973   2.979 -0.3218 -0.3414  0.0249
 1725TIP3    H126590   3.138   5.035   3.050  1.1574 -1.1556  0.4275
 1725TIP3    H226591   3.079   4.899   3.021 -0.7650 -0.2265 -0.2090
 1726TIP3   OH226592   1.313   3.826  11.714 -0.3121 -0.0087 -0.0900
 1726TIP3    H126593   1.316   3.830  11.810  0.3763  0.5943 -0.1275
 1726TIP3    H226594   1.254   3.898  11.690 -1.2445 -0.7594 -0.0872
 1727TIP3   OH226595   5.386   3.690   0.180  0.5100 -0.0588  0.0277
 1727TIP3    H126596   5.397   3.612   0.235  1.4503  0.1989  0.2157
 1727TIP3    H226597   5.407   3.763   0.237 -0.9811  0.3965  0.0276
 1728TIP3   OH226598   0.792   6.769   2.638  0.3995  0.4378  0.4590
 1728TIP3    H126599   0.804   6.686   2.685  1.5593 -0.4052 -1.2087
 1728TIP3    H226600   0.880   6.808   2.638  0.2091  0.8713 -0.1691
 1729TIP3   OH226601   3.499   3.578  11.629  0.3037 -0.0051 -0.3624
 1729TIP3    H126602   3.467   3.539  11.710  2.7721 -1.1693  0.1271
 1729TIP3    H226603   3.484   3.672  11.640  0.9508 -0.0891  1.6415
 1730TIP3   OH226604   6.392   4.263  11.388 -0.0645  0.1198  0.4252
 1730TIP3    H126605   6.389   4.170  11.408 -0.7125 -0.0979 -0.6266
 1730TIP3    H226606   6.447   4.270  11.310 -0.4452  0.5566  0.1883
 1731TIP3   OH226607   0.688   4.070   2.324  0.6934 -0.2020 -0.2022
 1731TIP3    H126608   0.610   4.015   2.331  1.0366 -0.9329 -1.7231
 1731TIP3    H226609   0.761   4.012   2.345  0.9635 -0.0085 -0.5918
 1732TIP3   OH226610   2.764   6.691  14.930 -0.0158 -0.5348 -0.5133
 1732TIP3    H126611   2.750   6.780  14.963 -0.3427 -1.0652  0.8688
 1732TIP3    H226612   2.689   6.641  14.963  0.8069 -1.5892 -0.1552
 1733TIP3   OH226613   2.731   1.695  12.505  0.6140 -0.0498 -0.5427
 1733TIP3    H126614   2.776   1.739  12.577 -1.1330  0.9321  0.0130
 1733TIP3    H226615   2.773   1.730  12.426  2.4309 -1.0114 -0.0709
 1734TIP3   OH226616   0.312   2.490  11.741 -0.2096  0.8103  0.1198
 1734TIP3    H126617   0.223   2.516  11.719  0.5817  2.1604 -1.7417
 1734TIP3    H226618   0.344   2.560  11.799  0.1422  1.1993 -0.5256
 1735TIP3   OH226619   0.797   6.233  11.947 -0.5624 -0.0801 -0.4487
 1735TIP3    H126620   0.712   6.206  11.911 -0.6664 -1.7121  0.8851
 1735TIP3    H226621   0.806   6.181  12.027  0.6887  1.7281  0.6457
 1736TIP3   OH226622   0.091   6.526   6.488 -0.4128 -0.2995  0.1412
 1736TIP3    H126623   0.041   6.534   6.569  0.5165 -0.2870  0.7234
 1736TIP3    H226624   0.106   6.432   6.478  2.6828 -0.1536  2.0352
 1737TIP3   OH226625   4.556   1.317   4.029 -0.5320 -0.2744 -0.3038
 1737TIP3    H126626   4.606   1.349   4.104 -1.3041 -0.3624  0.2609
 1737TIP3    H226627   4.472   1.363   4.034 -1.1549 -1.3828 -0.2509
 1738TIP3   OH226628   4.075   3.075   0.345  0.0622 -0.0474  0.2060
 1738TIP3    H126629   4.040   3.054   0.432  0.1088 -1.4826 -0.1008
 1738TIP3    H226630   4.103   3.167   0.352  0.0992 -0.1492  1.7079
 1739TIP3   OH226631   1.350   0.520  14.764  0.3577 -0.5185  0.4148
 1739TIP3    H126632   1.432   0.508  14.812  0.4053 -1.4346  0.1358
 1739TIP3    H226633   1.287   0.546  14.831  1.0845  1.2699  0.4768
 1740TIP3   OH226634   5.014   0.038   4.613  0.5587  0.2540  0.4795
 1740TIP3    H126635   4.956   0.099   4.568 -0.4742 -1.0611 -0.0526
 1740TIP3    H226636   5.033   0.080   4.697 -1.6756  0.5039  0.9238
 1741TIP3   OH226637   1.194   3.043  11.207  0.4551  0.5660 -0.4398
 1741TIP3    H126638   1.104   3.016  11.191  0.3884 -0.3602  1.2153
 1741TIP3    H226639   1.242   3.014  11.129 -0.3636 -0.6464 -0.5252
 1742TIP3   OH226640   4.882   1.592  11.210 -0.3028  0.1073 -0.4511
 1742TIP3    H126641   4.857   1.567  11.121 -0.0471  1.0445 -0.7889
 1742TIP3    H226642   4.886   1.687  11.208  1.6343  0.0633  0.0393
 1743TIP3   OH226643   2.675   0.333  15.921  0.5313  0.1797  0.2529
 1743TIP3    H126644   2.670   0.261  15.859  1.4812  0.8287 -0.6274
 1743TIP3    H226645   2.584   0.352  15.944  0.2910 -1.9698  1.3596
 1744TIP3   OH226646   1.173   1.750  16.325 -0.5290 -0.0691 -0.1958
 1744TIP3    H126647   1.225   1.783  16.398 -0.0425  0.1396 -0.6382
 1744TIP3    H226648   1.083   1.777  16.346 -0.5368 -0.8234  0.7955
 1745TIP3   OH226649   0.199   4.532   3.927  0.1276  0.3846  0.3953
 1745TIP3    H126650   0.247   4.510   4.008 -1.0624 -0.7074  0.8400
 1745TIP3    H226651   0.166   4.621   3.942  2.3881  1.3843 -0.1385
 1746TIP3   OH226652   3.013   2.340   1.763  0.0192 -0.1782  0.4777
 1746TIP3    H126653   3.077   2.327   1.833  0.1626  0.7691  0.5235
 1746TIP3    H226654   2.938   2.382   1.805  0.8115  2.0886 -0.2393
 1747TIP3   OH226655   1.888   6.748  13.556  0.0166  0.1244 -0.2430
 1747TIP3    H126656   1.928   6.693  13.623 -1.0663  1.5366  1.6482
 1747TIP3    H226657   1.897   6.837  13.590 -2.0035  0.7420 -1.2032
 1748TIP3   OH226658   3.574   6.413   2.165  0.1137 -0.1637  0.5075
 1748TIP3    H126659   3.569   6.349   2.237 -0.0432 -2.1224 -1.1412
 1748TIP3    H226660   3.504   6.387   2.106  0.6349  0.9951 -0.6641
 1749TIP3   OH226661   4.251   2.746  13.780 -0.0036  0.6747 -0.1217
 1749TIP3    H126662   4.312   2.749  13.706  3.2204  1.2482  2.3372
 1749TIP3    H226663   4.218   2.656  13.779  1.0342  0.2689 -1.4688
 1750TIP3   OH226664   3.196   6.677  12.199 -0.1065 -0.7300  0.5944
 1750TIP3    H126665   3.241   6.754  12.165  1.0943 -0.4422  2.6450
 1750TIP3    H226666   3.104   6.690  12.175  0.3451  0.4700 -0.5803
 1751TIP3   OH226667   0.753   2.063  15.668  0.3143  0.3565  0.0169
 1751TIP3    H126668   0.735   1.983  15.717 -0.8366  0.9363  0.5898
 1751TIP3    H226669   0.829   2.042  15.614 -0.4964 -1.4080 -0.5120
 1752TIP3   OH226670   5.266   4.388   1.869  0.0756 -0.0593 -0.2140
 1752TIP3    H126671   5.199   4.321   1.881 -0.3560 -0.2014 -2.8612
 1752TIP3    H226672   5.219   4.471   1.873 -0.0810 -0.1092 -0.9134
 1753TIP3   OH226673   0.642   4.498   5.798 -0.5754 -1.1030  0.4006
 1753TIP3    H126674   0.688   4.416   5.819 -1.4676 -2.0711 -1.1655
 1753TIP3    H226675   0.624   4.539   5.882  3.0461 -0.6829  1.1403
 1754TIP3   OH226676   3.421   3.486  16.966  0.0045  0.0500 -0.2061
 1754TIP3    H126677   3.398   3.540  16.891 -1.0035  1.3809  1.0195
 1754TIP3    H226678   3.465   3.545  17.026  1.2837 -1.1228  0.0529
 1755TIP3   OH226679   5.221   6.512  16.603  0.0058 -0.3452  0.2469
 1755TIP3    H126680   5.161   6.461  16.549 -0.0701 -1.3585  1.2532
 1755TIP3    H226681   5.305   6.467  16.594 -0.4933 -2.0365  2.7932
 1756TIP3   OH226682   1.855   0.870  16.369  0.3264  0.2141  0.0953
 1756TIP3    H126683   1.763   0.892  16.357  0.3809 -0.8488 -3.0527
 1756TIP3    H226684   1.895   0.951  16.399 -1.4425  0.9781  0.5042
 1757TIP3   OH226685   4.209   4.604   1.214  0.1449 -0.0664  0.0117
 1757TIP3    H126686   4.240   4.672   1.154  0.0819 -1.9076 -2.2559
 1757TIP3    H226687   4.286   4.550   1.232 -0.4471 -1.2287 -0.8311
 1758TIP3   OH226688   5.051   2.053   0.411 -0.4865 -0.2067 -0.5731
 1758TIP3    H126689   4.958   2.063   0.433 -0.2179 -0.3414  0.6814
 1758TIP3    H226690   5.091   2.021   0.491  0.5970 -0.4709 -1.2082
 1759TIP3   OH226691   1.154   3.505  13.549  0.0496 -0.0345 -0.0309
 1759TIP3    H126692   1.148   3.554  13.631 -1.4563 -1.3827  0.7123
 1759TIP3    H226693   1.124   3.567  13.482 -3.6881 -0.3283  1.1179
 1760TIP3   OH226694   5.120   3.643   3.088  0.5199  0.4074  0.3506
 1760TIP3    H126695   5.049   3.706   3.083 -1.1760 -1.2874  1.6700
 1760TIP3    H226696   5.175   3.674   3.160  0.2555  0.8949  0.3473
 1761TIP3   OH226697   0.881   4.206  15.178  0.2395 -0.3513 -1.0003
 1761TIP3    H126698   0.865   4.112  15.189 -0.3744 -0.3336 -1.6847
 1761TIP3    H226699   0.796   4.243  15.155  0.0207  0.7097  1.1774
 1762TIP3   OH226700   0.151   2.311  10.872 -0.1412 -0.4362 -1.0941
 1762TIP3    H126701   0.075   2.304  10.930 -0.9625  0.5371 -2.0040
 1762TIP3    H226702   0.203   2.382  10.910  0.4422 -1.2329 -0.3599
 1763TIP3   OH226703   6.410   2.230   5.003  0.4905  0.0155  0.0790
 1763TIP3    H126704   6.446   2.281   5.076  0.9251  2.5763 -1.7755
 1763TIP3    H226705   6.337   2.283   4.972  0.2385 -1.0897 -1.2747
 1764TIP3   OH226706   2.223   0.246   2.096  0.4569  0.3326  0.1064
 1764TIP3    H126707   2.256   0.229   2.008  1.5607  0.3943  0.4905
 1764TIP3    H226708   2.297   0.287   2.142 -0.4556  1.2916  0.7496
 1765TIP3   OH226709   6.800   3.321   5.778  0.0783  1.0209  0.1587
 1765TIP3    H126710   6.782   3.388   5.712  0.7919  0.0104 -1.1006
 1765TIP3    H226711   6.809   3.240   5.728 -0.4523  0.0184  1.6179
 1766TIP3   OH226712   5.039   6.636  12.352  0.3694  0.3869 -0.2124
 1766TIP3    H126713   4.997   6.659  12.269 -0.2090 -0.7605 -0.2528
 1766TIP3    H226714   5.028   6.715  12.406  0.8532  1.1840 -1.2413
 1767TIP3   OH226715   5.210   2.701  15.640  0.3918 -0.0548 -0.0131
 1767TIP3    H126716   5.216   2.796  15.657  0.4142  0.2178 -1.4510
 1767TIP3    H226717   5.144   2.670  15.702 -0.5670  1.1317 -0.4052
 1768TIP3   OH226718   0.241   2.897   5.969  0.0998  0.5532 -0.4796
 1768TIP3    H126719   0.150   2.919   5.988  0.2734  0.5859  0.3913
 1768TIP3    H226720   0.260   2.823   6.028  0.2262 -0.3815 -1.6512
 1769TIP3   OH226721   2.644   3.613   1.126  0.1528 -0.2793  0.2015
 1769TIP3    H126722   2.700   3.574   1.059 -2.0220 -1.7814 -0.8287
 1769TIP3    H226723   2.596   3.682   1.080  1.3058  1.2131  1.1485
 1770TIP3   OH226724   2.204   3.476  16.343  0.0818 -0.5756  0.2439
 1770TIP3    H126725   2.184   3.437  16.428 -0.4553  1.1668  0.9658
 1770TIP3    H226726   2.273   3.539  16.362 -0.9476  0.7731 -0.3294
 1771TIP3   OH226727   4.797   1.362   3.477 -0.4411  0.3528 -0.4418
 1771TIP3    H126728   4.745   1.351   3.557  0.3441 -1.1165 -0.1002
 1771TIP3    H226729   4.868   1.421   3.503 -1.8736  2.4089 -0.9215
 1772TIP3   OH226730   0.111   3.020  10.697  0.2370  0.3720  0.3049
 1772TIP3    H126731   0.172   3.033  10.624 -0.1290  1.5546  0.1795
 1772TIP3    H226732   0.101   2.925  10.704  2.3586  0.1182  0.5549
 1773TIP3   OH226733   6.507   1.321  15.661 -0.4153 -0.4967 -0.3956
 1773TIP3    H126734   6.571   1.249  15.669  0.7156  0.5886  0.8411
 1773TIP3    H226735   6.494   1.331  15.567  3.0862  0.7352 -0.8978
 1774TIP3   OH226736   0.576   4.900  15.342 -0.7814 -0.3417 -0.3905
 1774TIP3    H126737   0.604   4.974  15.396 -1.1068 -0.3657 -0.1879
 1774TIP3    H226738   0.493   4.928  15.304 -0.3490 -0.1534 -1.2300
 1775TIP3   OH226739   1.460   5.914   4.269 -0.1917 -0.1785 -0.4940
 1775TIP3    H126740   1.368   5.939   4.269  0.2320  1.5647 -1.2125
 1775TIP3    H226741   1.466   5.841   4.331 -1.9714 -0.0492 -0.1327
 1776TIP3   OH226742   4.822   4.729  11.717 -0.1688 -0.1721  0.0217
 1776TIP3    H126743   4.807   4.765  11.630  0.6349  1.2073  0.4166
 1776TIP3    H226744   4.911   4.692  11.713 -0.3187 -0.5468  0.1207
 1777TIP3   OH226745   3.960   3.724  15.658 -0.0374  0.5772  0.4315
 1777TIP3    H126746   4.023   3.674  15.607 -0.1832  1.0947 -0.2639
 1777TIP3    H226747   4.011   3.795  15.697 -0.2131  1.1113 -0.2897
 1778TIP3   OH226748   2.130   5.954  14.550 -0.0988  0.4338  0.3712
 1778TIP3    H126749   2.121   5.860  14.531  0.3888 -0.0923  2.4285
 1778TIP3    H226750   2.045   5.991  14.526 -0.7013 -0.7513  0.5450
 1779TIP3   OH226751   3.413   2.033  11.462  0.1464  0.3195  0.3681
 1779TIP3    H126752   3.480   2.076  11.517 -1.4241  0.2428  2.4600
 1779TIP3    H226753   3.358   2.105  11.432 -1.4582  0.0416  2.4400
 1780TIP3   OH226754   1.381   0.109  11.980 -0.3256  0.1245  0.6853
 1780TIP3    H126755   1.367   0.196  11.942  1.6510  0.8254  1.4123
 1780TIP3    H226756   1.323   0.052  11.931 -0.2260  1.5308 -1.1972
 1781TIP3   OH226757   3.625   1.824  16.489  0.2899 -0.2630 -0.2836
 1781TIP3    H126758   3.636   1.730  16.472 -1.1094 -0.4226 -0.3607
 1781TIP3    H226759   3.681   1.840  16.565  1.3166 -0.9446 -0.8609
 1782TIP3   OH226760   5.845   0.261   3.262  0.1803 -0.7347 -0.0769
 1782TIP3    H126761   5.825   0.239   3.353 -1.2697 -0.5049 -0.3273
 1782TIP3    H226762   5.849   0.176   3.217  0.6486 -0.8322  0.1440
 1783TIP3   OH226763   5.513   6.648  11.560 -1.0028 -0.0709 -0.0312
 1783TIP3    H126764   5.569   6.648  11.482  0.4429 -0.5736  0.9646
 1783TIP3    H226765   5.569   6.684  11.630 -1.9861 -0.4105  0.9613
 1784TIP3   OH226766   1.114   2.643   0.009  0.4323  0.1672  0.0060
 1784TIP3    H126767   1.197   2.634   0.056  0.8509  1.6649 -0.3912
 1784TIP3    H226768   1.051   2.666   0.077  0.2801 -1.1448  0.3357
 1785TIP3   OH226769   3.268   2.249  16.696 -0.2738  0.5053 -0.0780
 1785TIP3    H126770   3.319   2.172  16.672  0.7439  1.2852 -0.5155
 1785TIP3    H226771   3.332   2.321  16.693 -1.1375  1.3138  0.5843
 1786TIP3   OH226772   2.272   2.747  16.362 -0.0318  0.1714 -0.3940
 1786TIP3    H126773   2.260   2.682  16.293  1.3232  0.1921 -0.6855
 1786TIP3    H226774   2.189   2.793  16.367 -0.5626 -0.6751 -1.1362
 1787TIP3   OH226775   2.637   5.541   2.693 -0.6930 -0.2047  0.6057
 1787TIP3    H126776   2.559   5.486   2.690  0.3524 -1.7147 -0.8317
 1787TIP3    H226777   2.663   5.551   2.601  0.8117  0.2447  1.0406
 1788TIP3   OH226778   3.502   3.058  13.287 -0.0158  0.5377  0.3514
 1788TIP3    H126779   3.417   3.091  13.314 -1.1596  0.4221 -2.7169
 1788TIP3    H226780   3.482   2.987  13.226  2.2780  0.1428 -0.0317
 1789TIP3   OH226781   3.533   4.858  15.128 -0.0227 -0.4630 -0.3804
 1789TIP3    H126782   3.438   4.863  15.135 -0.1923 -1.1628 -1.8314
 1789TIP3    H226783   3.549   4.832  15.037  1.5039 -1.4006  0.1191
 1790TIP3   OH226784   4.970   6.333  16.858 -0.9209  0.2846 -0.3394
 1790TIP3    H126785   5.050   6.378  16.886 -1.1923  0.8173 -0.4178
 1790TIP3    H226786   5.001   6.248  16.827 -0.6974 -0.7512  2.4560
 1791TIP3   OH226787   6.632   3.474   0.266 -0.4000  0.0803  0.7119
 1791TIP3    H126788   6.712   3.487   0.317 -0.7482  1.3992  0.9724
 1791TIP3    H226789   6.561   3.487   0.328 -0.8377 -1.2679  0.5243
 1792TIP3   OH226790   4.673   2.472   0.795  0.6415 -0.1609 -0.5737
 1792TIP3    H126791   4.651   2.389   0.753  3.0647 -0.7650 -0.8080
 1792TIP3    H226792   4.706   2.447   0.881  1.0848  0.5837 -0.5192
 1793TIP3   OH226793   3.641   6.465  10.305 -0.8326  0.6569  0.4791
 1793TIP3    H126794   3.676   6.537  10.358 -0.0548  1.1650 -0.6826
 1793TIP3    H226795   3.561   6.501  10.267 -0.5791  0.8330  0.1026
 1794TIP3   OH226796   2.225   3.819   4.211 -0.4320  0.1083 -0.4298
 1794TIP3    H126797   2.215   3.907   4.173 -2.7810  0.6541  1.2098
 1794TIP3    H226798   2.203   3.831   4.304  2.9169 -1.5679  0.7472
 1795TIP3   OH226799   3.803   0.547  12.130 -0.3024  0.2187 -0.0968
 1795TIP3    H126800   3.808   0.508  12.218  0.4187  1.2665  0.3488
 1795TIP3    H226801   3.886   0.592  12.120  0.0867 -0.8130 -1.7952
 1796TIP3   OH226802   0.691   5.661   0.042 -0.5904 -0.2775  0.2438
 1796TIP3    H126803   0.635   5.655  -0.035  0.2910  2.7998 -0.7816
 1796TIP3    H226804   0.673   5.748   0.078  0.5590 -0.8263  2.3022
 1797TIP3   OH226805   1.054   0.510  13.658 -0.5400  0.3436  0.0574
 1797TIP3    H126806   0.972   0.463  13.675  1.1802 -2.4564  1.2659
 1797TIP3    H226807   1.071   0.557  13.739  0.4181 -1.3833  0.9015
 1798TIP3   OH226808   1.761   4.230  12.498 -0.2907 -0.0280 -0.4011
 1798TIP3    H126809   1.776   4.158  12.559  1.1550 -1.2935 -2.1146
 1798TIP3    H226810   1.767   4.309  12.551  2.3313 -0.9848  0.9209
 1799TIP3   OH226811   3.587   0.390   2.584 -0.6386 -0.0698  0.3372
 1799TIP3    H126812   3.632   0.305   2.578 -0.0340  0.2211  0.6922
 1799TIP3    H226813   3.507   0.371   2.633 -0.6273 -0.4843  0.1990
 1800TIP3   OH226814   2.120   0.349   5.800 -0.2158  0.0408  0.3682
 1800TIP3    H126815   2.144   0.399   5.878 -0.8964 -1.1128  1.3438
 1800TIP3    H226816   2.198   0.296   5.782  0.3522  1.1016 -0.4219
 1801TIP3   OH226817   3.648   1.987   4.754  0.1111 -0.3810 -0.7455
 1801TIP3    H126818   3.716   1.924   4.774  0.4522  0.3453  0.5146
 1801TIP3    H226819   3.572   1.957   4.804  0.3003  0.2285 -0.0723
 1802TIP3   OH226820   3.236   2.049  11.692  0.4319 -0.3508 -0.1971
 1802TIP3    H126821   3.308   2.034  11.629  0.3797  0.5072 -0.4730
 1802TIP3    H226822   3.161   2.070  11.637  0.4144  0.5343  0.1510
 1803TIP3   OH226823   2.792   1.716   2.506 -0.5452  0.6754 -0.4664
 1803TIP3    H126824   2.849   1.793   2.502 -1.5690  1.6211  1.6722
 1803TIP3    H226825   2.706   1.748   2.481 -0.7971 -0.0143 -0.5165
 1804TIP3   OH226826   1.445   1.912  12.195  0.4352 -0.4717  0.2115
 1804TIP3    H126827   1.357   1.893  12.162 -0.2885 -0.0760  1.8116
 1804TIP3    H226828   1.477   1.982  12.138  0.1989 -1.4244 -1.1275
 1805TIP3   OH226829   0.315   3.649   4.861  0.4317 -0.1728  0.2024
 1805TIP3    H126830   0.271   3.669   4.779  1.2344  0.2080 -0.1495
 1805TIP3    H226831   0.379   3.582   4.838  0.8419  0.1249  0.4513
 1806TIP3   OH226832   3.134   5.484   3.439 -0.1886  0.1463  0.3456
 1806TIP3    H126833   3.047   5.524   3.441 -0.5625 -0.6642  1.0926
 1806TIP3    H226834   3.167   5.503   3.351 -0.7535  1.2202  0.3503
 1807TIP3   OH226835   4.910   1.718   1.911 -0.3498 -0.2168 -0.2724
 1807TIP3    H126836   4.948   1.631   1.899 -0.7920 -0.4039 -0.3401
 1807TIP3    H226837   4.950   1.750   1.992 -1.2500 -1.0724  0.5388
 1808TIP3   OH226838   4.466   0.793  15.786 -0.0268 -0.4500 -0.4122
 1808TIP3    H126839   4.418   0.875  15.792 -0.0641 -0.4565 -0.6347
 1808TIP3    H226840   4.535   0.801  15.852  0.8013  0.3130 -1.3545
 1809TIP3   OH226841   1.378   1.637  13.968  0.1368  0.0451  0.2474
 1809TIP3    H126842   1.453   1.590  13.930 -0.7774 -1.6091  0.4030
 1809TIP3    H226843   1.340   1.575  14.030 -0.3980  1.4711  1.4080
 1810TIP3   OH226844   5.498   4.713  12.677 -0.2191 -0.0328 -0.0707
 1810TIP3    H126845   5.443   4.708  12.756  1.6295 -1.5743  1.2262
 1810TIP3    H226846   5.505   4.806  12.659 -1.1276  0.3305  1.2908
 1811TIP3   OH226847   2.849   0.271   5.603  0.0471  0.0780  0.1944
 1811TIP3    H126848   2.893   0.192   5.635  0.4473 -1.0293 -2.8172
 1811TIP3    H226849   2.761   0.241   5.577 -0.3393  0.9705  0.4291
 1812TIP3   OH226850   4.466   0.294  12.862  0.4890  0.4782  0.1636
 1812TIP3    H126851   4.386   0.274  12.814  0.9903  0.3082 -0.6132
 1812TIP3    H226852   4.436   0.346  12.937 -0.7849 -2.5853  1.9442
 1813TIP3   OH226853   3.039   4.352   0.168 -0.0668  0.1466 -0.2273
 1813TIP3    H126854   2.996   4.403   0.100  1.7829  1.1613 -0.7249
 1813TIP3    H226855   2.977   4.350   0.240 -0.8236  1.7936 -0.7902
 1814TIP3   OH226856   4.034   6.019   3.687  0.1814  0.6946 -0.4105
 1814TIP3    H126857   4.031   5.936   3.638 -2.7516 -0.0734  0.8532
 1814TIP3    H226858   4.006   6.085   3.624  1.7055  0.6463 -1.1894
 1815TIP3   OH226859   6.292   4.422   3.982 -0.3464  0.0954  0.1135
 1815TIP3    H126860   6.354   4.431   3.910  2.3641  0.1778  2.3226
 1815TIP3    H226861   6.214   4.469   3.952  0.5469 -0.1011 -2.8192
 1816TIP3   OH226862   4.306   5.054  16.282  0.1835 -0.1492 -0.1584
 1816TIP3    H126863   4.292   5.134  16.231  0.5146 -0.4329 -0.7002
 1816TIP3    H226864   4.325   5.085  16.371 -1.2574  0.3202  0.0011
 1817TIP3   OH226865   6.488   1.686  10.795 -0.0165 -0.0621 -0.3994
 1817TIP3    H126866   6.545   1.763  10.793 -1.5307  1.1884  1.2189
 1817TIP3    H226867   6.521   1.630  10.725  1.8191  1.5636 -0.9276
 1818TIP3   OH226868   2.245   5.118   5.590  0.0931  1.4763  0.2547
 1818TIP3    H126869   2.194   5.122   5.510  0.5389 -0.5650 -0.1901
 1818TIP3    H226870   2.180   5.121   5.660 -0.3839  2.0448 -0.2042
 1819TIP3   OH226871   6.807   4.906  12.800 -0.1152 -0.6238 -0.0074
 1819TIP3    H126872   6.875   4.954  12.753 -0.9575 -1.5968 -2.4322
 1819TIP3    H226873   6.853   4.861  12.871  1.0291  1.9098  0.9682
 1820TIP3   OH226874   1.774   0.144  16.993  0.0740  1.0492 -0.1595
 1820TIP3    H126875   1.819   0.193  17.063  1.0696  1.6698 -1.2039
 1820TIP3    H226876   1.681   0.160  17.010  0.2913  1.2232  0.9979
 1821TIP3   OH226877   4.656   4.906  10.179 -0.2310 -0.3675  0.4702
 1821TIP3    H126878   4.650   4.856  10.260 -2.1226  1.3088  1.4450
 1821TIP3    H226879   4.732   4.963  10.191  1.5929 -2.4833 -0.4211
 1822TIP3   OH226880   5.537   2.259   3.697 -0.6817  0.3864 -0.2840
 1822TIP3    H126881   5.627   2.291   3.707 -0.3930 -0.1680 -1.0010
 1822TIP3    H226882   5.547   2.174   3.653 -1.6303  0.9398 -1.6120
 1823TIP3   OH226883   1.728   6.528   1.763  0.0978  0.4166  0.1346
 1823TIP3    H126884   1.702   6.580   1.839  1.2643 -1.2264  1.7469
 1823TIP3    H226885   1.821   6.547   1.752  0.7365 -1.7050  1.2026
 1824TIP3   OH226886   6.016   1.743  12.440 -0.5580  0.2973  0.1578
 1824TIP3    H126887   6.079   1.815  12.445  0.9898 -0.6860 -2.8835
 1824TIP3    H226888   5.946   1.775  12.383  0.5285 -0.7628 -1.8663
 1825TIP3   OH226889   6.124   0.697  12.125  0.1509  0.1891 -0.4280
 1825TIP3    H126890   6.036   0.731  12.141  0.6300  0.6639  1.4673
 1825TIP3    H226891   6.176   0.775  12.103  0.2672  0.0199 -0.7565
 1826TIP3   OH226892   0.094   3.733  15.284  0.2304 -0.2115  0.2089
 1826TIP3    H126893   0.104   3.641  15.308 -0.1730 -0.8380 -1.8673
 1826TIP3    H226894   0.046   3.772  15.358  0.7309 -1.5570  1.2882
 1827TIP3   OH226895   6.799   1.790   3.229  0.3041  0.3724  0.1308
 1827TIP3    H126896   6.806   1.706   3.274  1.9335  0.0768 -0.6296
 1827TIP3    H226897   6.722   1.831   3.269  0.3639 -0.8254  1.5848
 1828TIP3   OH226898   4.790   2.827   5.207 -0.5783 -0.1249 -0.3965
 1828TIP3    H126899   4.861   2.889   5.188 -1.3837  0.8350 -0.3666
 1828TIP3    H226900   4.794   2.764   5.136 -2.4475  2.4201 -3.0314
 1829TIP3   OH226901   3.663   3.471  14.617 -0.4020  0.0902  0.0984
 1829TIP3    H126902   3.588   3.459  14.675 -2.1284  1.0640 -1.7869
 1829TIP3    H226903   3.640   3.547  14.564  1.9007  0.3534 -0.6384
 1830TIP3   OH226904   0.690   2.794  16.838 -0.4276 -0.6095  0.1285
 1830TIP3    H126905   0.781   2.820  16.822 -0.6693 -0.5083 -1.2370
 1830TIP3    H226906   0.642   2.876  16.843 -0.5671 -0.6815 -0.0157
 1831TIP3   OH226907   0.839   3.718  16.857 -0.3939 -0.2636  0.5350
 1831TIP3    H126908   0.815   3.804  16.891 -1.8318  0.2025 -1.5062
 1831TIP3    H226909   0.924   3.699  16.898 -0.1016  2.0430  1.1402
 1832TIP3   OH226910   4.739   3.915   4.931 -0.3761 -0.2342 -0.7856
 1832TIP3    H126911   4.746   3.841   4.871  0.1386 -0.4999 -0.4057
 1832TIP3    H226912   4.684   3.882   5.002  0.8813 -0.6783  0.0044
 1833TIP3   OH226913   3.016   3.012   0.449 -0.1489 -0.2156  0.0424
 1833TIP3    H126914   2.993   3.047   0.363 -0.4667 -2.0523 -0.6475
 1833TIP3    H226915   3.108   3.036   0.461 -0.6292  1.7649  0.0890
 1834TIP3   OH226916   1.390   3.552   1.295  0.3275  0.0571  0.0248
 1834TIP3    H126917   1.416   3.462   1.276 -1.6236 -0.2405 -1.6643
 1834TIP3    H226918   1.360   3.550   1.386  2.8565 -0.2910  0.9349
 1835TIP3   OH226919   2.733   3.787   0.783  0.2242 -0.3039 -0.6813
 1835TIP3    H126920   2.777   3.703   0.769 -3.2154 -2.1000 -1.9232
 1835TIP3    H226921   2.693   3.807   0.698  0.1404  2.1028 -0.1298
 1836TIP3   OH226922   4.336   1.700   3.458  0.5408  0.4716  0.0116
 1836TIP3    H126923   4.379   1.740   3.534  0.5501 -1.8762  1.3364
 1836TIP3    H226924   4.395   1.631   3.430 -0.6572 -0.3904 -0.4822
 1837TIP3   OH226925   3.670   3.206  16.556  0.4280  0.0655  0.0729
 1837TIP3    H126926   3.748   3.256  16.533 -0.0526 -0.0059 -1.8892
 1837TIP3    H226927   3.660   3.142  16.485  0.4516 -2.1721  1.9869
 1838TIP3   OH226928   4.124   5.236  11.312  0.3867 -0.1221  0.6534
 1838TIP3    H126929   4.037   5.198  11.324  0.3372 -0.2358 -0.0379
 1838TIP3    H226930   4.108   5.331  11.307  0.0359 -0.2646 -1.6188
 1839TIP3   OH226931   3.761   0.038   3.528  0.1102 -0.0586 -0.7869
 1839TIP3    H126932   3.756   0.016   3.435  0.8569 -0.8769 -0.6523
 1839TIP3    H226933   3.683  -0.002   3.566  0.5126 -0.9437 -0.8503
 1840TIP3   OH226934   5.361   6.530  13.767  0.8204 -0.3799 -0.0091
 1840TIP3    H126935   5.411   6.552  13.845 -1.4982  1.2473  1.1245
 1840TIP3    H226936   5.343   6.436  13.775  0.2182 -0.1478  1.7040
 1841TIP3   OH226937   2.033   2.053   6.233  0.2236 -0.6140 -0.5267
 1841TIP3    H126938   2.064   1.964   6.219  0.4406 -0.6554  0.1376
 1841TIP3    H226939   2.098   2.109   6.189  0.6681 -0.7472 -0.0569
 1842TIP3   OH226940   4.722   1.512  13.805  0.0448  0.2441  0.0192
 1842TIP3    H126941   4.751   1.602  13.821  2.4642 -0.0738 -1.9543
 1842TIP3    H226942   4.799   1.458  13.827 -0.5192 -1.1148 -1.1929
 1843TIP3   OH226943   3.061   4.915   2.071  0.2309  0.9862 -0.9664
 1843TIP3    H126944   3.114   4.853   2.121  1.6763  2.5080 -0.4837
 1843TIP3    H226945   3.009   4.961   2.137 -0.5154  0.5924 -1.2705
 1844TIP3   OH226946   1.278   3.723   5.999 -0.4523 -0.2212 -0.5005
 1844TIP3    H126947   1.321   3.750   6.080 -1.0204 -0.0699 -0.2434
 1844TIP3    H226948   1.314   3.781   5.931  0.9458 -1.1572 -0.5951
 1845TIP3   OH226949   5.633   2.475  13.914 -0.3400 -0.2438 -0.3048
 1845TIP3    H126950   5.542   2.450  13.900 -0.6293  0.2103  0.7127
 1845TIP3    H226951   5.629   2.551  13.972  0.7043 -0.6822  0.3703
 1846TIP3   OH226952   3.829   5.663   2.227  0.3120 -0.7551 -0.5052
 1846TIP3    H126953   3.829   5.629   2.316 -2.8595 -1.4821 -0.6692
 1846TIP3    H226954   3.854   5.755   2.236 -0.2734 -0.7323  1.1870
 1847TIP3   OH226955   2.537   1.551  13.367 -0.3544 -0.3370 -0.3200
 1847TIP3    H126956   2.456   1.509  13.339 -0.0886 -0.8629 -0.3264
 1847TIP3    H226957   2.584   1.571  13.286 -1.0407  1.1637 -0.3854
 1848TIP3   OH226958   3.176   6.585   1.013  0.0452 -0.1036  0.1500
 1848TIP3    H126959   3.218   6.631   0.940  0.8705  1.2226  1.3963
 1848TIP3    H226960   3.187   6.492   0.993  0.8915  0.2402 -1.0528
 1849TIP3   OH226961   3.591   5.425  12.259  0.1177 -0.0319 -0.8977
 1849TIP3    H126962   3.558   5.386  12.341 -1.4004  1.4776 -0.7369
 1849TIP3    H226963   3.542   5.380  12.190 -0.3226  0.3015 -0.8135
 1850TIP3   OH226964   5.945   3.062   4.680 -0.3446  0.0876 -0.6856
 1850TIP3    H126965   5.910   3.092   4.764 -0.6787 -1.5689 -0.2072
 1850TIP3    H226966   5.891   2.987   4.657  0.7768 -0.4646 -1.5897
 1851TIP3   OH226967   0.617   6.606   3.193  0.5602 -0.2807 -0.1750
 1851TIP3    H126968   0.654   6.540   3.252  1.4089  0.6381  0.3551
 1851TIP3    H226969   0.681   6.678   3.195  0.5364 -0.1590 -2.1064
 1852TIP3   OH226970   6.355   1.382  15.143 -0.3885 -0.3942  0.7748
 1852TIP3    H126971   6.265   1.396  15.111  0.0202 -1.2976 -0.9023
 1852TIP3    H226972   6.388   1.310  15.089  0.9765 -0.8313  2.1419
 1853TIP3   OH226973   2.094   5.387   6.091 -0.0951  0.2600  0.6099
 1853TIP3    H126974   2.145   5.326   6.145 -0.0943 -1.7009 -1.4467
 1853TIP3    H226975   2.017   5.407   6.144 -0.3868 -2.0276  1.1700
 1854TIP3   OH226976   5.520   5.324  14.156  0.2057  0.2890 -0.2240
 1854TIP3    H126977   5.457   5.252  14.157 -0.1544  0.5915  0.9532
 1854TIP3    H226978   5.587   5.298  14.219 -0.5004  1.4414  1.0656
 1855TIP3   OH226979   6.665   3.152   3.974 -0.5532 -0.0303 -0.1253
 1855TIP3    H126980   6.619   3.233   3.953 -1.2121 -0.6655 -1.2202
 1855TIP3    H226981   6.682   3.111   3.889  2.2160  0.2616  0.2019
 1856TIP3   OH226982   3.380   1.183   4.897  0.1463  0.2581 -0.0552
 1856TIP3    H126983   3.346   1.115   4.840 -1.1638  0.8495 -0.0170
 1856TIP3    H226984   3.432   1.240   4.840  2.2099 -1.3511  0.1163
 1857TIP3   OH226985   0.275   2.706  15.961 -0.0769  0.6065 -0.0880
 1857TIP3    H126986   0.222   2.761  16.020  0.0047 -0.2035  0.7570
 1857TIP3    H226987   0.360   2.751  15.958  0.0892  0.3853  0.8430
 1858TIP3   OH226988   6.590   3.611   6.164  0.1712  0.3357  0.0418
 1858TIP3    H126989   6.665   3.614   6.224  0.1842 -1.3006  0.1405
 1858TIP3    H226990   6.539   3.536   6.193 -0.8885  0.7118 -0.7823
 1859TIP3   OH226991   2.390   2.252  15.512  0.2903 -0.1432  0.7584
 1859TIP3    H126992   2.330   2.249  15.437  0.1085 -1.5914  0.9270
 1859TIP3    H226993   2.456   2.317  15.487 -0.4008  0.2262 -0.1669
 1860TIP3   OH226994   2.284   4.441   4.692  0.2971 -0.0783 -0.2507
 1860TIP3    H126995   2.195   4.439   4.656 -0.3982  1.0891  1.3063
 1860TIP3    H226996   2.329   4.508   4.640 -0.4839  1.0708  0.4935
 1861TIP3   OH226997   3.916   5.541   1.898 -0.1746  0.1624  0.2485
 1861TIP3    H126998   3.912   5.459   1.947 -1.7015  0.8547  1.3994
 1861TIP3    H226999   3.982   5.593   1.944 -0.5107  0.2385  0.6528
 1862TIP3   OH227000   5.916   4.443  14.083 -0.2429 -0.6758 -0.2672
 1862TIP3    H127001   5.863   4.523  14.080 -0.1030 -0.6062 -1.0160
 1862TIP3    H227002   5.872   4.388  14.148 -0.0252  0.2227  0.6636
 1863TIP3   OH227003   5.068   0.181   5.868  0.2486 -0.2184 -0.1736
 1863TIP3    H127004   5.006   0.127   5.819 -0.1430 -0.3446  0.4471
 1863TIP3    H227005   5.047   0.164   5.960  1.4152 -0.5143  0.0563
 1864TIP3   OH227006   5.371   0.216  14.068 -0.7821 -0.3488 -0.5740
 1864TIP3    H127007   5.457   0.181  14.093 -0.5931  1.9466  2.6761
 1864TIP3    H227008   5.309   0.160  14.115 -0.6173  1.4836  2.0894
 1865TIP3   OH227009   4.482   5.781  14.573 -0.1944 -0.1829  0.7275
 1865TIP3    H127010   4.497   5.697  14.616  1.1806 -0.8310 -0.9223
 1865TIP3    H227011   4.420   5.826  14.630  0.1904 -1.7005  2.4318
 1866TIP3   OH227012   6.586   4.545   5.764  0.1737  0.5478 -0.1579
 1866TIP3    H127013   6.491   4.532   5.763  0.2457 -0.0517  0.4025
 1866TIP3    H227014   6.611   4.544   5.671 -0.5597  2.2877 -0.4140
 1867TIP3   OH227015   5.394   2.654   5.670  0.2552 -0.1377  0.0016
 1867TIP3    H127016   5.302   2.635   5.651  0.7530 -1.4344 -1.2453
 1867TIP3    H227017   5.407   2.621   5.759 -1.4893  3.8444  2.0286
 1868TIP3   OH227018   5.635   0.829  14.149 -0.1962  0.2265  0.5780
 1868TIP3    H127019   5.586   0.774  14.087  1.6850 -0.5352 -0.3176
 1868TIP3    H227020   5.699   0.770  14.188  1.1647  1.5392  0.4036
 1869TIP3   OH227021   2.168   4.490  13.389 -0.0686 -0.0288 -0.4265
 1869TIP3    H127022   2.203   4.403  13.408 -1.0734 -0.3343  0.0943
 1869TIP3    H227023   2.131   4.482  13.301  3.7718  1.1387 -2.3985
 1870TIP3   OH227024   6.068   4.933  16.850  0.9822 -0.4678 -0.2374
 1870TIP3    H127025   6.011   4.922  16.926 -0.0564 -0.4003 -0.9871
 1870TIP3    H227026   6.157   4.922  16.885  0.6457  1.1308  1.2987
 1871TIP3   OH227027   0.292   4.965   0.697  0.2855 -0.3675 -0.3009
 1871TIP3    H127028   0.376   4.959   0.650  0.8769  3.1196  0.0582
 1871TIP3    H227029   0.296   5.049   0.742 -2.4200 -1.2446  1.8242
 1872TIP3   OH227030   2.409   0.533   4.146 -0.8787 -0.8715 -0.4177
 1872TIP3    H127031   2.349   0.484   4.203 -2.2922 -1.2789 -2.1460
 1872TIP3    H227032   2.366   0.618   4.135  0.4803  0.0274  0.8083
 1873TIP3   OH227033   0.115   4.078   0.006  0.4241  0.4147  0.6794
 1873TIP3    H127034   0.031   4.044   0.035 -1.4899  1.1833 -3.2604
 1873TIP3    H227035   0.171   4.000  -0.001 -1.2832 -0.7764 -0.3819
 1874TIP3   OH227036   3.443   1.659  14.098 -0.0091 -0.4308 -0.5177
 1874TIP3    H127037   3.365   1.651  14.043 -0.1959  0.1048 -0.3318
 1874TIP3    H227038   3.428   1.597  14.170 -1.0038  0.8202  0.3822
 1875TIP3   OH227039   1.039   1.503  12.169 -0.3642 -0.1119  0.1871
 1875TIP3    H127040   1.101   1.457  12.226 -0.5475 -1.2091 -0.4615
 1875TIP3    H227041   1.092   1.538  12.098 -0.5066 -1.5740 -0.6978
 1876TIP3   OH227042   1.227   5.962  14.032  0.5395 -0.3851  0.4793
 1876TIP3    H127043   1.303   5.909  14.054  0.2045 -0.9987  0.1959
 1876TIP3    H227044   1.154   5.900  14.031  0.4433 -0.3026 -1.7606
 1877TIP3   OH227045   0.233   4.878  16.103 -0.1315  0.5324 -0.0079
 1877TIP3    H127046   0.225   4.801  16.158 -0.3183  1.6095  1.5226
 1877TIP3    H227047   0.144   4.914  16.099 -0.1015  0.5239 -0.9509
 1878TIP3   OH227048   0.984   0.957  11.235 -0.4119 -0.0648  0.2308
 1878TIP3    H127049   0.889   0.952  11.238 -0.4945  1.1583  0.3121
 1878TIP3    H227050   1.006   0.942  11.143 -0.4597 -2.8227  0.5808
 1879TIP3   OH227051   3.516   5.606  12.991  0.0322  0.5224 -0.0715
 1879TIP3    H127052   3.546   5.517  13.008  2.7653  1.1592 -0.9905
 1879TIP3    H227053   3.591   5.661  13.015 -1.5487  2.5997  0.4200
 1880TIP3   OH227054   6.112   4.022  16.956  0.0125  0.4533 -0.4252
 1880TIP3    H127055   6.094   4.103  17.004 -0.2100 -0.0068  0.2925
 1880TIP3    H227056   6.032   3.970  16.967  1.2020 -1.0742  1.6323
 1881TIP3   OH227057   0.625   0.107  14.389  0.1407  0.7720 -0.2775
 1881TIP3    H127058   0.711   0.146  14.376  0.7011 -0.8934 -2.1340
 1881TIP3    H227059   0.633   0.018  14.354 -1.7470 -0.1830  1.4795
 1882TIP3   OH227060   2.949   1.170  12.982 -0.3837  0.2501 -0.2528
 1882TIP3    H127061   3.043   1.183  12.995 -0.1694 -0.5750 -0.8698
 1882TIP3    H227062   2.943   1.084  12.939 -1.4402  0.1549  0.0674
 1883TIP3   OH227063   0.285   3.994   1.362 -0.6948 -0.1931  0.0522
 1883TIP3    H127064   0.202   4.011   1.318 -0.6647 -1.5693 -0.6090
 1883TIP3    H227065   0.352   4.021   1.299 -0.6503 -0.2696  0.0662
 1884TIP3   OH227066   2.328   5.497  15.822  0.9190  0.3531 -0.2555
 1884TIP3    H127067   2.418   5.528  15.828  0.8872  0.4015 -0.0321
 1884TIP3    H227068   2.328   5.414  15.870  0.7550  0.5489  0.0877
 1885TIP3   OH227069   1.936   2.066   3.244  0.4065  0.0391 -0.0231
 1885TIP3    H127070   2.016   2.109   3.213  2.4009 -3.0566  0.3511
 1885TIP3    H227071   1.890   2.133   3.294  3.0513  1.8564  0.1783
 1886TIP3   OH227072   5.081   1.224  12.456  0.0502  0.0790  0.7164
 1886TIP3    H127073   5.165   1.246  12.497  1.1098  1.0676 -1.8089
 1886TIP3    H227074   5.041   1.309  12.438 -0.3106 -0.3123 -0.3785
 1887TIP3   OH227075   2.245   6.394  15.073  0.0840 -0.1085 -0.3830
 1887TIP3    H127076   2.178   6.363  15.134 -0.8103 -0.9121 -1.7140
 1887TIP3    H227077   2.304   6.446  15.127 -1.2608  0.1110  0.9639
 1888TIP3   OH227078   1.180   4.885   1.195  0.5679 -0.1783 -0.2175
 1888TIP3    H127079   1.220   4.798   1.202 -1.8362 -1.2889  0.8418
 1888TIP3    H227080   1.134   4.882   1.111 -0.2976 -0.3095  0.2533
 1889TIP3   OH227081   4.737   6.101   4.988 -0.8505  0.2382  0.8479
 1889TIP3    H127082   4.687   6.165   4.938 -0.3174  0.9135  1.1488
 1889TIP3    H227083   4.699   6.017   4.966 -0.5708  0.5072 -0.7743
 1890TIP3   OH227084   4.516   3.490   2.264  0.4997 -0.2370 -0.4319
 1890TIP3    H127085   4.461   3.512   2.340 -0.0492 -0.0141 -0.8856
 1890TIP3    H227086   4.537   3.398   2.276 -0.7793 -0.5957 -0.7287
 1891TIP3   OH227087   4.384   5.167   3.046 -0.2900  0.0800 -0.1057
 1891TIP3    H127088   4.296   5.130   3.055  0.1291 -0.8963  0.2258
 1891TIP3    H227089   4.440   5.090   3.034  0.4893  0.7062 -0.5230
 1892TIP3   OH227090   5.146   1.771   1.640  0.0165  0.3965  0.2932
 1892TIP3    H127091   5.219   1.739   1.587 -0.7684  0.5417 -0.9021
 1892TIP3    H227092   5.178   1.853   1.678 -0.3165  1.8122 -2.2353
 1893TIP3   OH227093   5.806   5.155   5.888  0.3317  0.1903  0.3981
 1893TIP3    H127094   5.759   5.161   5.971 -1.2722  0.0007 -0.4677
 1893TIP3    H227095   5.827   5.062   5.879 -0.0773  0.1068  0.2858
 1894TIP3   OH227096   6.635   2.172  12.949  0.1319  0.0035 -0.1171
 1894TIP3    H127097   6.563   2.178  13.012  0.9255 -1.9953  1.0587
 1894TIP3    H227098   6.686   2.096  12.978  2.5931  1.2089 -1.0553
 1895TIP3   OH227099   4.419   6.755   0.132 -0.4526  0.2596 -0.2097
 1895TIP3    H127100   4.339   6.741   0.183 -1.6842  2.8540 -1.2330
 1895TIP3    H227101   4.387   6.786   0.047  1.5836 -2.0071 -1.9309
 1896TIP3   OH227102   6.455   4.728  16.030  0.6252  0.2681 -0.3008
 1896TIP3    H127103   6.415   4.714  16.115  1.7577  0.8014  0.3458
 1896TIP3    H227104   6.432   4.649  15.979 -1.3356  0.6252 -0.0523
 1897TIP3   OH227105   5.159   6.001   1.120  1.0773  0.8129  0.7905
 1897TIP3    H127106   5.067   5.994   1.145  0.6141  1.1676 -0.6870
 1897TIP3    H227107   5.178   6.095   1.124  1.5313  0.6963  1.5646
 1898TIP3   OH227108   0.793   2.317  12.413  0.8642  0.2211  0.2372
 1898TIP3    H127109   0.740   2.299  12.336 -1.1830  0.6310  1.4792
 1898TIP3    H227110   0.851   2.389  12.386  1.9528 -1.2491 -1.6161
 1899TIP3   OH227111   3.137   6.122  16.545  0.0122  0.0071 -0.1060
 1899TIP3    H127112   3.138   6.216  16.561  1.3314 -0.0843  0.4795
 1899TIP3    H227113   3.202   6.108  16.477  0.2666 -0.5489  0.2427
 1900TIP3   OH227114   4.586   1.680   4.278  0.1451 -0.0321  0.1130
 1900TIP3    H127115   4.540   1.721   4.205  0.0802 -0.6892 -0.2250
 1900TIP3    H227116   4.524   1.683   4.350  0.0317  0.1915  0.0070
 1901TIP3   OH227117   5.043   5.892  12.114 -0.1844 -0.0664  0.4494
 1901TIP3    H127118   4.980   5.962  12.130 -0.1581  0.2584 -0.7588
 1901TIP3    H227119   4.990   5.813  12.106 -0.4250  0.1725 -0.3611
 1902TIP3   OH227120   6.798   5.171   2.492 -0.0464 -0.5145 -0.2897
 1902TIP3    H127121   6.828   5.220   2.416 -2.1439  1.1055 -0.1565
 1902TIP3    H227122   6.870   5.179   2.555  1.2216 -0.8846 -1.6245
 1903TIP3   OH227123   5.153   2.535   5.493  0.2208 -0.0426 -0.5621
 1903TIP3    H127124   5.221   2.492   5.440 -0.0941 -1.3381  0.0573
 1903TIP3    H227125   5.100   2.463   5.528  0.8670  0.6878  2.1546
 1904TIP3   OH227126   0.393   5.398  11.645 -0.4412 -0.0013  0.1005
 1904TIP3    H127127   0.340   5.346  11.704 -1.8654  0.4147 -0.7705
 1904TIP3    H227128   0.364   5.488  11.658  1.0467  0.4474  0.6120
 1905TIP3   OH227129   6.610   3.592   1.742  0.4444  0.1177  0.4840
 1905TIP3    H127130   6.616   3.523   1.807 -0.0586  0.5461  0.9952
 1905TIP3    H227131   6.580   3.669   1.791  0.5045  0.5660 -0.1656
 1906TIP3   OH227132   5.334   4.434   1.589  0.2601 -0.6691  0.4312
 1906TIP3    H127133   5.302   4.422   1.679  0.4384  0.4933  0.6571
 1906TIP3    H227134   5.320   4.349   1.548 -2.4637 -0.4468  0.7177
 1907TIP3   OH227135   6.407   4.436  15.632  0.1195 -0.1902  0.2013
 1907TIP3    H127136   6.410   4.444  15.727  1.8459 -1.8358  0.3456
 1907TIP3    H227137   6.369   4.349  15.617  0.0731 -0.0356 -0.6144
 1908TIP3   OH227138   5.134   6.477   3.979 -0.5472  0.5051  0.5115
 1908TIP3    H127139   5.099   6.518   4.057 -2.9717  1.2583 -0.8505
 1908TIP3    H227140   5.165   6.549   3.925  1.1218 -0.0038  0.7500
 1909TIP3   OH227141   2.383   5.439   3.821  0.2957  0.2513 -0.1772
 1909TIP3    H127142   2.340   5.514   3.780  0.6834  0.6189  0.0817
 1909TIP3    H227143   2.311   5.379   3.840 -0.0298  0.5869 -0.3211
 1910TIP3   OH227144   4.302   6.114   0.336 -0.9729  0.3195 -0.1678
 1910TIP3    H127145   4.244   6.042   0.310 -0.8287 -0.1857  0.8414
 1910TIP3    H227146   4.390   6.079   0.324 -0.9042  0.1798  0.6919
 1911TIP3   OH227147   1.106   0.966  13.620  0.4084  0.1885 -0.6240
 1911TIP3    H127148   1.075   0.894  13.675  1.7933 -0.5541 -0.7689
 1911TIP3    H227149   1.088   0.937  13.530  1.8288 -0.4453 -0.7341
 1912TIP3   OH227150   0.590   6.394   1.582 -0.3021 -0.2894 -0.0362
 1912TIP3    H127151   0.563   6.318   1.632 -0.9653 -0.0746 -0.0619
 1912TIP3    H227152   0.641   6.446   1.644 -1.7810  0.3658  0.6840
 1913TIP3   OH227153   6.386   2.901   0.948 -0.4649  0.0814 -0.5953
 1913TIP3    H127154   6.442   2.876   0.875  0.3046  2.0713 -0.7582
 1913TIP3    H227155   6.298   2.901   0.912 -0.2320 -0.1785 -1.1676
 1914TIP3   OH227156   0.675   4.198  11.973  0.4772 -0.2340 -0.0544
 1914TIP3    H127157   0.623   4.135  11.923  0.3160 -1.4529  1.5372
 1914TIP3    H227158   0.614   4.235  12.036  1.2312 -0.8066  1.0540
 1915TIP3   OH227159   5.452   4.692  14.836  0.9104  0.5792 -0.4170
 1915TIP3    H127160   5.382   4.632  14.811 -0.5790  1.0770  2.2727
 1915TIP3    H227161   5.527   4.635  14.855 -0.3673 -0.4967  1.7533
 1916TIP3   OH227162   1.696   3.833   5.692  0.1964  0.5169 -0.0545
 1916TIP3    H127163   1.672   3.902   5.753  1.2752  0.7910  0.0819
 1916TIP3    H227164   1.645   3.757   5.721  0.5767  0.6815  1.1129
 1917TIP3   OH227165   3.182   1.753  15.233 -0.3045  0.3676 -0.5413
 1917TIP3    H127166   3.278   1.759  15.236 -0.1792 -1.2340 -0.7266
 1917TIP3    H227167   3.153   1.796  15.313  0.6295 -0.0467  0.0339
 1918TIP3   OH227168   3.411   6.377   3.403 -0.2911  0.5529 -0.3305
 1918TIP3    H127169   3.498   6.417   3.403 -0.5535  1.3493  2.3190
 1918TIP3    H227170   3.428   6.283   3.414  0.2279  0.6038 -0.6338
 1919TIP3   OH227171   3.243   0.744  13.821 -0.2746 -0.7533 -0.5055
 1919TIP3    H127172   3.272   0.699  13.900 -1.6281 -0.9168 -0.0746
 1919TIP3    H227173   3.323   0.759  13.771  0.4287 -1.9513  0.2188
 1920TIP3   OH227174   2.461   3.897   3.003  0.0663 -0.4471  0.5671
 1920TIP3    H127175   2.461   3.992   3.013  3.5433 -0.3008  0.6520
 1920TIP3    H227176   2.390   3.866   3.059 -1.1271  2.0816  0.5611
 1921TIP3   OH227177   3.949   5.288   6.293  0.8622  0.2768 -0.1534
 1921TIP3    H127178   3.919   5.343   6.220  0.8539 -0.3857 -0.6648
 1921TIP3    H227179   3.884   5.217   6.297  1.4234 -0.2459 -0.1682
 1922TIP3   OH227180   3.169   3.225   3.562  0.0810  0.1291 -0.1611
 1922TIP3    H127181   3.075   3.217   3.573 -0.4761  2.0248 -2.6872
 1922TIP3    H227182   3.185   3.320   3.560  1.8391 -0.1476 -1.1772
 1923TIP3   OH227183   6.138   0.104  14.713  0.0766 -0.3929 -0.2548
 1923TIP3    H127184   6.217   0.133  14.667 -0.6230 -2.1913 -2.8934
 1923TIP3    H227185   6.075   0.175  14.701  0.7008  0.2349  0.1663
 1924TIP3   OH227186   4.186   3.398   3.136 -0.4675 -0.1268 -0.0332
 1924TIP3    H127187   4.249   3.451   3.086 -1.3068  0.0762 -0.9128
 1924TIP3    H227188   4.104   3.445   3.127 -0.8448 -0.6246  0.7312
 1925TIP3   OH227189   3.074   6.221  15.900 -0.3241  0.0372  0.3416
 1925TIP3    H127190   2.990   6.201  15.860 -0.9373  2.1864  0.4363
 1925TIP3    H227191   3.137   6.219  15.828 -0.9761  1.2837 -0.2930
 1926TIP3   OH227192   3.801   2.383   2.666 -0.2881  0.6078 -0.3960
 1926TIP3    H127193   3.894   2.406   2.673 -0.7528  2.2971  0.8150
 1926TIP3    H227194   3.802   2.289   2.646  1.6712  0.7201 -1.0983
 1927TIP3   OH227195   0.611   2.758   3.247 -0.0398  0.3260  0.6105
 1927TIP3    H127196   0.546   2.810   3.201  0.5230 -0.7492 -1.5594
 1927TIP3    H227197   0.572   2.670   3.253 -0.3380  0.5499  2.8020
 1928TIP3   OH227198   0.842   5.639   3.346  0.0903  0.1490  0.0850
 1928TIP3    H127199   0.770   5.577   3.353  0.3833 -0.1530  0.5380
 1928TIP3    H227200   0.888   5.615   3.266 -1.2370  1.3660 -1.1030
 1929TIP3   OH227201   0.239   4.434  15.750  0.3673  0.3914  0.4270
 1929TIP3    H127202   0.157   4.467  15.786 -0.1655  0.3852 -0.7353
 1929TIP3    H227203   0.228   4.338  15.749  0.5610  0.3666  0.6726
 1930TIP3   OH227204   1.224   1.428   2.572  0.1873  1.1922 -0.4121
 1930TIP3    H127205   1.202   1.366   2.641 -1.6862  0.5079 -1.5407
 1930TIP3    H227206   1.319   1.432   2.573  0.5332 -2.8385 -1.1987
 1931TIP3   OH227207   4.948   2.220  15.568 -0.2641 -0.1562  0.0899
 1931TIP3    H127208   5.030   2.211  15.617 -0.4492 -0.3471  0.3693
 1931TIP3    H227209   4.925   2.312  15.578 -0.3882 -0.2299  0.5124
 1932TIP3   OH227210   6.647   1.446  15.842 -0.4866 -0.2887 -0.3107
 1932TIP3    H127211   6.632   1.527  15.792  3.1504  0.0609 -1.1281
 1932TIP3    H227212   6.604   1.378  15.790  0.2034  0.5590 -2.0933
 1933TIP3   OH227213   1.401   6.676  12.765  0.0694  0.4085  0.1826
 1933TIP3    H127214   1.469   6.741  12.750  1.1555 -0.2828  1.8815
 1933TIP3    H227215   1.389   6.675  12.860  0.3488 -2.1117  0.2533
 1934TIP3   OH227216   0.227   0.566   2.252  0.4526 -0.1933  0.5761
 1934TIP3    H127217   0.169   0.570   2.329  1.6062  2.1115  1.4298
 1934TIP3    H227218   0.255   0.475   2.248  0.7260 -0.3052  3.2197
 1935TIP3   OH227219   2.473   1.404   5.591  0.0041 -0.0938 -0.3155
 1935TIP3    H127220   2.452   1.353   5.513 -3.2543 -0.4365  0.6380
 1935TIP3    H227221   2.499   1.490   5.557 -0.3122 -0.5552 -1.8021
 1936TIP3   OH227222   0.031   6.284  13.547  0.1422 -0.0934  0.2119
 1936TIP3    H127223   0.033   6.213  13.483 -0.0238 -0.7577  0.9277
 1936TIP3    H227224   0.117   6.325  13.541  0.3486 -0.5533  0.0041
 1937TIP3   OH227225   4.669   0.919  15.986  0.1516  0.1095  0.8777
 1937TIP3    H127226   4.730   0.992  15.974 -0.1599  0.2621  0.1632
 1937TIP3    H227227   4.718   0.855  16.037  2.2648 -1.3116 -2.5846
 1938TIP3   OH227228   1.226   6.174  16.815  0.6626  0.4831  0.5937
 1938TIP3    H127229   1.205   6.198  16.905 -1.8801  0.0558  0.1873
 1938TIP3    H227230   1.237   6.079  16.817 -1.0650  0.2358  0.2364
 1939TIP3   OH227231   6.660   3.510  16.955 -0.2400  0.1561  0.2950
 1939TIP3    H127232   6.691   3.454  17.027  0.5661 -0.6339 -0.6390
 1939TIP3    H227233   6.569   3.484  16.942 -0.4189  0.3708  1.0875
 1940TIP3   OH227234   1.544   0.572  15.850  0.2789  0.4457  0.0374
 1940TIP3    H127235   1.594   0.605  15.925  1.4506  4.2308 -2.1423
 1940TIP3    H227236   1.611   0.543  15.788 -0.5502 -0.0422 -0.6461
 1941TIP3   OH227237   2.610   2.270   1.851  0.3100  0.0995  0.2195
 1941TIP3    H127238   2.565   2.194   1.890 -0.7245 -0.2899 -1.6337
 1941TIP3    H227239   2.581   2.271   1.760  1.6443  1.7414 -0.2309
 1942TIP3   OH227240   1.175   6.126  13.575 -0.1252  0.2178 -0.4366
 1942TIP3    H127241   1.089   6.121  13.534  0.6444  0.4060 -2.1682
 1942TIP3    H227242   1.228   6.063  13.527  0.8284  0.4256  0.3142
 1943TIP3   OH227243   1.595   5.527  11.329  0.2261  0.0829  0.1921
 1943TIP3    H127244   1.635   5.496  11.411  1.8902 -1.1521 -1.0284
 1943TIP3    H227245   1.666   5.569  11.281  0.7107 -3.5429 -2.7267
 1944TIP3   OH227246   2.190   2.255   5.658  0.0557 -0.4700 -0.2054
 1944TIP3    H127247   2.197   2.236   5.564 -0.2662 -1.3018 -0.0755
 1944TIP3    H227248   2.150   2.342   5.662  1.4322  0.2159 -0.8379
 1945TIP3   OH227249   4.266   1.355   3.492  0.0447 -0.5112  0.0169
 1945TIP3    H127250   4.213   1.424   3.450  3.2462  1.2859 -1.4699
 1945TIP3    H227251   4.278   1.386   3.582  1.5197  1.0965 -0.6534
 1946TIP3   OH227252   1.277   6.635  12.526  0.1688  0.1961 -0.3029
 1946TIP3    H127253   1.298   6.550  12.486  1.3791  0.3216  0.0276
 1946TIP3    H227254   1.332   6.639  12.604 -0.4981  0.9317  0.1389
 1947TIP3   OH227255   2.278   1.182  13.228 -0.3689 -0.3723  0.5719
 1947TIP3    H127256   2.341   1.178  13.300 -0.6976  1.5838  1.0036
 1947TIP3    H227257   2.214   1.113  13.247  1.4263 -2.2295  0.2649
 1948TIP3   OH227258   6.452   0.119   5.431 -0.1068 -0.3477 -0.1287
 1948TIP3    H127259   6.398   0.111   5.509  0.3906 -2.4275  0.0621
 1948TIP3    H227260   6.428   0.043   5.377 -0.5051  1.0660 -2.0848
 1949TIP3   OH227261   4.744   3.345   4.797  0.7672 -0.6532 -0.2185
 1949TIP3    H127262   4.729   3.382   4.884  2.0674  0.9559 -0.6160
 1949TIP3    H227263   4.744   3.250   4.811  1.7864 -0.4342  1.7147
 1950TIP3   OH227264   4.377   0.081  13.690 -0.0060  0.0350  0.1841
 1950TIP3    H127265   4.370   0.159  13.744 -0.4973 -0.7693  1.3354
 1950TIP3    H227266   4.286   0.060  13.666 -0.1084 -1.3082  1.6016
 1951TIP3   OH227267   1.317   4.987   6.316  0.4016 -0.0976  0.0224
 1951TIP3    H127268   1.241   4.930   6.330 -0.0563  1.1286  3.5034
 1951TIP3    H227269   1.349   4.964   6.229 -1.1067 -4.0018  0.3217
 1952TIP3   OH227270   1.245   3.388   5.513  0.0953  0.1707  0.5615
 1952TIP3    H127271   1.199   3.330   5.452  0.5306  0.9779 -0.5672
 1952TIP3    H227272   1.185   3.399   5.586 -0.5779 -0.5626  0.1280
 1953TIP3   OH227273   5.221   4.211  13.252 -0.1471  0.4525  0.6148
 1953TIP3    H127274   5.248   4.297  13.286 -2.7654  1.1217  1.2314
 1953TIP3    H227275   5.174   4.171  13.325 -0.1386 -0.9461 -0.1281
 1954TIP3   OH227276   1.547   0.923   1.034  0.0225  0.5504 -0.3042
 1954TIP3    H127277   1.623   0.966   1.074  0.1843  0.2429 -0.2827
 1954TIP3    H227278   1.579   0.889   0.951 -0.5424  2.0177 -1.1626
 1955TIP3   OH227279   1.295   3.094  13.107 -0.6269  0.0908  0.1594
 1955TIP3    H127280   1.306   3.164  13.172 -2.3617 -0.5472  1.2325
 1955TIP3    H227281   1.367   3.034  13.125  0.4524  1.2131 -0.2879
 1956TIP3   OH227282   3.612   4.576  12.475  0.1130  0.0401  0.1072
 1956TIP3    H127283   3.685   4.517  12.492  0.6446  0.4204 -0.7484
 1956TIP3    H227284   3.609   4.633  12.552 -0.0131 -0.7008  0.6600
 1957TIP3   OH227285   6.541   2.285  13.835 -0.4306  0.0695  0.2285
 1957TIP3    H127286   6.467   2.335  13.800 -1.4647  0.1187  2.3770
 1957TIP3    H227287   6.598   2.272  13.759 -1.8868  1.3475 -1.1648
 1958TIP3   OH227288   3.918   1.113  15.480  0.1812 -0.0583  0.5782
 1958TIP3    H127289   3.904   1.121  15.574  0.4158  0.4972  0.5697
 1958TIP3    H227290   3.975   1.186  15.458  2.9480 -2.0628  0.5509
 1959TIP3   OH227291   4.807   0.062   0.927 -0.9282 -0.3116  0.0933
 1959TIP3    H127292   4.724   0.019   0.950 -0.6386 -0.3091  1.1972
 1959TIP3    H227293   4.819   0.128   0.995  0.4949 -1.0050  0.5442
 1960TIP3   OH227294   1.163   3.118   2.967 -0.1056  0.1272  0.0473
 1960TIP3    H127295   1.155   3.174   3.044  0.2166 -0.6800  0.6833
 1960TIP3    H227296   1.199   3.175   2.899 -1.9979  1.2954 -0.0290
 1961TIP3   OH227297   6.606   4.631   4.787 -0.2665  0.5556  0.6001
 1961TIP3    H127298   6.539   4.656   4.723  0.7652 -0.9514 -1.1793
 1961TIP3    H227299   6.619   4.709   4.840 -5.0229  0.2721  2.6097
 1962TIP3   OH227300   0.888   1.877  14.672  0.1304 -0.4762  0.2680
 1962TIP3    H127301   0.833   1.812  14.629 -0.2199  1.2566 -2.0905
 1962TIP3    H227302   0.937   1.918  14.601  0.1880  1.9566  1.6022
 1963TIP3   OH227303   3.415   3.386  11.431 -0.1096 -0.2428 -0.0396
 1963TIP3    H127304   3.477   3.440  11.382  2.4047 -0.3046  2.7732
 1963TIP3    H227305   3.366   3.449  11.484 -1.8818 -0.2917 -1.5071
 1964TIP3   OH227306   4.404   5.966  10.894  0.2619 -0.0652  0.5893
 1964TIP3    H127307   4.318   5.983  10.855 -0.2142  1.4893  2.1874
 1964TIP3    H227308   4.463   6.027  10.850  0.1004  0.4011  1.0183
 1965TIP3   OH227309   4.803   5.199   1.472  0.0002  0.1504  0.7184
 1965TIP3    H127310   4.707   5.199   1.474 -0.1299  1.5208 -1.5489
 1965TIP3    H227311   4.826   5.279   1.425  2.2998  0.0881  1.6034
 1966TIP3   OH227312   0.962   0.684   4.488 -0.4820  0.6188 -0.0015
 1966TIP3    H127313   0.880   0.734   4.491 -0.9988 -0.2225  0.2630
 1966TIP3    H227314   1.029   0.747   4.512 -1.4543  0.4912  3.7100
 1967TIP3   OH227315   0.508   1.718   1.574  0.7186  0.0958 -0.0317
 1967TIP3    H127316   0.440   1.770   1.616  0.0654 -1.3149  0.7160
 1967TIP3    H227317   0.480   1.712   1.482  0.2559  0.1957  0.0990
 1968TIP3   OH227318   1.306   2.364  11.492  0.2245 -0.1458  0.0387
 1968TIP3    H127319   1.215   2.348  11.516  0.2351 -1.9220 -0.8939
 1968TIP3    H227320   1.308   2.454  11.460 -1.3988 -0.3380 -0.7126
 1969TIP3   OH227321   5.721   4.756  12.267 -0.5088 -0.1535  0.2474
 1969TIP3    H127322   5.633   4.794  12.271  0.5994  2.7758 -0.6943
 1969TIP3    H227323   5.752   4.759  12.358 -0.2842  1.8037  0.1541
 1970TIP3   OH227324   2.319   5.969  13.425  0.4748 -0.0706  0.5052
 1970TIP3    H127325   2.267   6.017  13.489  0.0578  0.0350  0.0963
 1970TIP3    H227326   2.405   6.012  13.427  0.3860  0.0934  0.8085
 1971TIP3   OH227327   0.755   4.294  14.370 -0.8576 -0.3026  0.7003
 1971TIP3    H127328   0.769   4.202  14.349 -2.9726 -0.7129  0.8897
 1971TIP3    H227329   0.669   4.296  14.413 -0.4784  1.6468  1.4624
 1972TIP3   OH227330   2.992   6.613  12.827 -0.0493 -0.6448 -0.0713
 1972TIP3    H127331   2.951   6.700  12.819  0.8467 -0.3259 -1.6552
 1972TIP3    H227332   2.992   6.580  12.737  1.5106 -1.4043  0.1957
 1973TIP3   OH227333   2.314   4.941  12.316 -0.0761  1.0498  0.4032
 1973TIP3    H127334   2.406   4.948  12.288 -0.5150  1.9569 -0.8700
 1973TIP3    H227335   2.293   4.849  12.305  0.0621  1.2048 -1.3870
 1974TIP3   OH227336   3.298   1.614  11.354 -0.0808  0.4185  0.5667
 1974TIP3    H127337   3.256   1.615  11.268 -0.7065  0.3425  0.8623
 1974TIP3    H227338   3.391   1.628  11.336  0.1459 -1.8357 -0.3079
 1975TIP3   OH227339   5.109   3.132  12.266  0.2756 -0.6018  0.0041
 1975TIP3    H127340   5.184   3.190  12.252  0.1633 -0.3535  0.3941
 1975TIP3    H227341   5.088   3.097  12.179  0.1415  0.1989 -0.2993
 1976TIP3   OH227342   0.504   1.996  14.671 -0.4966  0.0012  0.4347
 1976TIP3    H127343   0.439   1.926  14.660  0.0659 -0.2749 -1.4782
 1976TIP3    H227344   0.567   1.981  14.601  1.4131  0.5438  1.9609
 1977TIP3   OH227345   6.429   5.250  11.802 -0.1237 -0.0714 -0.1131
 1977TIP3    H127346   6.421   5.304  11.724  3.1666 -0.7935 -1.1090
 1977TIP3    H227347   6.405   5.162  11.773  0.8339 -0.2916 -0.2552
 1978TIP3   OH227348   3.350   6.457  12.151  0.1476  0.2064  0.5015
 1978TIP3    H127349   3.438   6.490  12.130  0.3061 -1.2583 -1.4496
 1978TIP3    H227350   3.303   6.533  12.185  1.5785  1.4905 -0.2608
 1979TIP3   OH227351   1.887   3.266  12.910  0.2930  0.3617  0.2863
 1979TIP3    H127352   1.868   3.344  12.962  0.6699  0.7387 -0.1248
 1979TIP3    H227353   1.823   3.269  12.838  1.0534  0.9450 -0.3895
 1980TIP3   OH227354   3.619   1.677  12.516 -0.2452 -0.6675 -0.5611
 1980TIP3    H127355   3.545   1.657  12.574  0.8272 -1.8478  0.4552
 1980TIP3    H227356   3.602   1.626  12.437 -0.8418 -0.4078 -0.6079
 1981TIP3   OH227357   0.953   6.157   2.062 -0.1258 -0.1483 -0.3900
 1981TIP3    H127358   0.996   6.242   2.061 -1.3884  0.5258 -2.4390
 1981TIP3    H227359   0.984   6.113   1.983 -1.1703 -0.7072 -0.5021
 1982TIP3   OH227360   5.699   1.295  13.856  0.4700 -0.3344 -0.4992
 1982TIP3    H127361   5.608   1.285  13.886  1.1279  0.7031  2.1763
 1982TIP3    H227362   5.692   1.324  13.765 -1.8809 -0.0258 -0.2762
 1983TIP3   OH227363   3.222   1.065   3.297 -0.2230  0.5228  1.1921
 1983TIP3    H127364   3.277   1.083   3.220 -0.7965 -0.9664  0.3962
 1983TIP3    H227365   3.132   1.068   3.263 -0.5540  1.0849  2.0879
 1984TIP3   OH227366   0.069   4.761  12.522 -0.6517 -0.5000 -0.1308
 1984TIP3    H127367   0.094   4.791  12.435  0.9687 -1.6486 -0.1008
 1984TIP3    H227368  -0.023   4.786  12.531 -0.5400  0.5811 -1.7377
 1985TIP3   OH227369   2.259   4.110   0.707 -0.5684 -0.0724  0.1061
 1985TIP3    H127370   2.343   4.156   0.718 -0.3978 -0.4555  0.4536
 1985TIP3    H227371   2.212   4.128   0.789 -1.0575  0.6072 -0.3209
 1986TIP3   OH227372   3.385   6.787  14.629  0.0427 -0.2406 -0.5789
 1986TIP3    H127373   3.431   6.722  14.576 -0.3176 -1.2133  0.2649
 1986TIP3    H227374   3.293   6.760  14.625 -0.0412 -0.0754  0.1752
 1987TIP3   OH227375   5.110   0.205  15.623  0.6703 -0.1523  0.6312
 1987TIP3    H127376   5.088   0.251  15.542  2.1144 -1.0871 -0.3393
 1987TIP3    H227377   5.046   0.134  15.628  0.9436 -0.4586 -0.0337
 1988TIP3   OH227378   6.708   6.383  11.885 -0.2285  0.2027 -0.1252
 1988TIP3    H127379   6.743   6.456  11.833 -1.7860 -0.1141 -1.7360
 1988TIP3    H227380   6.781   6.321  11.891  0.4001  0.8556 -0.7968
 1989TIP3   OH227381   3.894   5.985  14.116 -0.1117  0.4494  0.1041
 1989TIP3    H127382   3.982   6.017  14.096  0.6190 -1.3398  0.2692
 1989TIP3    H227383   3.882   5.910  14.057  0.3253 -2.1577  3.1025
 1990TIP3   OH227384   0.733   5.171   1.051  0.1925 -0.8580 -0.4371
 1990TIP3    H127385   0.652   5.161   1.101 -0.2862  2.2171 -0.3779
 1990TIP3    H227386   0.803   5.149   1.113 -0.4856  0.3957  0.8217
 1991TIP3   OH227387   1.928   5.578  12.259 -0.4926 -1.0424 -0.4649
 1991TIP3    H127388   1.893   5.506  12.312  1.2186 -0.0902  2.1447
 1991TIP3    H227389   1.903   5.657  12.307 -0.2645 -0.0093 -1.9885
 1992TIP3   OH227390   2.248   3.212   1.066 -0.5244  1.0255 -0.3212
 1992TIP3    H127391   2.188   3.251   1.131 -1.0108  0.0304 -0.1495
 1992TIP3    H227392   2.333   3.210   1.111 -0.8146  0.5260  0.2259
 1993TIP3   OH227393   1.208   0.829   4.527  0.3332  0.3204 -0.4864
 1993TIP3    H127394   1.197   0.837   4.432  1.5382 -0.7490 -0.7463
 1993TIP3    H227395   1.239   0.916   4.554 -1.9278  1.2716 -0.7097
 1994TIP3   OH227396   5.288   6.401  14.958  0.0397  0.7320 -0.0783
 1994TIP3    H127397   5.341   6.406  15.038 -2.3712  1.7911  1.6046
 1994TIP3    H227398   5.247   6.315  14.962 -0.7999  1.1364  0.3776
 1995TIP3   OH227399   4.476   6.347  15.651  0.3843 -0.2526 -0.0605
 1995TIP3    H127400   4.388   6.309  15.647  0.5580 -0.7159  0.4512
 1995TIP3    H227401   4.460   6.440  15.672  0.0494 -0.6004  1.3739
 1996TIP3   OH227402   6.704   0.449   3.145 -0.0676  0.5338 -0.0559
 1996TIP3    H127403   6.691   0.377   3.206 -0.2538  0.2637 -0.4122
 1996TIP3    H227404   6.681   0.413   3.059 -2.1299  1.5488 -0.0074
 1997TIP3   OH227405   3.601   1.286   5.786  0.5825 -0.1709 -0.3257
 1997TIP3    H127406   3.583   1.218   5.721 -0.9741 -1.4393  1.3346
 1997TIP3    H227407   3.651   1.241   5.854  1.6829  0.9862 -0.3272
 1998TIP3   OH227408   5.950   3.811  15.650  0.2031  0.3276 -0.3034
 1998TIP3    H127409   5.963   3.819  15.556  2.1522  0.2113 -0.0823
 1998TIP3    H227410   5.981   3.894  15.686 -1.8440  0.9351  0.1576
 1999TIP3   OH227411   1.229   2.008   4.091  0.2889 -0.4435  0.2350
 1999TIP3    H127412   1.136   1.994   4.106 -0.3170  0.4159 -2.1678
 1999TIP3    H227413   1.246   1.967   4.006  1.4298  1.6108 -0.6281
 2000TIP3   OH227414   6.000   6.514  13.010 -0.5197 -0.1882  0.2920
 2000TIP3    H127415   5.942   6.452  12.966 -0.0414 -0.0912 -0.4959
 2000TIP3    H227416   6.088   6.479  12.996 -0.1194  1.2864 -1.2510
 2001TIP3   OH227417   4.152   1.786   5.499 -0.4428 -0.0731 -0.1410
 2001TIP3    H127418   4.198   1.709   5.465 -0.5003 -0.0934 -0.1745
 2001TIP3    H227419   4.188   1.800   5.586 -2.2368 -1.6883  0.9305
 2002TIP3   OH227420   3.433   2.926  14.710  0.1255  0.2110  0.3673
 2002TIP3    H127421   3.444   3.015  14.742 -1.5601 -0.0264  1.7938
 2002TIP3    H227422   3.408   2.876  14.788 -0.6185 -1.1538 -0.7052
 2003TIP3   OH227423   5.037   5.774  14.608 -0.5348  0.0937  0.1724
 2003TIP3    H127424   5.039   5.825  14.689  2.9141  1.1804 -0.4214
 2003TIP3    H227425   5.032   5.839  14.538 -0.8282 -0.6655 -0.5262
 2004TIP3   OH227426   6.111   1.601  14.349 -0.4484  0.5610 -0.0778
 2004TIP3    H127427   6.092   1.629  14.438  0.2014 -0.7643  0.5070
 2004TIP3    H227428   6.158   1.518  14.359 -1.7558 -0.4369 -1.6977
 2005TIP3   OH227429   3.865   6.073  12.839  0.0735 -0.0096 -0.2185
 2005TIP3    H127430   3.898   6.009  12.902  2.8863  1.4234 -0.0974
 2005TIP3    H227431   3.896   6.042  12.755  0.9712  0.8573 -0.2240
 2006TIP3   OH227432   5.989   3.290   3.468  0.2358  0.2402  0.0644
 2006TIP3    H127433   6.059   3.316   3.407  0.9560  2.0390  1.5821
 2006TIP3    H227434   5.958   3.372   3.506 -2.9517 -0.4646 -0.7154
 2007TIP3   OH227435   0.003   4.362   4.771  0.4325 -0.0053 -0.1985
 2007TIP3    H127436   0.040   4.402   4.850 -1.8824  0.2321  0.8515
 2007TIP3    H227437  -0.017   4.436   4.714  0.0742  0.0169 -0.0500
 2008TIP3   OH227438   5.889   6.052   4.938 -0.0260 -0.4522 -0.2864
 2008TIP3    H127439   5.852   6.139   4.956  0.8854 -0.5622  2.7421
 2008TIP3    H227440   5.813   5.994   4.937 -0.7199  0.3548 -2.9759
 2009TIP3   OH227441   5.213   3.630  11.837  0.2890  0.4119  0.1790
 2009TIP3    H127442   5.292   3.611  11.887  0.4299  0.0795 -0.1616
 2009TIP3    H227443   5.147   3.571  11.873  0.5510 -0.2688 -0.4290
 2010TIP3   OH227444   5.854   4.531   1.035  0.0640 -0.2035 -0.0658
 2010TIP3    H127445   5.918   4.541   1.105  1.2113  0.1720 -1.1220
 2010TIP3    H227446   5.902   4.555   0.955 -1.1954 -0.6050 -0.9793
 2011TIP3   OH227447   5.370   0.615   1.939 -0.7477 -0.3746  0.2288
 2011TIP3    H127448   5.375   0.615   1.843 -3.6643 -2.3377 -0.0361
 2011TIP3    H227449   5.290   0.664   1.959 -0.6418 -0.7370  1.6269
 2012TIP3   OH227450   0.811   2.352  16.019  0.3536  0.1526  0.2274
 2012TIP3    H127451   0.831   2.282  16.081 -1.9636 -0.6490  0.1966
 2012TIP3    H227452   0.785   2.425  16.075 -1.2145 -0.3975  0.2737
 2013TIP3   OH227453   4.949   0.071   0.695 -0.2217 -0.0047  0.0614
 2013TIP3    H127454   4.899   0.072   0.777  0.6574  0.8448  0.6084
 2013TIP3    H227455   4.883   0.073   0.626 -1.0827 -2.7357  0.6607
 2014TIP3   OH227456   4.032   0.022   5.850 -0.3091  0.4970  0.0767
 2014TIP3    H127457   3.979   0.071   5.913 -1.9527 -0.6808 -0.3400
 2014TIP3    H227458   3.991   0.040   5.766 -1.0563 -1.6430 -0.0717
 2015TIP3   OH227459   3.275   3.894  15.603 -0.4307  0.1051  0.2591
 2015TIP3    H127460   3.315   3.952  15.539 -0.9717  0.4706  0.2447
 2015TIP3    H227461   3.185   3.882  15.572 -0.0533 -1.5531 -0.2896
 2016TIP3   OH227462   3.285   3.764   0.973  0.3336  0.5343 -0.3802
 2016TIP3    H127463   3.368   3.721   0.993  1.0155  2.5169  1.3811
 2016TIP3    H227464   3.220   3.714   1.022  0.8184  0.3045  0.0440
 2017TIP3   OH227465   2.386   0.966  15.432 -0.3497 -0.1160 -0.4619
 2017TIP3    H127466   2.321   1.004  15.373 -1.1613  2.6250  1.9335
 2017TIP3    H227467   2.338   0.948  15.513  1.6233  1.5511  1.2281
 2018TIP3   OH227468   5.095   0.271   4.849  0.7643 -0.2821  0.1584
 2018TIP3    H127469   5.158   0.301   4.915  0.6303 -0.3965  0.3415
 2018TIP3    H227470   5.011   0.303   4.881  0.8056  0.3948 -0.4039
 2019TIP3   OH227471   1.427   1.274  16.306  0.3613 -0.6407 -0.1747
 2019TIP3    H127472   1.419   1.192  16.353 -0.2684  0.3549  1.5591
 2019TIP3    H227473   1.366   1.333  16.350  2.2103  1.3249 -0.0662
 2020TIP3   OH227474   0.136   1.808  16.554 -0.5767 -0.0161 -0.3828
 2020TIP3    H127475   0.227   1.795  16.525 -0.5469 -0.4356 -0.1064
 2020TIP3    H227476   0.114   1.727  16.601  0.1751  1.5091  2.8811
 2021TIP3   OH227477   1.216   0.414   4.993  0.0246 -0.2641  0.0663
 2021TIP3    H127478   1.160   0.339   4.975 -2.1291  1.3290 -0.2463
 2021TIP3    H227479   1.262   0.391   5.073  0.3877 -2.3926 -0.6872
 2022TIP3   OH227480   3.584   5.643  13.347 -0.9322 -0.2645  0.3625
 2022TIP3    H127481   3.545   5.569  13.393 -0.0806 -1.6253 -1.0291
 2022TIP3    H227482   3.514   5.677  13.291 -1.4049  0.1996  1.2086
 2023TIP3   OH227483   4.362   3.071  16.071 -0.2124 -0.4885 -0.1059
 2023TIP3    H127484   4.322   3.125  16.003  0.7567  1.0960  0.5209
 2023TIP3    H227485   4.307   3.084  16.148 -0.8117 -1.5920 -0.3262
 2024TIP3   OH227486   5.760   1.359   0.823 -0.5387  0.3242  0.2927
 2024TIP3    H127487   5.799   1.416   0.890  0.5118  0.5450 -0.4720
 2024TIP3    H227488   5.695   1.308   0.870  0.2649  0.3769  1.5213
 2025TIP3   OH227489   1.490   2.409  13.852 -0.2830  0.0828  0.3686
 2025TIP3    H127490   1.502   2.427  13.759 -0.5304  0.8012  0.4661
 2025TIP3    H227491   1.522   2.320  13.864 -2.2069 -0.8195 -0.8075
 2026TIP3   OH227492   3.816   0.333   3.538  0.8494  0.4100  0.0593
 2026TIP3    H127493   3.830   0.358   3.447  2.2768  2.5910  0.7825
 2026TIP3    H227494   3.790   0.241   3.535  1.9080  0.1304 -2.4579
 2027TIP3   OH227495   2.297   3.112  14.225 -0.2557  0.4375 -0.0105
 2027TIP3    H127496   2.377   3.061  14.239  0.2616  0.6202 -2.0165
 2027TIP3    H227497   2.328   3.197  14.194 -1.2223  0.0689 -2.1279
 2028TIP3   OH227498   1.910   4.842  13.150  0.2700  0.1947  0.4538
 2028TIP3    H127499   1.967   4.897  13.098  0.1004 -0.0674 -0.0142
 2028TIP3    H227500   1.964   4.816  13.225  0.6352  0.2743  0.2217
 2029TIP3   OH227501   0.998   6.669  15.944  0.2169 -0.3954 -0.1703
 2029TIP3    H127502   0.903   6.671  15.930  0.2815 -1.3890 -0.8086
 2029TIP3    H227503   1.009   6.664  16.039 -0.3325  1.1851  0.0053
 2030TIP3   OH227504   5.448   1.349  15.477 -0.4632  0.1199  0.6003
 2030TIP3    H127505   5.404   1.422  15.434 -1.0703 -1.8689 -2.4581
 2030TIP3    H227506   5.539   1.377  15.485 -0.8910  1.6135  0.5939
 2031TIP3   OH227507   5.462   3.102  12.173  0.4786  0.4850  0.3303
 2031TIP3    H127508   5.488   3.140  12.089 -0.2197 -0.8000 -0.5006
 2031TIP3    H227509   5.378   3.059  12.156  0.3112  0.2104  1.6926
 2032TIP3   OH227510   4.918   0.374   2.116 -0.0477  0.0631 -0.2346
 2032TIP3    H127511   4.979   0.367   2.190  0.2180  0.5408 -0.4008
 2032TIP3    H227512   4.846   0.427   2.150 -0.7091 -1.0704  0.1704
 2033TIP3   OH227513   5.946   4.833  12.118 -0.2835  0.1736  0.7730
 2033TIP3    H127514   5.869   4.802  12.166  0.1481  0.4041  1.6463
 2033TIP3    H227515   5.973   4.912  12.165 -0.5783  1.1297 -0.6144
 2034TIP3   OH227516   0.681   4.612   6.519 -0.3182 -0.2269 -0.8242
 2034TIP3    H127517   0.654   4.695   6.559  0.2163 -1.2043  1.7625
 2034TIP3    H227518   0.610   4.551   6.541 -0.4747 -0.5929 -2.2777
 2035TIP3   OH227519   1.243   6.704  10.648  0.4081 -0.0802  0.1087
 2035TIP3    H127520   1.319   6.721  10.591  0.2002  0.9173  0.1081
 2035TIP3    H227521   1.181   6.658  10.592  0.4149  0.4400 -0.3413
 2036TIP3   OH227522   3.682   4.289  12.820 -0.6471  0.5341  0.0544
 2036TIP3    H127523   3.663   4.196  12.807 -2.1387  0.9682 -1.2764
 2036TIP3    H227524   3.722   4.294  12.906 -0.3383 -1.3679  0.0601
 2037TIP3   OH227525   6.805   1.597   4.220  0.3826  0.2850  0.0730
 2037TIP3    H127526   6.740   1.648   4.172  1.5551  0.4316 -1.4307
 2037TIP3    H227527   6.802   1.510   4.180 -0.0147 -0.2018  1.1068
 2038TIP3   OH227528   4.628   6.133  16.555  0.2273 -0.4309 -0.6296
 2038TIP3    H127529   4.635   6.206  16.493  1.7274 -0.7094 -0.8156
 2038TIP3    H227530   4.714   6.091  16.553  0.9664  0.5560  2.8664
 2039TIP3   OH227531   1.840   0.317  14.108  0.2755 -0.5635 -0.1862
 2039TIP3    H127532   1.809   0.398  14.067  1.4373 -0.1944 -0.3707
 2039TIP3    H227533   1.785   0.248  14.070 -0.6512  0.1180 -0.1084
 2040TIP3   OH227534   3.122   2.811  12.395 -0.2816 -0.0477  0.2410
 2040TIP3    H127535   3.042   2.808  12.446 -0.4203  0.3183  0.0490
 2040TIP3    H227536   3.111   2.742  12.329 -0.6736  0.3553 -0.1221
 2041TIP3   OH227537   2.774   6.445  11.231  0.4414  0.7937 -0.1396
 2041TIP3    H127538   2.864   6.414  11.218  0.1854  0.0509 -0.1881
 2041TIP3    H227539   2.784   6.534  11.264  1.2011  0.6052  0.1598
 2042TIP3   OH227540   2.146   2.127   2.053 -0.7554 -0.3203  1.1877
 2042TIP3    H127541   2.207   2.191   2.016  0.1659 -0.8574  1.7414
 2042TIP3    H227542   2.102   2.174   2.124 -3.0231  0.9330 -0.9009
 2043TIP3   OH227543   4.945   3.956  15.595  0.6952 -0.6065  0.6909
 2043TIP3    H127544   4.935   4.031  15.653 -0.0201 -0.3499  0.2503
 2043TIP3    H227545   4.924   3.990  15.508  0.6415 -1.2482  0.4480
 2044TIP3   OH227546   1.663   6.375   4.625 -0.1424  0.3581  0.4200
 2044TIP3    H127547   1.580   6.336   4.651  0.2444  0.4433  1.8930
 2044TIP3    H227548   1.684   6.334   4.541 -0.9833 -0.7143  0.7132
 2045TIP3   OH227549   6.450   4.020  14.034 -0.1700  0.1904  0.3091
 2045TIP3    H127550   6.455   4.088  14.101 -1.2427  0.3371  0.2570
 2045TIP3    H227551   6.469   3.939  14.081  1.5464  0.5405  0.2872
 2046TIP3   OH227552   0.778   0.081  12.485  0.4494 -0.1908 -0.5736
 2046TIP3    H127553   0.760   0.103  12.577  3.5202  0.5080 -0.0368
 2046TIP3    H227554   0.758   0.162  12.437  0.3505 -0.0467 -0.2943
 2047TIP3   OH227555   4.908   2.499  11.443 -0.2932  0.2149 -0.0975
 2047TIP3    H127556   4.960   2.490  11.363 -0.7232 -2.0949 -0.1639
 2047TIP3    H227557   4.956   2.449  11.508 -1.6311 -0.6655  0.2411
 2048TIP3   OH227558   3.914   2.452  11.443 -0.0296  0.5797 -0.2155
 2048TIP3    H127559   3.831   2.461  11.490  0.1912  0.7802  0.1429
 2048TIP3    H227560   3.970   2.403  11.504  0.4042  1.2239 -0.0799
 2049TIP3   OH227561   5.143   4.099  16.604  0.1637 -0.7254 -0.1666
 2049TIP3    H127562   5.163   4.008  16.626 -0.6635 -0.6697  0.8996
 2049TIP3    H227563   5.096   4.132  16.681 -1.6311 -0.0881 -1.4684
 2050TIP3   OH227564   2.189   2.380   0.015  0.0481 -0.2069  0.4467
 2050TIP3    H127565   2.271   2.331   0.024  0.2483 -0.2842 -1.4703
 2050TIP3    H227566   2.194   2.421  -0.071 -1.6160  0.3841  0.5863
 2051TIP3   OH227567   5.124   0.454   5.805  0.1773  1.0390 -0.5801
 2051TIP3    H127568   5.087   0.372   5.837  0.1624  1.1210 -0.3845
 2051TIP3    H227569   5.098   0.519   5.871  2.6607  0.6910  0.8600
 2052TIP3   OH227570   2.828   6.143  16.255  0.1772 -0.1262 -0.2337
 2052TIP3    H127571   2.904   6.201  16.253 -0.6822  1.0243 -0.6363
 2052TIP3    H227572   2.865   6.055  16.263  1.5410  0.4069 -0.4146
 2053TIP3   OH227573   2.996   2.600   2.847 -0.2445 -0.1933  0.1810
 2053TIP3    H127574   2.934   2.616   2.776  0.2426 -1.1612 -0.4927
 2053TIP3    H227575   2.946   2.552   2.913  0.1260 -2.4330 -1.0656
 2054TIP3   OH227576   5.015   1.391  15.907  0.3250  0.2134 -0.1119
 2054TIP3    H127577   4.948   1.418  15.969 -0.8862 -0.4198 -1.1026
 2054TIP3    H227578   5.067   1.326  15.955  0.6256  1.1471  0.8611
 2055TIP3   OH227579   0.126   0.821   4.033 -0.1264  0.0719  0.2185
 2055TIP3    H127580   0.163   0.779   3.956  0.4334 -0.2592  0.6633
 2055TIP3    H227581   0.124   0.753   4.100  1.0591  0.8012  1.0365
 2056TIP3   OH227582   2.989   3.847  14.756  0.1397  0.6966  0.3392
 2056TIP3    H127583   2.988   3.896  14.838 -0.1295  0.5417  0.4274
 2056TIP3    H227584   2.901   3.856  14.722  0.8051  2.6640 -1.0627
 2057TIP3   OH227585   3.030   0.577   2.787  0.3807 -0.4958 -0.2592
 2057TIP3    H127586   3.016   0.489   2.752 -1.9675 -0.5484  0.6588
 2057TIP3    H227587   2.980   0.579   2.868 -0.7375  2.0938 -0.9037
 2058TIP3   OH227588   3.827   0.922  12.751  0.2993  0.5294 -0.2256
 2058TIP3    H127589   3.755   0.859  12.753 -0.2216  1.0920 -0.8127
 2058TIP3    H227590   3.784   1.008  12.747  0.9637  1.0135  1.7866
 2059TIP3   OH227591   5.687   6.040   2.665  0.2207 -0.5725 -0.2486
 2059TIP3    H127592   5.628   6.027   2.591  1.7823 -1.1862 -1.4674
 2059TIP3    H227593   5.735   5.958   2.673 -0.0041 -0.5696  1.5809
 2060TIP3   OH227594   4.174   2.594  13.417  0.0468 -0.4808 -0.1690
 2060TIP3    H127595   4.142   2.587  13.327  0.4526 -1.5973 -0.2399
 2060TIP3    H227596   4.180   2.503  13.447  0.5886 -0.1507  0.7435
 2061TIP3   OH227597   3.366   5.741   3.254  0.1300  0.3900  0.2786
 2061TIP3    H127598   3.417   5.723   3.333 -1.0964  0.9282  1.2263
 2061TIP3    H227599   3.328   5.656   3.230 -0.8758  0.5359  1.2893
 2062TIP3   OH227600   0.233   6.528   2.533  0.0761 -0.2469  0.0372
 2062TIP3    H127601   0.154   6.473   2.528 -0.0942 -0.2212  1.9026
 2062TIP3    H227602   0.278   6.499   2.612  1.8979 -0.1517 -0.9211
 2063TIP3   OH227603   1.132   6.101   4.526  0.5098 -0.3396 -0.1484
 2063TIP3    H127604   1.056   6.133   4.477  0.3711 -0.0475  0.2447
 2063TIP3    H227605   1.097   6.034   4.584  0.6736 -0.6882 -0.4536
 2064TIP3   OH227606   1.476   4.140   5.611  0.1614  0.2860  0.1363
 2064TIP3    H127607   1.485   4.118   5.518 -0.9800 -0.9503  0.2887
 2064TIP3    H227608   1.396   4.193   5.616 -1.3769 -1.9413  0.7035
 2065TIP3   OH227609   4.094   4.296  11.073  0.6522 -0.0738  0.1380
 2065TIP3    H127610   4.045   4.218  11.049 -0.3502  0.6843 -0.3466
 2065TIP3    H227611   4.136   4.325  10.992 -0.2581  0.7578 -0.0594
 2066TIP3   OH227612   2.921   4.926  14.933 -0.2884 -0.7519  0.1153
 2066TIP3    H127613   2.896   5.012  14.966  0.5454 -0.8632  1.0894
 2066TIP3    H227614   2.875   4.918  14.849 -0.8025  0.4080  0.2674
 2067TIP3   OH227615   3.710   6.787  14.360  0.5834  0.1301 -0.6864
 2067TIP3    H127616   3.754   6.871  14.350 -0.5589  0.9757  0.8038
 2067TIP3    H227617   3.639   6.789  14.295  1.1233 -0.0993 -1.2897
 2068TIP3   OH227618   1.506   0.046   1.769 -0.3461  0.6938  0.1844
 2068TIP3    H127619   1.459   0.129   1.761 -1.2840  0.1358 -0.2832
 2068TIP3    H227620   1.598   0.070   1.764 -0.5934  1.7338  0.3524
 2069TIP3   OH227621   3.133   5.654   1.792 -0.7321  0.0323 -0.2125
 2069TIP3    H127622   3.159   5.568   1.826  1.3680  0.8256  0.3168
 2069TIP3    H227623   3.166   5.655   1.703 -3.1223 -0.6753 -1.1857
 2070TIP3   OH227624   5.417   3.237  13.380  0.4260 -0.2155  0.5623
 2070TIP3    H127625   5.415   3.189  13.463  1.8079  0.4984  1.0476
 2070TIP3    H227626   5.448   3.173  13.316 -0.7472 -0.7992  0.5539
 2071TIP3   OH227627   2.158   6.161  16.278  0.1491 -0.2161 -0.1754
 2071TIP3    H127628   2.208   6.083  16.302  1.0261  0.6140  0.7422
 2071TIP3    H227629   2.092   6.128  16.216 -1.4283 -2.2620  2.3712
 2072TIP3   OH227630   5.740   2.466   3.830 -0.7734 -0.1393  0.2980
 2072TIP3    H127631   5.765   2.491   3.919 -0.5626  0.5231  0.0573
 2072TIP3    H227632   5.821   2.468   3.780 -0.9409 -0.2067  0.0195
 2073TIP3   OH227633   2.597   6.309   1.582 -0.0291  0.4148  0.7749
 2073TIP3    H127634   2.634   6.295   1.669 -0.4555  1.7745  1.2171
 2073TIP3    H227635   2.617   6.401   1.563 -0.9163  0.4477 -0.0693
 2074TIP3   OH227636   4.269   3.546   5.251 -0.1819  0.1302  0.2769
 2074TIP3    H127637   4.319   3.573   5.174  0.9278  0.9879  1.2606
 2074TIP3    H227638   4.213   3.621   5.271 -0.5933 -0.1564  0.2141
 2075TIP3   OH227639   1.401   6.745   2.845 -0.3824 -0.5394  0.5187
 2075TIP3    H127640   1.481   6.780   2.886  0.9742 -1.1794 -1.4494
 2075TIP3    H227641   1.332   6.805   2.872  0.8484  0.3648  1.8135
 2076TIP3   OH227642   0.956   6.461   4.570  0.6326  0.1480 -0.3969
 2076TIP3    H127643   1.021   6.500   4.628  0.2270 -1.4508  1.2125
 2076TIP3    H227644   0.927   6.382   4.615 -2.9756  1.1314 -0.6188
 2077TIP3   OH227645   5.897   2.400  15.030 -0.3842  0.1901  0.0811
 2077TIP3    H127646   5.944   2.439  15.103 -0.6577  2.0747 -0.6836
 2077TIP3    H227647   5.806   2.426  15.043 -0.9437 -1.7616  0.4833
 2078TIP3   OH227648   3.593   3.674  17.064  0.2689  0.1090 -0.4545
 2078TIP3    H127649   3.610   3.727  16.986 -0.1740  2.2545  0.8179
 2078TIP3    H227650   3.676   3.628  17.080  0.7590  0.6044 -1.4830
 2079TIP3   OH227651   3.785   4.496   6.070  0.1456 -0.5273  0.0854
 2079TIP3    H127652   3.833   4.413   6.067 -1.1565 -1.3795  1.4068
 2079TIP3    H227653   3.814   4.538   6.151 -0.7588 -0.7065  0.5173
 2080TIP3   OH227654   1.372   6.406  14.508  0.5584  0.6717  0.1652
 2080TIP3    H127655   1.448   6.348  14.514 -0.1046 -0.3303 -0.7279
 2080TIP3    H227656   1.335   6.388  14.421 -0.7118  1.1046  0.5983
 2081TIP3   OH227657   0.571   1.271   0.541  0.0581 -0.0007 -0.3408
 2081TIP3    H127658   0.489   1.225   0.559 -0.4382  0.3708 -1.5302
 2081TIP3    H227659   0.618   1.269   0.624 -0.7895 -0.9504  0.1437
 2082TIP3   OH227660   0.111   3.563   6.091 -0.3482 -0.3569  0.2419
 2082TIP3    H127661   0.071   3.579   6.176 -2.3366  1.3666 -0.9102
 2082TIP3    H227662   0.036   3.555   6.031  0.9930 -1.2143 -1.3974
 2083TIP3   OH227663   4.529   5.230   1.480 -0.4535 -0.0293  0.0649
 2083TIP3    H127664   4.454   5.206   1.535 -0.5058 -0.8440 -0.3449
 2083TIP3    H227665   4.492   5.236   1.392 -0.2684  0.7713  0.0271
 2084TIP3   OH227666   5.804   4.062  15.914  0.0917  0.3940 -0.4723
 2084TIP3    H127667   5.857   4.132  15.951  1.0202  0.4414 -1.7975
 2084TIP3    H227668   5.713   4.093  15.922  0.1421  0.0972  2.2821
 2085TIP3   OH227669   6.266   3.443  11.719 -0.2209 -0.3558 -0.5109
 2085TIP3    H127670   6.298   3.521  11.764 -0.0827 -0.7150  0.0150
 2085TIP3    H227671   6.302   3.450  11.631 -1.6274  1.0685 -1.0157
 2086TIP3   OH227672   5.386   1.882   2.136 -0.1642  0.2018 -0.4745
 2086TIP3    H127673   5.467   1.894   2.086 -0.9221 -0.8931 -2.0575
 2086TIP3    H227674   5.317   1.920   2.082 -0.7754  0.8322  0.7021
 2087TIP3   OH227675   6.233   3.300   4.187 -0.2409 -0.2219  0.0160
 2087TIP3    H127676   6.300   3.233   4.201 -0.4527 -0.1970  1.2954
 2087TIP3    H227677   6.161   3.274   4.245 -1.0072  0.1928 -0.7391
 2088TIP3   OH227678   1.986   3.254   2.564  0.1883  0.1755  0.0798
 2088TIP3    H127679   1.944   3.200   2.497  0.6662  1.2364 -1.1100
 2088TIP3    H227680   1.933   3.334   2.565  0.5869  0.4320  0.4957
 2089TIP3   OH227681   4.752   2.665   4.587  0.0136  0.3137  0.0364
 2089TIP3    H127682   4.805   2.682   4.665  0.5254  0.0282 -0.2454
 2089TIP3    H227683   4.716   2.577   4.602  1.1456 -0.2765 -0.6197
 2090TIP3   OH227684   2.343   4.279   6.066 -0.3623  0.2431 -0.0672
 2090TIP3    H127685   2.279   4.316   6.127 -0.9044 -0.5582 -0.1325
 2090TIP3    H227686   2.381   4.204   6.113  0.4972  0.6745 -0.0508
 2091TIP3   OH227687   0.805   5.819   1.648  0.5054 -0.1642  1.3244
 2091TIP3    H127688   0.860   5.897   1.634  0.6435 -0.4565  0.1126
 2091TIP3    H227689   0.722   5.855   1.680  0.4047  0.5374  0.3329
 2092TIP3   OH227690   0.282   1.211  12.472 -0.3594  0.3287  0.3101
 2092TIP3    H127691   0.218   1.144  12.447  0.4117 -0.6274  0.8053
 2092TIP3    H227692   0.265   1.284  12.413  0.6523 -1.3897 -2.3063
 2093TIP3   OH227693   1.439   6.628   3.140 -0.4747  0.1951  0.0022
 2093TIP3    H127694   1.362   6.644   3.086 -1.3562 -3.0648  0.0881
 2093TIP3    H227695   1.414   6.661   3.227 -0.5025  1.9654 -0.6289
 2094TIP3   OH227696   2.741   0.709   5.110  0.2780  0.0277  0.5687
 2094TIP3    H127697   2.707   0.728   5.197 -0.2214 -0.1567  0.4186
 2094TIP3    H227698   2.708   0.621   5.090 -0.1285  0.3133 -0.0541
 2095TIP3   OH227699   2.997   5.912  16.328 -0.3252  0.4466 -0.3830
 2095TIP3    H127700   2.991   5.841  16.392  1.6488 -0.7623 -1.4333
 2095TIP3    H227701   3.070   5.965  16.359 -1.5759  1.9108  0.2100
 2096TIP3   OH227702   3.104   0.072  14.532 -0.1249 -0.1766  0.4755
 2096TIP3    H127703   3.065   0.146  14.577  0.1931 -0.5938  1.4674
 2096TIP3    H227704   3.129   0.106  14.446 -0.7370  0.6343  0.6095
 2097TIP3   OH227705   5.548   2.521   1.308 -0.0306 -0.5394  0.0923
 2097TIP3    H127706   5.501   2.571   1.242  0.0004  1.7156  1.6646
 2097TIP3    H227707   5.537   2.571   1.389  2.1932 -1.7288  1.2393
 2098TIP3   OH227708   5.010   0.855  15.449  0.2001  0.4005  0.1418
 2098TIP3    H127709   4.916   0.839  15.457  0.2495  0.0846  0.1216
 2098TIP3    H227710   5.049   0.805  15.521  0.3950  0.1013 -0.1685
 2099TIP3   OH227711   6.275   0.352  11.968  0.3323  0.1190  0.2711
 2099TIP3    H127712   6.220   0.278  11.993 -1.1517  1.1416  0.1583
 2099TIP3    H227713   6.354   0.312  11.931  0.8275 -1.4228  2.7348
 2100TIP3   OH227714   5.899   4.347  11.958  0.1188  0.0632 -0.4276
 2100TIP3    H127715   5.830   4.405  11.991  0.3563 -0.2441  0.6787
 2100TIP3    H227716   5.956   4.404  11.908  0.4410  0.8566  0.7882
 2101TIP3   OH227717   6.261   5.712  16.615  0.3038 -0.1094  0.1438
 2101TIP3    H127718   6.213   5.722  16.532 -0.7080 -0.1947  0.6949
 2101TIP3    H227719   6.293   5.622  16.613 -1.1468 -0.6715  0.5458
 2102TIP3   OH227720   0.485   1.966  13.264 -0.6686 -0.0082  0.3412
 2102TIP3    H127721   0.482   1.994  13.172 -1.0932  1.3419  0.7493
 2102TIP3    H227722   0.476   2.047  13.314  1.6230 -0.4605  1.6114
 2103TIP3   OH227723   3.093   6.006   1.534 -0.0330  0.2007 -0.0733
 2103TIP3    H127724   3.165   5.977   1.589 -0.0565 -2.1259 -1.1637
 2103TIP3    H227725   3.018   6.011   1.593  0.2903 -0.6975  0.4305
 2104TIP3   OH227726   6.140   3.931  13.748 -0.1776 -0.0608  0.1589
 2104TIP3    H127727   6.101   3.890  13.824 -0.8483 -1.5915 -0.9704
 2104TIP3    H227728   6.233   3.910  13.754  0.4195  2.6056  2.2278
 2105TIP3   OH227729   5.317   4.361  14.022 -0.0887  0.0330  0.2565
 2105TIP3    H127730   5.250   4.409  14.072 -0.7547 -1.4484  0.8606
 2105TIP3    H227731   5.287   4.365  13.931 -1.5013 -1.3170  0.6194
 2106TIP3   OH227732   1.212   1.009  12.409 -0.0827 -0.0643 -0.0178
 2106TIP3    H127733   1.248   0.954  12.479 -1.0300 -1.8613 -0.8613
 2106TIP3    H227734   1.133   0.963  12.381 -0.3913  1.2489 -1.4504
 2107TIP3   OH227735   3.641   4.246   5.007  0.2728 -0.0421 -0.5877
 2107TIP3    H127736   3.711   4.266   5.069 -0.7933 -0.5975  0.8582
 2107TIP3    H227737   3.678   4.268   4.922  2.2677 -0.4922  0.0975
 2108TIP3   OH227738   0.876   3.287   5.061  0.0871  0.2873  0.1413
 2108TIP3    H127739   0.936   3.250   5.127 -1.4959  0.0769  1.5334
 2108TIP3    H227740   0.878   3.224   4.989  1.5007  0.2774  0.1631
 2109TIP3   OH227741   6.730   2.408  14.469 -0.3847 -0.0982 -0.0592
 2109TIP3    H127742   6.816   2.449  14.466  0.1881 -1.3136 -1.6758
 2109TIP3    H227743   6.671   2.479  14.493  0.9317  1.0032  0.0401
 2110TIP3   OH227744   3.034   1.670   2.319  0.8692 -0.3095 -0.0687
 2110TIP3    H127745   3.105   1.628   2.272  0.3044  0.4513 -1.6603
 2110TIP3    H227746   3.074   1.703   2.399  2.2444 -0.1460 -0.8001
 2111TIP3   OH227747   6.236   5.043   0.326 -0.0142 -0.1863  0.1063
 2111TIP3    H127748   6.191   5.009   0.404 -1.4562  0.9768 -0.1596
 2111TIP3    H227749   6.318   5.078   0.359 -1.5318  2.3129  1.5900
 2112TIP3   OH227750   1.427   1.957   1.248 -0.2638 -0.0605  0.0555
 2112TIP3    H127751   1.473   2.015   1.187 -0.8029  0.4995  0.1677
 2112TIP3    H227752   1.487   1.948   1.322  0.3099 -0.5859 -0.4661
 2113TIP3   OH227753   6.482   0.016  16.380 -0.0116  0.0727  0.1954
 2113TIP3    H127754   6.485   0.112  16.372 -1.2723  0.1281  0.1091
 2113TIP3    H227755   6.411  -0.010  16.321 -1.5417 -0.6323  2.2472
 2114TIP3   OH227756   3.930   1.651  16.308 -0.0531  0.2110  0.4402
 2114TIP3    H127757   3.859   1.594  16.337  0.6521 -0.1949  1.4644
 2114TIP3    H227758   4.009   1.611  16.346  0.6270  1.0628 -0.0453
 2115TIP3   OH227759   6.487   4.072   2.163 -0.4129  0.2997 -0.0254
 2115TIP3    H127760   6.537   4.125   2.226  1.8541 -0.6669 -0.8853
 2115TIP3    H227761   6.511   4.108   2.078 -1.7314  0.1815 -0.4688
 2116TIP3   OH227762   3.740   2.397  12.110  0.1491 -0.0926  0.2665
 2116TIP3    H127763   3.688   2.409  12.030  1.5672 -1.2530 -0.9091
 2116TIP3    H227764   3.717   2.471  12.165 -0.8221  0.8124 -1.2724
 2117TIP3   OH227765   4.013   3.888   5.628  0.8126 -0.9616 -0.2830
 2117TIP3    H127766   4.027   3.850   5.542  1.7959 -0.1800 -0.4825
 2117TIP3    H227767   4.071   3.964   5.631  0.6650 -0.8747  1.0020
 2118TIP3   OH227768   5.159   3.870  11.158  0.1344  0.2576 -0.5152
 2118TIP3    H127769   5.117   3.949  11.125  0.9123  0.9046  0.0245
 2118TIP3    H227770   5.242   3.864  11.110 -0.9712 -1.6136 -2.3858
 2119TIP3   OH227771   0.712   3.156  16.202  0.3819 -0.1177 -0.2664
 2119TIP3    H127772   0.633   3.195  16.240 -0.7747 -3.1781  0.7479
 2119TIP3    H227773   0.728   3.207  16.122 -2.5752  0.6726 -0.4646
 2120TIP3   OH227774   3.327   0.453  15.095  0.6345  0.7957  0.1489
 2120TIP3    H127775   3.234   0.466  15.115  0.7960  1.8388  0.2614
 2120TIP3    H227776   3.357   0.538  15.063  1.8461  0.8283  1.2882
 2121TIP3   OH227777   1.823   6.649   5.015 -0.4730 -0.7799 -0.6390
 2121TIP3    H127778   1.884   6.634   4.943 -1.1512 -1.4808 -1.0870
 2121TIP3    H227779   1.737   6.630   4.978 -0.7747 -1.7880  0.5140
 2122TIP3   OH227780   2.940   5.347   5.642 -0.1291  0.7003  0.4691
 2122TIP3    H127781   2.944   5.270   5.698  0.0708 -0.0424 -0.5395
 2122TIP3    H227782   3.005   5.407   5.678  0.4804 -0.0458  0.6337
 2123TIP3   OH227783   2.311   0.988  14.463 -0.5366 -0.3843 -0.0970
 2123TIP3    H127784   2.294   0.901  14.498  1.0977 -0.9515 -0.6344
 2123TIP3    H227785   2.225   1.031  14.463 -1.1064 -1.4161  1.6508
 2124TIP3   OH227786   2.167   0.152   3.996 -0.2710 -0.0974  0.1310
 2124TIP3    H127787   2.185   0.082   3.933  0.2801 -0.8522  1.0861
 2124TIP3    H227788   2.230   0.221   3.975 -1.4079  0.5264 -1.3877
 2125TIP3   OH227789   0.706   2.688   1.108 -0.2963  0.6171  0.2725
 2125TIP3    H127790   0.752   2.684   1.024 -1.4023  0.6737 -0.3489
 2125TIP3    H227791   0.761   2.636   1.168  1.0959  1.5076 -0.1795
 2126TIP3   OH227792   5.371   2.367   4.132 -0.2637 -0.0984  0.8518
 2126TIP3    H127793   5.364   2.461   4.115  0.8079 -0.3967 -1.6849
 2126TIP3    H227794   5.445   2.339   4.078 -1.3751 -2.6116  0.5209
 2127TIP3   OH227795   5.072   0.437   1.128  0.5543  0.5983  0.2823
 2127TIP3    H127796   4.979   0.459   1.117  0.4269  0.4864  1.1000
 2127TIP3    H227797   5.110   0.515   1.168  1.0900  1.1448 -1.2478
 2128TIP3   OH227798   3.524   6.223   5.437 -0.6512  0.1639  0.4076
 2128TIP3    H127799   3.591   6.277   5.394 -0.8591 -0.2440 -0.4553
 2128TIP3    H227800   3.568   6.140   5.455 -0.2659  0.6601  1.9384
 2129TIP3   OH227801   1.547   0.171  16.268 -0.7279  0.3399 -0.3267
 2129TIP3    H127802   1.469   0.135  16.309 -0.2621  0.2947  0.5642
 2129TIP3    H227803   1.618   0.147  16.328 -0.0631  0.5603 -1.0082
 2130TIP3   OH227804   4.226   4.750  11.402 -0.0536 -0.1023 -0.0780
 2130TIP3    H127805   4.225   4.655  11.414 -0.3840 -0.1558 -0.4773
 2130TIP3    H227806   4.157   4.782  11.460 -0.6666 -0.2184 -0.7190
 2131TIP3   OH227807   1.460   1.763  13.386 -0.3781 -0.2049  0.3765
 2131TIP3    H127808   1.547   1.784  13.353 -1.1477 -0.1847 -1.7960
 2131TIP3    H227809   1.402   1.827  13.345 -1.4335 -0.1676  1.8365
 2132TIP3   OH227810   5.408   3.524  14.009 -0.8982  0.6952 -0.5472
 2132TIP3    H127811   5.496   3.491  14.028 -0.6323  2.0126  0.7014
 2132TIP3    H227812   5.418   3.575  13.928 -0.5975  0.5164 -0.6244
 2133TIP3   OH227813   4.893   0.042  10.223  0.3155  0.0043 -0.4876
 2133TIP3    H127814   4.951  -0.002  10.161 -1.1872 -4.8050  1.1441
 2133TIP3    H227815   4.806   0.007  10.203 -1.1061  2.4019  1.0093
 2134TIP3   OH227816   0.414   2.121   4.682 -0.3056  0.3131  0.0018
 2134TIP3    H127817   0.347   2.053   4.686  0.3245 -0.2960  0.4246
 2134TIP3    H227818   0.427   2.137   4.589 -2.3981  1.8235 -0.0901
 2135TIP3   OH227819   2.476   4.599  15.809 -0.7590  0.6543 -0.5167
 2135TIP3    H127820   2.418   4.532  15.773 -0.8360  0.8255 -0.7132
 2135TIP3    H227821   2.418   4.664  15.847 -0.6584  0.0100  0.7738
 2136TIP3   OH227822   4.433   2.745  12.409 -0.7176 -0.7035  0.3267
 2136TIP3    H127823   4.382   2.678  12.363 -0.3195 -0.4839 -0.4420
 2136TIP3    H227824   4.517   2.747  12.364 -0.1619 -0.7761  1.3313
 2137TIP3   OH227825   6.436   4.206  11.102  0.4537 -0.0854  0.2070
 2137TIP3    H127826   6.385   4.129  11.077 -0.3993  0.8358 -1.0023
 2137TIP3    H227827   6.525   4.186  11.074  0.0374 -0.2292 -1.0869
 2138TIP3   OH227828   0.091   5.428  12.161  0.0280 -0.6777  0.0421
 2138TIP3    H127829   0.108   5.478  12.081 -2.2317  0.0119 -0.0803
 2138TIP3    H227830   0.065   5.493  12.226 -2.3486 -1.5177  0.0623
 2139TIP3   OH227831   3.698   6.435   3.953  0.2949  0.1229  0.7740
 2139TIP3    H127832   3.639   6.383   4.008 -0.3831  0.2874  0.2162
 2139TIP3    H227833   3.738   6.373   3.893 -0.6833  0.2547 -0.0407
 2140TIP3   OH227834   4.243   3.763   0.068 -0.0354 -0.1246  0.2602
 2140TIP3    H127835   4.149   3.778   0.069  0.0034  0.1117  1.0494
 2140TIP3    H227836   4.263   3.729   0.156  0.2962 -2.2644 -0.5715
 2141TIP3   OH227837   1.866   0.675   0.234  0.0529  0.7228  0.2127
 2141TIP3    H127838   1.787   0.696   0.185 -0.5935 -0.1977  0.8466
 2141TIP3    H227839   1.923   0.632   0.171 -1.0945 -1.1972  0.4253
 2142TIP3   OH227840   4.902   3.839  12.524 -0.0408 -0.3449  0.0619
 2142TIP3    H127841   4.863   3.791  12.596 -0.0668  0.0432  0.3070
 2142TIP3    H227842   4.849   3.918  12.515  0.3492 -0.0793  0.0405
 2143TIP3   OH227843   1.200   1.967   0.052  0.2702 -0.5298 -0.6168
 2143TIP3    H127844   1.162   1.983   0.139 -2.3585 -1.9794 -1.3794
 2143TIP3    H227845   1.234   2.052   0.025 -0.3662  0.3452  1.1437
 2144TIP3   OH227846   1.269   5.428  12.859  0.4176  0.6060 -0.3889
 2144TIP3    H127847   1.253   5.335  12.879  1.5661 -0.3544 -3.4829
 2144TIP3    H227848   1.200   5.474  12.907  0.3785 -1.6944  2.0361
 2145TIP3   OH227849   4.091   0.765  11.428 -0.1119 -1.0063 -0.0384
 2145TIP3    H127850   4.081   0.857  11.402  1.6353 -0.9183 -0.5396
 2145TIP3    H227851   4.024   0.718  11.379  0.1582 -0.2157 -1.2018
 2146TIP3   OH227852   2.279   5.803   3.196  0.2668  0.0632 -0.5032
 2146TIP3    H127853   2.350   5.864   3.179 -0.7775  0.9157 -2.0415
 2146TIP3    H227854   2.238   5.837   3.276  0.7408  0.3595 -0.3788
 2147TIP3   OH227855   6.411   5.320   4.113  0.1274 -0.4160  0.4175
 2147TIP3    H127856   6.376   5.247   4.061  0.3345  0.6247 -1.2595
 2147TIP3    H227857   6.422   5.391   4.050  1.4833  0.5555  1.6855
 2148TIP3   OH227858   3.508   0.530  17.081 -0.0320 -0.5373 -0.5015
 2148TIP3    H127859   3.549   0.587  17.016 -1.7438 -1.3899 -2.4426
 2148TIP3    H227860   3.493   0.447  17.035 -0.7602 -1.3876  1.1736
 2149TIP3   OH227861   1.760   4.627  16.619  0.0453  0.4828  0.1421
 2149TIP3    H127862   1.791   4.623  16.528 -1.0183  1.7056 -0.3022
 2149TIP3    H227863   1.722   4.540  16.635 -0.1881  0.4113 -0.7529
 2150TIP3   OH227864   1.982   1.898   3.898  0.4027 -0.0284 -0.7580
 2150TIP3    H127865   2.056   1.935   3.850 -0.5128  1.3583 -1.1632
 2150TIP3    H227866   2.017   1.877   3.985  1.3695  0.1985 -1.0848
 2151TIP3   OH227867   5.138   2.430  16.822 -0.0089 -1.0714 -0.0583
 2151TIP3    H127868   5.185   2.512  16.826  0.5164 -1.2930 -1.3485
 2151TIP3    H227869   5.056   2.447  16.869  0.3716 -0.0266  0.2481
 2152TIP3   OH227870   5.469   1.390  15.997 -0.4497 -0.3393 -0.3422
 2152TIP3    H127871   5.520   1.309  15.997  0.9617  0.5159  0.0812
 2152TIP3    H227872   5.524   1.453  16.043 -2.0925  0.5258  0.5229
 2153TIP3   OH227873   2.926   1.405   0.573  0.5670  0.2032  0.1942
 2153TIP3    H127874   2.884   1.458   0.505 -0.0831 -1.2895 -0.6319
 2153TIP3    H227875   2.867   1.411   0.648  1.6905  2.5111  0.9566
 2154TIP3   OH227876   6.535   4.494   3.835 -0.2740 -0.3770  0.5338
 2154TIP3    H127877   6.592   4.567   3.857  1.1602 -0.9224 -1.1499
 2154TIP3    H227878   6.584   4.416   3.861 -1.5485 -0.8199  1.7953
 2155TIP3   OH227879   3.711   5.488   0.164 -0.1020  0.4803  0.1942
 2155TIP3    H127880   3.765   5.440   0.227  0.8027  0.1609 -0.7944
 2155TIP3    H227881   3.708   5.431   0.087 -0.5715  1.1824 -0.3218
 2156TIP3   OH227882   0.212   5.308   0.092 -0.2243  0.1176  0.4542
 2156TIP3    H127883   0.229   5.288  -0.000 -0.4145  0.0350  0.4355
 2156TIP3    H227884   0.119   5.288   0.104  0.2926 -2.1896  1.2535
 2157TIP3   OH227885   4.052   3.343   6.365  0.7789  0.4339  0.3572
 2157TIP3    H127886   4.047   3.312   6.456  1.4957  0.4379  0.3986
 2157TIP3    H227887   4.076   3.266   6.314  1.0717  0.5884  0.2625
 2158TIP3   OH227888   6.358   5.374   0.280 -0.2384  0.2452  0.2138
 2158TIP3    H127889   6.282   5.388   0.224  0.0350  1.0679  0.0413
 2158TIP3    H227890   6.395   5.292   0.250 -0.5738  0.2622 -0.2560
 2159TIP3   OH227891   3.147   0.464   3.422 -0.1940  0.4829  0.6710
 2159TIP3    H127892   3.101   0.417   3.352  0.2390 -0.0501  0.7450
 2159TIP3    H227893   3.105   0.434   3.502 -1.0080  1.4446  0.6266
 2160TIP3   OH227894   2.895   6.806   1.380 -0.3535  0.1704  0.0238
 2160TIP3    H127895   2.972   6.862   1.375  1.9945 -2.5957  1.9658
 2160TIP3    H227896   2.891   6.762   1.295 -0.7016  1.3729 -0.5990
 2161TIP3   OH227897   1.529   0.606   4.589  1.0291 -0.4251 -0.2492
 2161TIP3    H127898   1.505   0.596   4.497  1.3768  1.3655 -0.5805
 2161TIP3    H227899   1.551   0.518   4.619  0.1277 -1.1485 -1.6521
 2162TIP3   OH227900   3.633   6.215  14.908  0.3031 -0.6493 -0.1200
 2162TIP3    H127901   3.609   6.151  14.975  1.2091 -2.5509 -1.5042
 2162TIP3    H227902   3.716   6.251  14.939 -0.1831 -0.1540  0.6436
 2163TIP3   OH227903   4.523   4.240   5.607 -0.2991 -0.4874  0.0379
 2163TIP3    H127904   4.506   4.153   5.569 -0.5477 -0.1727 -0.5879
 2163TIP3    H227905   4.479   4.239   5.692 -2.4659 -0.1200 -1.0067
 2164TIP3   OH227906   0.567   0.669  15.792 -0.7919 -0.1728  0.3676
 2164TIP3    H127907   0.620   0.648  15.715 -2.9512 -1.2499 -0.9037
 2164TIP3    H227908   0.515   0.591  15.808  0.7769 -0.6986  4.0961
 2165TIP3   OH227909   5.301   2.430  11.620 -0.2139  0.5058 -0.1976
 2165TIP3    H127910   5.385   2.386  11.630 -0.4564 -0.2127 -1.1655
 2165TIP3    H227911   5.300   2.496  11.689  0.0999 -1.0983  1.4213
 2166TIP3   OH227912   4.506   4.124  13.086  0.7467  0.0094 -0.0439
 2166TIP3    H127913   4.419   4.092  13.063  0.7095  0.6985 -0.8704
 2166TIP3    H227914   4.530   4.072  13.163 -0.7422  0.4004  0.7196
 2167TIP3   OH227915   4.346   0.822   4.646 -0.5468  0.9530  0.2036
 2167TIP3    H127916   4.435   0.857   4.650 -0.3727  0.4855  0.4439
 2167TIP3    H227917   4.301   0.861   4.721 -0.7331  1.6862 -0.2734
 2168TIP3   OH227918   4.061   4.974   2.421 -0.0029 -0.1308 -0.0548
 2168TIP3    H127919   4.037   4.911   2.488  0.6317 -0.9986 -0.6238
 2168TIP3    H227920   3.983   4.983   2.366 -0.0367 -0.5509 -0.0744
 2169TIP3   OH227921   3.055   2.941  15.628  0.2236  0.2870  0.0915
 2169TIP3    H127922   3.036   2.983  15.544  0.0976  0.8073  0.3774
 2169TIP3    H227923   2.981   2.883  15.643  0.7032 -0.5271 -0.6100
 2170TIP3   OH227924   3.488   5.140  14.459  0.0272 -0.0429  1.1410
 2170TIP3    H127925   3.542   5.182  14.526  0.5381  0.9882  0.1336
 2170TIP3    H227926   3.477   5.208  14.392 -0.4408 -1.0422  0.1779
 2171TIP3   OH227927   2.871   4.704  12.982  0.0550 -0.3579 -0.1789
 2171TIP3    H127928   2.885   4.652  12.903 -0.3958 -0.3067 -0.2960
 2171TIP3    H227929   2.884   4.794  12.954 -1.2366 -0.2421 -0.4756
 2172TIP3   OH227930   3.957   3.500   3.988  0.3150 -0.4949  0.2073
 2172TIP3    H127931   3.909   3.555   3.926 -0.6085 -0.8078  0.6124
 2172TIP3    H227932   3.921   3.412   3.973  2.0594 -1.1040 -0.7296
 2173TIP3   OH227933   1.947   6.455  16.960 -0.1897 -0.3829  0.4508
 2173TIP3    H127934   1.915   6.426  17.045  0.3689  0.9596  1.1403
 2173TIP3    H227935   2.009   6.386  16.934 -1.9279 -1.8993  0.0875
 2174TIP3   OH227936   3.924   3.605   1.849  0.6397 -0.3128  0.1139
 2174TIP3    H127937   3.991   3.671   1.863 -0.9114  1.5091 -0.6817
 2174TIP3    H227938   3.864   3.616   1.923  0.9839 -1.6868  0.6305
 2175TIP3   OH227939   1.544   1.344  14.965 -0.0690  0.0685  0.0400
 2175TIP3    H127940   1.584   1.311  14.886  0.5730  1.1740 -0.1240
 2175TIP3    H227941   1.591   1.300  15.036  1.0485  0.8914 -0.1623
 2176TIP3   OH227942   4.344   4.100   5.349 -0.4970  0.0110  0.3172
 2176TIP3    H127943   4.312   4.077   5.263 -1.8296  2.1042  0.1727
 2176TIP3    H227944   4.364   4.194   5.343  3.3420 -0.5642  1.1460
 2177TIP3   OH227945   5.311   5.137  14.181  0.4322 -0.4256 -0.2818
 2177TIP3    H127946   5.283   5.135  14.272  0.5796 -0.3355 -0.2357
 2177TIP3    H227947   5.243   5.188  14.136  0.7172  0.1155 -0.1043
 2178TIP3   OH227948   3.285   2.387   3.770  0.4294 -0.0204  0.0367
 2178TIP3    H127949   3.197   2.396   3.805  0.6656 -1.0750  0.9616
 2178TIP3    H227950   3.336   2.455   3.815 -0.5021  2.8015 -2.8420
 2179TIP3   OH227951   2.616   2.778  11.771  0.3463 -0.2521 -0.2694
 2179TIP3    H127952   2.643   2.832  11.845 -1.5032 -0.5109  0.6597
 2179TIP3    H227953   2.653   2.691  11.790 -1.7621 -0.8820  1.5257
 2180TIP3   OH227954   3.803   4.521   3.513  0.1396  0.6950  0.0151
 2180TIP3    H127955   3.707   4.526   3.513  0.1635  1.1598 -0.3535
 2180TIP3    H227956   3.824   4.480   3.429  0.2121 -0.6240  0.6415
 2181TIP3   OH227957   0.245   4.665   2.771  0.2192  0.5111 -0.0934
 2181TIP3    H127958   0.312   4.618   2.721  0.2698  0.2085  0.2581
 2181TIP3    H227959   0.201   4.720   2.706  0.6598  0.5460 -0.3702
 2182TIP3   OH227960   4.938   0.001  14.711  0.1532  0.8637 -0.0306
 2182TIP3    H127961   5.025  -0.006  14.750 -0.1579 -0.1329  0.5393
 2182TIP3    H227962   4.941  -0.058  14.635 -0.3080  0.0575  0.5627
 2183TIP3   OH227963   0.543   5.573   1.117 -0.6065  0.2285 -0.4609
 2183TIP3    H127964   0.500   5.513   1.057 -1.1774 -0.1820  0.3459
 2183TIP3    H227965   0.521   5.660   1.084 -1.8455  0.0195 -0.2161
 2184TIP3   OH227966   4.620   5.875   2.027 -0.7149  0.0016 -0.4243
 2184TIP3    H127967   4.589   5.920   1.948 -2.2146 -1.0584 -0.4768
 2184TIP3    H227968   4.588   5.929   2.099 -1.7908 -0.5211 -0.5015
 2185TIP3   OH227969   0.237   2.447  13.633  0.3993  0.1621  0.3936
 2185TIP3    H127970   0.152   2.425  13.671  0.0147 -0.2577 -0.6601
 2185TIP3    H227971   0.270   2.518  13.687  1.4936 -2.5977  3.7456
 2186TIP3   OH227972   0.208   4.495   3.109  0.0341 -0.0582  0.3685
 2186TIP3    H127973   0.185   4.420   3.054  2.5505 -0.1744 -0.6540
 2186TIP3    H227974   0.151   4.566   3.078 -1.1215 -1.0592  0.1338
 2187TIP3   OH227975   3.002   3.562  10.456  0.2194 -0.0291 -0.5353
 2187TIP3    H127976   2.979   3.595  10.370 -0.7093  0.6324 -0.0435
 2187TIP3    H227977   3.095   3.540  10.449  0.2207  0.2667 -1.6156
 2188TIP3   OH227978   0.963   3.461   5.493  0.4652  0.0644  0.1467
 2188TIP3    H127979   0.980   3.448   5.586 -0.0290 -1.2187  0.0829
 2188TIP3    H227980   0.958   3.372   5.457 -0.1080  0.5215 -0.9679
 2189TIP3   OH227981   1.574   0.420  12.322 -0.1540 -0.2047 -0.4292
 2189TIP3    H127982   1.508   0.375  12.269 -0.4219  1.2048 -1.3375
 2189TIP3    H227983   1.644   0.443  12.261  1.0132 -1.2840  0.4428
 2190TIP3   OH227984   2.462   6.496  13.333 -0.5177 -0.5183  0.0966
 2190TIP3    H127985   2.513   6.574  13.313  1.4363 -1.3073  1.6636
 2190TIP3    H227986   2.488   6.432  13.266  1.9547 -1.4587  1.8481
 2191TIP3   OH227987   4.946   4.706  13.249  0.5935  0.0330  0.2504
 2191TIP3    H127988   4.882   4.702  13.319  1.1025 -1.0545  0.6744
 2191TIP3    H227989   4.895   4.702  13.168  0.1031 -0.2143  0.5755
 2192TIP3   OH227990   1.135   3.965   6.719 -0.0676 -0.1534 -0.5494
 2192TIP3    H127991   1.126   3.890   6.661  0.0286 -0.1589 -0.5560
 2192TIP3    H227992   1.210   3.945   6.775 -0.1728 -0.1580 -0.4080
 2193TIP3   OH227993   1.439   2.618   4.758 -0.1002 -0.6874  0.1659
 2193TIP3    H127994   1.446   2.588   4.667  0.5987  0.9190 -0.3623
 2193TIP3    H227995   1.518   2.671   4.771 -1.4606  1.3176  0.7965
 2194TIP3   OH227996   6.364   0.219  15.647  0.2099 -0.7297  0.2248
 2194TIP3    H127997   6.403   0.185  15.727 -0.2168  0.1551  0.8269
 2194TIP3    H227998   6.271   0.227  15.667  0.2874  0.7396  0.1088
 2195TIP3   OH227999   3.481   3.998   0.076 -0.0282 -0.6016  0.1299
 2195TIP3    H128000   3.494   3.916   0.123 -0.2632  0.4177  2.0683
 2195TIP3    H228001   3.414   3.978   0.011  0.0373 -1.9755  0.4548
 2196TIP3   OH228002   4.449   0.663  15.299 -0.1749 -0.2655 -0.1450
 2196TIP3    H128003   4.458   0.661  15.395 -1.5220 -1.2200 -0.0127
 2196TIP3    H228004   4.538   0.650  15.267  0.3990  0.7026  0.9679
 2197TIP3   OH228005   3.328   2.621   0.036  0.2412 -0.1367  0.0739
 2197TIP3    H128006   3.350   2.686   0.103 -1.0489 -0.3584  0.7370
 2197TIP3    H228007   3.401   2.625  -0.026  0.4180  1.6152  0.3457
 2198TIP3   OH228008   2.251   5.032   0.121 -0.2982 -0.3782  0.0692
 2198TIP3    H128009   2.180   4.980   0.157 -0.8173  0.7671  0.7345
 2198TIP3    H228010   2.225   5.048   0.030 -0.7420 -0.2593  0.2117
 2199TIP3   OH228011   3.054   2.691  16.913  0.5097 -0.4804  0.4372
 2199TIP3    H128012   3.130   2.715  16.861  0.2216 -0.6147 -0.0489
 2199TIP3    H228013   3.063   2.743  16.993  0.5153  0.3549 -0.0893
 2200TIP3   OH228014   2.743   0.369   3.951  0.0308 -0.1367  0.4469
 2200TIP3    H128015   2.715   0.444   4.004  0.7647  2.0686 -2.0519
 2200TIP3    H228016   2.682   0.369   3.877  1.5010 -0.4827 -0.8076
 2201TIP3   OH228017   4.804   6.543  16.801  0.1418  0.0361  0.1415
 2201TIP3    H128018   4.765   6.541  16.889 -0.9907  0.4425 -0.3252
 2201TIP3    H228019   4.864   6.469  16.799 -0.0180 -0.1295  1.1764
 2202TIP3   OH228020   3.914   2.396  15.860  0.4639 -0.1353  0.2379
 2202TIP3    H128021   3.931   2.489  15.877 -1.0257 -0.0782  1.6749
 2202TIP3    H228022   3.955   2.351  15.934  1.1257 -0.6345 -0.4220
 2203TIP3   OH228023   5.659   6.747  16.845  0.1872 -0.2294 -0.4405
 2203TIP3    H128024   5.699   6.695  16.775  0.7118  1.4987 -1.4725
 2203TIP3    H228025   5.579   6.782  16.805 -0.9055 -1.3184  0.6935
 2204TIP3   OH228026   6.100   6.747   6.352  0.9135  0.2433  0.2306
 2204TIP3    H128027   6.037   6.816   6.337  0.4582 -0.3087 -0.4352
 2204TIP3    H228028   6.159   6.783   6.419 -0.5679  0.4679  1.4843
 2205TIP3   OH228029   5.578   3.065   1.954  0.7670 -0.1315 -0.6446
 2205TIP3    H128030   5.607   3.061   1.863  0.8405 -0.0628 -0.6239
 2205TIP3    H228031   5.589   3.156   1.979 -1.4462  0.3892 -1.2870
 2206TIP3   OH228032   3.479   1.584  12.303  0.2009  0.0284  0.4237
 2206TIP3    H128033   3.487   1.620  12.215 -1.3025 -1.1891 -0.2467
 2206TIP3    H228034   3.385   1.571  12.316  0.4964 -1.1192  1.6526
 2207TIP3   OH228035   5.992   2.607  11.378  0.5197  0.2812 -0.1357
 2207TIP3    H128036   6.057   2.664  11.336  1.1759 -1.1207 -1.0856
 2207TIP3    H228037   6.033   2.583  11.461  1.6665 -1.2647 -1.0812
 2208TIP3   OH228038   2.495   6.443  14.293 -0.2847  0.1849 -0.4611
 2208TIP3    H128039   2.429   6.482  14.351 -0.7045 -0.0159 -0.8058
 2208TIP3    H228040   2.500   6.503  14.219  0.4840  0.6097 -0.0734
 2209TIP3   OH228041   5.321   0.623   1.662  0.8049 -0.0837  0.6248
 2209TIP3    H128042   5.341   0.530   1.647  0.7001 -0.0605  0.3335
 2209TIP3    H228043   5.374   0.669   1.597 -0.1859 -0.0205 -0.1559
 2210TIP3   OH228044   3.891   2.724  11.054  0.2774  0.3987  0.3423
 2210TIP3    H128045   3.923   2.814  11.049  2.2749 -0.3444 -2.0566
 2210TIP3    H228046   3.817   2.721  10.993  1.5838 -0.0357 -1.2815
 2211TIP3   OH228047   5.242   5.047   4.173  0.4495 -0.5841  0.2017
 2211TIP3    H128048   5.219   4.968   4.124  0.2042 -1.1482  1.2005
 2211TIP3    H228049   5.176   5.053   4.241  2.0140 -1.0492  1.8235
 2212TIP3   OH228050   3.657   1.610  14.368  0.1117 -0.6622  0.1659
 2212TIP3    H128051   3.638   1.563  14.449 -1.8125 -3.0181 -1.5012
 2212TIP3    H228052   3.737   1.569  14.334  0.5841 -0.0775  0.5509
 2213TIP3   OH228053   0.791   5.887   6.053 -0.0298 -0.2060 -0.0526
 2213TIP3    H128054   0.799   5.980   6.077  0.3100 -0.1043 -0.5346
 2213TIP3    H228055   0.829   5.883   5.965 -0.7464 -0.6628 -0.3409
 2214TIP3   OH228056   5.598   6.603   6.113 -0.2406  0.2812  0.0363
 2214TIP3    H128057   5.524   6.593   6.172  0.3644  0.4969  0.8550
 2214TIP3    H228058   5.562   6.642   6.034 -1.1372 -0.3863  0.1089
 2215TIP3   OH228059   1.491   1.939  14.365 -0.1463 -0.5220  0.2046
 2215TIP3    H128060   1.412   1.916  14.414  0.4578  0.7399  1.8466
 2215TIP3    H228061   1.482   2.032  14.347  0.8773 -0.4038  0.2492
 2216TIP3   OH228062   1.189   3.635  14.809 -0.0312 -0.5450 -0.0484
 2216TIP3    H128063   1.165   3.554  14.853  1.0716 -0.3958  0.8783
 2216TIP3    H228064   1.240   3.684  14.874  1.3035 -0.1410 -1.3305
 2217TIP3   OH228065   1.867   1.822  16.985 -0.4776 -0.0090  0.8149
 2217TIP3    H128066   1.921   1.836  17.063 -2.1708 -1.1103  2.2490
 2217TIP3    H228067   1.781   1.800  17.019 -1.6237  0.7688 -1.4048
 2218TIP3   OH228068   4.247   4.833   2.196 -0.1532  0.5685 -0.1205
 2218TIP3    H128069   4.332   4.865   2.228  1.9506 -3.0163 -1.4948
 2218TIP3    H228070   4.219   4.770   2.262 -1.1984  0.9154 -0.2221
 2219TIP3   OH228071   4.348   0.997  16.859  1.1413  0.3575  0.0384
 2219TIP3    H128072   4.313   1.030  16.777  0.6626  0.8270  0.4229
 2219TIP3    H228073   4.438   1.029  16.862  0.4753  2.2911  0.7353
 2220TIP3   OH228074   3.384   3.732  11.369  0.0623  0.3360  0.5874
 2220TIP3    H128075   3.436   3.665  11.325  0.6583  1.4661 -0.4959
 2220TIP3    H228076   3.299   3.690  11.385  0.0713 -0.3641 -0.9927
 2221TIP3   OH228077   3.302   2.659  13.318 -0.3606  0.2717 -0.0397
 2221TIP3    H128078   3.339   2.576  13.287 -1.1489 -0.1635  0.1363
 2221TIP3    H228079   3.337   2.725  13.259 -1.1105 -0.4164 -1.2921
 2222TIP3   OH228080   1.772   5.352  14.260 -0.2032  0.7924 -0.5287
 2222TIP3    H128081   1.679   5.331  14.264 -0.0582  0.2845  1.9148
 2222TIP3    H228082   1.806   5.298  14.188 -1.2468 -1.6376  0.6760
 2223TIP3   OH228083   5.200   2.870  15.314 -0.3193 -0.3059 -0.0339
 2223TIP3    H128084   5.144   2.893  15.240  0.7583  2.1230 -0.2004
 2223TIP3    H228085   5.281   2.839  15.273 -0.6715 -1.6065  0.1976
 2224TIP3   OH228086   4.006   3.195   1.245  0.1602  0.8091 -0.2291
 2224TIP3    H128087   4.078   3.242   1.201  0.2789  0.1338 -0.7631
 2224TIP3    H228088   3.930   3.213   1.190  0.2680  0.1329 -0.6112
 2225TIP3   OH228089   6.028   1.101  15.150  0.0973 -0.4218  0.2103
 2225TIP3    H128090   5.972   1.101  15.228  0.4558 -1.2364  0.4709
 2225TIP3    H228091   6.028   1.192  15.122  0.4491  0.0112  1.5158
 2226TIP3   OH228092   2.886   6.039   4.425 -0.2967  0.4849  0.8052
 2226TIP3    H128093   2.945   6.001   4.489 -1.0442 -1.6957  0.3058
 2226TIP3    H228094   2.943   6.084   4.363  1.4866 -4.3560 -1.6327
 2227TIP3   OH228095   6.759   6.729  16.655 -0.3727 -0.1762 -0.2247
 2227TIP3    H128096   6.740   6.648  16.703 -0.8663  0.0940  0.0505
 2227TIP3    H228097   6.853   6.743  16.668 -0.1287 -1.1030 -0.9119
 2228TIP3   OH228098   5.022   3.019   0.752 -0.5859 -0.1377  0.2121
 2228TIP3    H128099   5.002   2.929   0.778 -1.8949  0.4556  1.4224
 2228TIP3    H228100   5.117   3.022   0.746 -0.5507 -1.8497 -0.8635
 2229TIP3   OH228101   5.252   2.211  10.920 -0.4161  0.1253  0.4174
 2229TIP3    H128102   5.183   2.156  10.882 -0.7098  1.4307 -1.0453
 2229TIP3    H228103   5.288   2.259  10.846  1.6294 -0.0130  1.2651
 2230TIP3   OH228104   2.971   2.544   1.532  0.2685  0.1447  0.0406
 2230TIP3    H128105   3.001   2.488   1.603 -0.2691 -0.7690 -0.4323
 2230TIP3    H228106   3.037   2.613   1.525  1.2319 -0.7506  0.2597
 2231TIP3   OH228107   0.881   4.767   1.354 -0.0173 -0.0864 -0.3660
 2231TIP3    H128108   0.817   4.756   1.425  1.5049 -0.5817  1.0029
 2231TIP3    H228109   0.960   4.797   1.398  0.2688  2.1366 -2.2229
 2232TIP3   OH228110   0.388   2.605  16.337  0.0722  0.3575 -0.5427
 2232TIP3    H128111   0.383   2.614  16.432  0.1745  1.1284 -0.6036
 2232TIP3    H228112   0.428   2.687  16.307 -1.4697  0.8266 -1.3942
 2233TIP3   OH228113   5.010   1.456   2.815 -0.4726  0.0911 -0.0823
 2233TIP3    H128114   4.993   1.410   2.732  2.1939 -1.6603  0.2044
 2233TIP3    H228115   5.055   1.536   2.789 -0.9065  0.2508 -0.3649
 2234TIP3   OH228116   5.043   0.155   1.820  0.6583 -0.0043  0.0714
 2234TIP3    H128117   5.086   0.214   1.757  0.5108  0.5465  0.4792
 2234TIP3    H228118   5.087   0.173   1.903 -0.0277  0.2118  0.3906
 2235TIP3   OH228119   4.630   4.656   0.129 -0.5489  0.3082 -0.0232
 2235TIP3    H128120   4.687   4.595   0.175 -1.2948  0.2995  0.9407
 2235TIP3    H228121   4.600   4.608   0.052 -0.0367 -0.0390 -0.0076
 2236TIP3   OH228122   4.988   1.185   1.412  0.4707  0.5113  0.1449
 2236TIP3    H128123   4.977   1.095   1.442 -1.4564  0.5582 -0.2508
 2236TIP3    H228124   5.038   1.228   1.481  0.7426 -0.6682  0.7093
 2237TIP3   OH228125   1.168   0.719  11.489 -0.3504  0.1876 -0.4471
 2237TIP3    H128126   1.239   0.677  11.537 -0.4495  1.3660  0.7823
 2237TIP3    H228127   1.209   0.797  11.450 -0.8615  0.6449 -0.0777
 2238TIP3   OH228128   6.617   1.228   2.175 -0.5806  0.1235 -0.4575
 2238TIP3    H128129   6.596   1.302   2.118 -1.6212 -0.6290 -1.0990
 2238TIP3    H228130   6.663   1.267   2.249  0.9207  1.1274 -1.8532
 2239TIP3   OH228131   5.907   0.991   0.948 -0.3911  0.4387  0.9032
 2239TIP3    H128132   5.817   1.018   0.967 -1.0672 -1.6902  1.0190
 2239TIP3    H228133   5.921   1.015   0.857 -1.4695 -0.1783  0.5635
 2240TIP3   OH228134   1.150   6.259   5.162 -0.3672  0.1763  0.6490
 2240TIP3    H128135   1.180   6.345   5.192 -2.3862  0.9529  0.6563
 2240TIP3    H228136   1.176   6.255   5.071  1.1781  0.0786  1.0767
 2241TIP3   OH228137   1.289   0.857  14.158  0.0698  0.0590  0.2767
 2241TIP3    H128138   1.225   0.786  14.145  0.4286 -0.1463 -0.4000
 2241TIP3    H228139   1.325   0.873  14.071 -1.7204  2.7405 -0.1014
 2242TIP3   OH228140   0.539   1.802   0.913 -0.2369 -0.0496  0.0850
 2242TIP3    H128141   0.586   1.806   0.830 -1.4017 -0.3321 -0.6124
 2242TIP3    H228142   0.588   1.860   0.972  0.7964 -0.1185 -0.6905
 2243TIP3   OH228143   0.239   2.737   4.434  0.2593  0.7385  0.0298
 2243TIP3    H128144   0.262   2.709   4.345  0.7986 -0.7097  0.5795
 2243TIP3    H228145   0.151   2.703   4.448  0.6909 -0.2432  0.4950
 2244TIP3   OH228146   5.766   2.771   5.421 -0.7812 -0.1216  0.0321
 2244TIP3    H128147   5.671   2.760   5.419 -1.1963  2.7294 -1.9101
 2244TIP3    H228148   5.782   2.830   5.495 -0.1100 -2.6421  2.0376
 2245TIP3   OH228149   1.409   6.360  10.734 -0.2813 -0.7449  0.2493
 2245TIP3    H128150   1.463   6.290  10.770  0.4785 -0.6076 -0.5790
 2245TIP3    H228151   1.458   6.441  10.752 -0.3413 -0.5923 -0.2476
 2246TIP3   OH228152   4.750   0.149  14.844 -0.1892 -0.4843  0.5250
 2246TIP3    H128153   4.801   0.170  14.766 -0.3872  0.5462  0.6536
 2246TIP3    H228154   4.790   0.069  14.878  0.7225 -0.2319  0.0898
 2247TIP3   OH228155   0.727   0.106  16.811 -0.2561 -0.3226  0.2285
 2247TIP3    H128156   0.634   0.123  16.827 -0.2007  0.7605 -0.4114
 2247TIP3    H228157   0.764   0.088  16.897 -1.0275 -0.6131  0.5082
 2248TIP3   OH228158   3.373   0.379   2.032 -0.1815  0.4547 -0.3900
 2248TIP3    H128159   3.423   0.420   2.103 -0.6571 -1.7094  1.3086
 2248TIP3    H228160   3.422   0.299   2.011 -1.3393 -0.1833 -0.7606
 2249TIP3   OH228161   5.742   2.148  13.486  0.1022 -0.3425  0.2083
 2249TIP3    H128162   5.814   2.197  13.525 -1.8576  1.0597  2.2955
 2249TIP3    H228163   5.663   2.197  13.509 -1.6109 -2.0330 -1.6018
 2250TIP3   OH228164   0.181   4.754  14.588 -0.2218 -0.3279 -0.1218
 2250TIP3    H128165   0.162   4.757  14.494 -1.3540  1.1222  0.1222
 2250TIP3    H228166   0.109   4.704  14.625 -0.0227 -0.4984  0.0362
 2251TIP3   OH228167   1.519   0.445   4.984  0.3755 -0.2850 -0.3810
 2251TIP3    H128168   1.509   0.414   4.894  2.6280  1.2695 -1.2511
 2251TIP3    H228169   1.460   0.390   5.035 -0.6030 -1.5452 -2.7187
 2252TIP3   OH228170   2.284   2.934   2.837  0.0819  0.3644  0.3654
 2252TIP3    H128171   2.219   2.884   2.886 -0.2303  0.9962  0.6055
 2252TIP3    H228172   2.359   2.875   2.829 -1.1915 -1.1376 -1.5990
 2253TIP3   OH228173   6.399   4.668   4.592  0.1579 -0.5407 -0.1594
 2253TIP3    H128174   6.336   4.718   4.540 -0.1659 -0.7403  0.0470
 2253TIP3    H228175   6.351   4.641   4.670  1.1067  1.2340  1.1089
 2254TIP3   OH228176   5.515   5.369  13.300  0.3737 -0.3315  0.5172
 2254TIP3    H128177   5.556   5.396  13.218 -1.9751 -0.2647 -0.7240
 2254TIP3    H228178   5.511   5.448  13.353  1.2695 -0.2153  0.4204
 2255TIP3   OH228179   2.079   2.319  16.305 -0.0043  0.4767  0.3408
 2255TIP3    H128180   1.992   2.312  16.344  0.4719  1.6509  1.7173
 2255TIP3    H228181   2.089   2.413  16.287  0.5085  0.1933 -0.9715
 2256TIP3   OH228182   2.307   2.996   1.670  0.4393  0.0049  0.2162
 2256TIP3    H128183   2.277   2.906   1.684  0.9085  0.0129  1.3832
 2256TIP3    H228184   2.313   3.005   1.575  1.0074 -1.4123  0.0988
 2257TIP3   OH228185   6.295   4.447   4.254  0.4116  0.3254  0.5634
 2257TIP3    H128186   6.308   4.362   4.295  0.2643  1.4055  3.0742
 2257TIP3    H228187   6.292   4.429   4.160  3.1777 -2.0462  0.8099
 2258TIP3   OH228188   0.718   5.765  12.174 -0.6938 -0.2437  0.5904
 2258TIP3    H128189   0.753   5.695  12.228 -0.3346 -1.2866 -0.9482
 2258TIP3    H228190   0.790   5.827  12.166 -1.2018  0.6792  2.4597
 2259TIP3   OH228191   1.758   2.969  15.333 -0.1604 -0.1333  0.1437
 2259TIP3    H128192   1.846   2.931  15.330 -0.0043  0.0809  1.4926
 2259TIP3    H228193   1.773   3.063  15.338 -0.5193  0.0283 -1.3612
 2260TIP3   OH228194   3.960   4.848  16.447 -0.3601 -0.0532 -0.4622
 2260TIP3    H128195   4.044   4.857  16.403 -0.1653  0.5979  0.0354
 2260TIP3    H228196   3.934   4.757  16.431  0.4610 -0.2692 -0.5715
 2261TIP3   OH228197   4.544   0.705  11.688 -0.9449 -0.4901  0.7444
 2261TIP3    H128198   4.562   0.785  11.738  1.2155  0.1646 -0.9634
 2261TIP3    H228199   4.490   0.734  11.615  1.8926  0.0309 -1.3125
 2262TIP3   OH228200   0.159   1.567  16.261 -0.2684 -0.3472 -0.6208
 2262TIP3    H128201   0.207   1.565  16.178 -0.0304  0.9621 -0.5408
 2262TIP3    H228202   0.227   1.567  16.328 -0.3813  0.6516 -0.4891
 2263TIP3   OH228203   5.469   4.944   4.574 -0.4881 -0.4932 -0.0462
 2263TIP3    H128204   5.431   4.986   4.652 -5.1805 -2.6511 -0.8387
 2263TIP3    H228205   5.508   4.863   4.607 -0.8708 -0.5500  0.2746
 2264TIP3   OH228206   4.854   0.158  11.442  0.1968  0.1432 -0.0191
 2264TIP3    H128207   4.939   0.142  11.401  0.4304 -0.6385  0.7538
 2264TIP3    H228208   4.872   0.162  11.536 -0.6668 -0.4379  0.1894
 2265TIP3   OH228209   1.428   2.563  11.683  0.4935 -0.1347 -0.7737
 2265TIP3    H128210   1.396   2.600  11.765 -2.0163  2.3262 -2.6667
 2265TIP3    H228211   1.381   2.480  11.674  0.4313 -0.1908  0.0479
 2266TIP3   OH228212   3.050   4.267  13.970 -0.2768  0.4007 -0.0954
 2266TIP3    H128213   3.131   4.217  13.985 -0.4398 -0.2841 -1.3246
 2266TIP3    H228214   3.067   4.314  13.888 -0.5865  1.4254  0.4186
 2267TIP3   OH228215   4.073   6.316   0.886 -0.4755  0.0170 -0.5245
 2267TIP3    H128216   4.088   6.236   0.936 -0.3195  1.7017  2.3522
 2267TIP3    H228217   4.160   6.351   0.869 -0.5254  1.4728  1.7319
 2268TIP3   OH228218   5.754   3.938   0.862  0.4586 -0.4471 -0.0732
 2268TIP3    H128219   5.748   4.003   0.932  1.8385  0.6170 -0.9151
 2268TIP3    H228220   5.738   3.854   0.906 -2.3765  0.4526  0.8743
 2269TIP3   OH228221   3.718   5.337   3.280  0.1015  1.0029  0.3090
 2269TIP3    H128222   3.730   5.306   3.369  0.7051 -1.4031 -0.5423
 2269TIP3    H228223   3.802   5.379   3.258  1.1598 -1.2061 -0.1217
 2270TIP3   OH228224   3.326   0.693  12.786  0.6570  0.5664  0.0824
 2270TIP3    H128225   3.318   0.762  12.852 -0.8033  0.1060  0.4409
 2270TIP3    H228226   3.242   0.694  12.740  0.8378 -0.5594 -0.3093
 2271TIP3   OH228227   6.091   0.192   5.774 -0.2443 -0.1645  0.2429
 2271TIP3    H128228   6.023   0.259   5.767  0.5288  0.6715  0.5656
 2271TIP3    H228229   6.090   0.165   5.866  0.2832  0.3186  0.3973
 2272TIP3   OH228230   4.526   2.939  16.554 -0.0017  0.3950  0.2880
 2272TIP3    H128231   4.543   2.856  16.510 -0.0809 -1.1690  2.9521
 2272TIP3    H228232   4.516   3.003  16.483  1.1800 -1.6216 -1.8344
 2273TIP3   OH228233   0.993   1.042   4.565 -0.1002 -0.5926 -0.4442
 2273TIP3    H128234   1.036   1.026   4.648 -1.6223 -2.0193  0.1399
 2273TIP3    H228235   1.062   1.072   4.506  1.0845 -0.0424  1.1905
 2274TIP3   OH228236   6.660   4.694   1.561 -0.1137  0.1585  0.0225
 2274TIP3    H128237   6.737   4.657   1.518 -0.3290 -0.0966 -0.1388
 2274TIP3    H228238   6.672   4.672   1.654  0.4548  0.8914  0.1281
 2275TIP3   OH228239   2.505   5.394  16.071 -0.3873  0.1346 -0.7780
 2275TIP3    H128240   2.600   5.385  16.068 -0.1968  1.5612  0.1326
 2275TIP3    H228241   2.490   5.487  16.086 -1.9991  0.3572 -3.2452
 2276TIP3   OH228242   5.790   6.428  15.377 -0.7080 -0.4288 -0.0767
 2276TIP3    H128243   5.712   6.424  15.432 -2.0141 -0.6733 -1.8496
 2276TIP3    H228244   5.770   6.494  15.311  1.5264  1.1690  0.7170
 2277TIP3   OH228245   6.540   0.826  15.380  0.0138 -0.2050  0.8622
 2277TIP3    H128246   6.557   0.769  15.455 -0.9920 -0.8300  0.6309
 2277TIP3    H228247   6.463   0.788  15.338  0.6667  0.0199 -0.6041
 2278TIP3   OH228248   6.734   5.459  11.290  0.3316  0.4303 -0.4289
 2278TIP3    H128249   6.774   5.527  11.236  1.1388  0.5424  0.2881
 2278TIP3    H228250   6.652   5.497  11.320  0.0307  0.4923 -1.2764
 2279TIP3   OH228251   5.010   0.058  12.496  0.3440 -0.2765 -0.0769
 2279TIP3    H128252   5.015   0.073  12.590  1.5996  0.7662 -0.2863
 2279TIP3    H228253   4.919   0.077  12.473 -0.5106 -2.4685  1.2000
 2280TIP3   OH228254   0.957   6.026  10.870 -0.0444  0.3080 -0.8436
 2280TIP3    H128255   0.932   6.067  10.787 -0.9424  0.9247 -0.2863
 2280TIP3    H228256   0.884   5.969  10.891  0.2389  0.0551 -0.5366
 2281TIP3   OH228257   5.086   6.460  13.720 -0.0102 -0.3949  0.1794
 2281TIP3    H128258   5.178   6.488  13.721 -0.1687  0.1053  0.6164
 2281TIP3    H228259   5.050   6.490  13.803 -1.5239  2.6649 -1.3952
 2282TIP3   OH228260   6.536   3.140   0.944  0.6702  0.0369 -0.3824
 2282TIP3    H128261   6.605   3.088   0.987 -1.0568 -1.0936  1.1683
 2282TIP3    H228262   6.471   3.075   0.917 -0.1534  1.1477 -1.1283
 2283TIP3   OH228263   2.005   0.885  14.736 -1.0268  0.1962 -0.2051
 2283TIP3    H128264   2.014   0.920  14.647 -2.4846  0.1516 -0.3957
 2283TIP3    H228265   2.050   0.949  14.791  1.3523 -0.6150 -1.0993
 2284TIP3   OH228266   5.909   3.521   1.163  0.5250  0.0172  0.0383
 2284TIP3    H128267   5.863   3.437   1.156  1.3511 -0.2968 -2.7102
 2284TIP3    H228268   5.886   3.553   1.250 -1.5366 -2.0435  0.3645
 2285TIP3   OH228269   3.548   4.765   1.339  0.6691  0.1561  0.1985
 2285TIP3    H128270   3.628   4.759   1.390  2.1811  0.2203 -2.0415
 2285TIP3    H228271   3.575   4.751   1.249 -1.9564 -0.4916 -0.5957
 2286TIP3   OH228272   3.058   5.425  11.550  0.2859 -0.0487 -0.1640
 2286TIP3    H128273   3.108   5.490  11.501  0.5329  0.3358  0.5724
 2286TIP3    H228274   3.092   5.341  11.521  1.4401  0.2081  0.3790
 2287TIP3   OH228275   3.169   1.943   4.959 -0.4407  0.0623  0.5073
 2287TIP3    H128276   3.257   1.979   4.967 -0.9775  1.2924  1.0599
 2287TIP3    H228277   3.152   1.899   5.042 -0.5627  0.3313  0.6260
 2288TIP3   OH228278   0.296   5.659   3.081  0.0831  0.7819 -0.1115
 2288TIP3    H128279   0.271   5.708   3.159  0.4427  2.3259 -0.9407
 2288TIP3    H228280   0.367   5.710   3.042  1.5273 -1.1641 -0.2195
 2289TIP3   OH228281   0.977   2.311   0.109  0.0978 -0.1790  0.0380
 2289TIP3    H128282   0.978   2.242   0.042  1.8727  1.0348 -1.2879
 2289TIP3    H228283   1.067   2.313   0.142  0.3472  2.0667 -0.6277
 2290TIP3   OH228284   4.339   0.016  15.452 -0.0065  0.4514  0.2806
 2290TIP3    H128285   4.248   0.045  15.452  0.3727  1.7612 -1.0164
 2290TIP3    H228286   4.389   0.093  15.479  0.6819 -0.5763  2.1950
 2291TIP3   OH228287   2.479   1.625  15.701 -0.6380  0.5071 -0.1825
 2291TIP3    H128288   2.410   1.677  15.742 -1.4916 -0.3722 -0.4587
 2291TIP3    H228289   2.469   1.643  15.607 -0.1133  0.8142 -0.1844
 2292TIP3   OH228290   0.811   0.528   4.696  0.5521  0.2926  0.2475
 2292TIP3    H128291   0.872   0.588   4.652 -0.0967  0.7748 -0.0106
 2292TIP3    H228292   0.752   0.499   4.626  0.5863 -0.3180  0.4597
 2293TIP3   OH228293   0.000   4.504   0.040 -0.6186 -0.5239 -0.3404
 2293TIP3    H128294  -0.076   4.470  -0.006  0.8017 -2.3895 -1.4646
 2293TIP3    H228295   0.046   4.557  -0.026 -0.3579 -0.3192  0.0020
 2294TIP3   OH228296   3.627   1.529   5.889 -0.2874  0.5218  0.4589
 2294TIP3    H128297   3.584   1.447   5.863 -0.1483  0.5139  0.2502
 2294TIP3    H228298   3.618   1.532   5.984 -0.2517  0.2402  0.4720
 2295TIP3   OH228299   3.482   1.782   2.527 -0.0048  0.6449  0.1287
 2295TIP3    H128300   3.531   1.769   2.446 -0.4084  1.8017 -0.3177
 2295TIP3    H228301   3.506   1.707   2.581  1.5258  0.6885 -0.4292
 2296TIP3   OH228302   2.873   4.390   5.756 -1.1246 -0.5213  0.3510
 2296TIP3    H128303   2.949   4.333   5.749  0.9847  1.9489  1.6769
 2296TIP3    H228304   2.849   4.410   5.665  2.0747  1.3855 -0.1953
 2297TIP3   OH228305   0.058   4.969   3.458 -0.2842  0.3144 -0.2377
 2297TIP3    H128306   0.114   4.907   3.411 -1.3439  0.2978 -1.5054
 2297TIP3    H228307  -0.031   4.939   3.443 -0.6967  0.5718  1.4337
 2298TIP3   OH228308   5.695   4.854   1.863  0.0439  0.5224  0.2973
 2298TIP3    H128309   5.730   4.804   1.936  0.4237  2.2037  1.3058
 2298TIP3    H228310   5.600   4.844   1.870  0.1286 -1.1366 -0.3478
 2299TIP3   OH228311   4.077   5.324  15.158  0.2644 -0.5338  0.8657
 2299TIP3    H128312   4.054   5.369  15.077 -0.9059 -0.1016  1.4272
 2299TIP3    H228313   4.123   5.245  15.128  0.4364 -0.0540 -0.1924
 2300TIP3   OH228314   4.467   3.620  14.969 -0.8910  0.1013 -0.1283
 2300TIP3    H128315   4.447   3.556  14.901 -0.8351 -0.5918  0.4929
 2300TIP3    H228316   4.485   3.701  14.922  0.2723 -0.6377 -1.0049
 2301TIP3   OH228317   5.206   5.150  11.768  0.0932  0.2724  0.1534
 2301TIP3    H128318   5.233   5.208  11.696 -2.0561  0.3594 -0.6425
 2301TIP3    H228319   5.111   5.147  11.762 -0.0497 -0.8339  2.1752
 2302TIP3   OH228320   0.616   4.390  15.583 -0.3419  0.1799  0.7862
 2302TIP3    H128321   0.540   4.447  15.586 -0.4603 -0.0008  1.4548
 2302TIP3    H228322   0.657   4.400  15.669  1.0064  1.0904  0.0763
 2303TIP3   OH228323   4.755   4.966   0.677 -0.0883 -0.1655  0.0742
 2303TIP3    H128324   4.795   4.936   0.595 -0.2699 -0.7459  0.1882
 2303TIP3    H228325   4.670   4.921   0.679 -0.2589  0.1703  0.3783
 2304TIP3   OH228326   4.069   0.663  12.185  0.1397  0.5761  0.5495
 2304TIP3    H128327   4.138   0.641  12.248  0.3769 -0.3582 -0.0194
 2304TIP3    H228328   4.115   0.685  12.105 -0.2240 -0.8122 -0.0645
 2305TIP3   OH228329   6.101   4.735  15.917  0.0725  0.6778 -0.1546
 2305TIP3    H128330   6.134   4.823  15.905 -1.7967  1.5205  0.4711
 2305TIP3    H228331   6.029   4.745  15.980  1.9690 -1.7672  2.7059
 2306TIP3   OH228332   2.459   5.871  14.363 -0.4474  0.1046 -0.0984
 2306TIP3    H128333   2.391   5.871  14.296  0.6414 -0.2756 -1.2487
 2306TIP3    H228334   2.492   5.781  14.365 -0.6882  0.0201  1.2202
 2307TIP3   OH228335   1.222   1.581  14.469  0.2341  0.2654  0.5526
 2307TIP3    H128336   1.293   1.609  14.527  1.3118 -0.8583 -0.1485
 2307TIP3    H228337   1.177   1.512  14.519  0.9822 -0.5009  0.2019
 2308TIP3   OH228338   3.849   4.543   2.218 -0.4367 -0.6527  0.2506
 2308TIP3    H128339   3.921   4.482   2.231 -0.0633 -0.2912 -0.0925
 2308TIP3    H228340   3.828   4.537   2.125 -2.0017 -2.0168  0.6386
 2309TIP3   OH228341   3.996   3.268  13.325 -0.4811 -0.2095 -0.0927
 2309TIP3    H128342   4.050   3.201  13.367 -0.1330 -0.4352 -0.8819
 2309TIP3    H228343   3.971   3.229  13.241  0.3729  0.9451 -0.9150
 2310TIP3   OH228344   1.331   5.548   2.908 -0.4505 -0.2324  0.3936
 2310TIP3    H128345   1.379   5.609   2.852  0.3267 -1.4355 -0.2923
 2310TIP3    H228346   1.370   5.558   2.995  1.1051 -1.2102 -0.1566
 2311TIP3   OH228347   0.137   5.887  12.118 -0.1293  0.4242 -0.2965
 2311TIP3    H128348   0.056   5.836  12.113  1.9806 -3.2102 -1.4726
 2311TIP3    H228349   0.128   5.954  12.050 -1.8593 -0.3011 -0.8345
 2312TIP3   OH228350   4.656   4.546   3.567  0.0508  0.3432  0.4324
 2312TIP3    H128351   4.624   4.532   3.656  0.2950 -0.1918  0.4388
 2312TIP3    H228352   4.638   4.464   3.522 -1.0144  0.9599 -0.3110
 2313TIP3   OH228353   1.197   3.770   0.215 -0.1078  0.4306 -0.0975
 2313TIP3    H128354   1.255   3.743   0.285 -2.1568 -1.2890  1.0469
 2313TIP3    H228355   1.186   3.864   0.228  2.5062  0.8667 -0.5144
 2314TIP3   OH228356   3.732   6.344  12.407  0.2107  0.0302  0.2607
 2314TIP3    H128357   3.691   6.287  12.471 -1.5439  0.1634 -0.6721
 2314TIP3    H228358   3.826   6.340  12.427  0.0717 -2.5566  0.6868
 2315TIP3   OH228359   2.338   3.147   3.911  0.4329 -0.2051  0.4272
 2315TIP3    H128360   2.381   3.135   3.827  0.7509 -1.6513  0.7718
 2315TIP3    H228361   2.406   3.182   3.968 -0.2806  2.7876 -0.3608
 2316TIP3   OH228362   0.015   5.829   5.621  0.4433 -0.8980  0.6639
 2316TIP3    H128363  -0.022   5.827   5.709  3.4257 -2.5230  2.0107
 2316TIP3    H228364   0.065   5.748   5.614  0.2640 -0.8598 -2.5968
 2317TIP3   OH228365   3.143   5.624  11.326  0.3599 -0.1777 -0.0471
 2317TIP3    H128366   3.054   5.657  11.314  1.0644  1.6496 -0.5655
 2317TIP3    H228367   3.185   5.634  11.240  0.8952 -1.6664  0.0010
 2318TIP3   OH228368   2.791   5.399   4.181  0.1128 -0.1457  0.0184
 2318TIP3    H128369   2.711   5.348   4.193  0.7870 -0.9899  1.0857
 2318TIP3    H228370   2.766   5.489   4.205 -0.2326 -0.6141  1.4901
 2319TIP3   OH228371   4.517   2.357  16.319 -0.1810 -0.3054  0.1205
 2319TIP3    H128372   4.533   2.274  16.274  0.2187 -0.4689  0.5553
 2319TIP3    H228373   4.604   2.385  16.348 -0.3248  0.2307  0.0353
 2320TIP3   OH228374   1.804   1.143   4.941 -0.4777 -0.2482  0.6418
 2320TIP3    H128375   1.718   1.184   4.955 -1.4787 -2.3195  0.8760
 2320TIP3    H228376   1.852   1.208   4.889 -2.7519  0.3462 -0.9041
 2321TIP3   OH228377   5.981   4.114  12.904  0.5971  0.0475  0.4232
 2321TIP3    H128378   6.000   4.200  12.942  2.1453 -0.5440  1.0707
 2321TIP3    H228379   5.980   4.054  12.979 -2.2844 -0.2938  0.2348
 2322TIP3   OH228380   1.698   0.007  12.799 -0.2525  0.2719 -0.8490
 2322TIP3    H128381   1.749  -0.015  12.877  0.1478 -1.9542 -1.6642
 2322TIP3    H228382   1.761   0.002  12.727 -1.1012 -0.0591 -1.5867
 2323TIP3   OH228383   2.825   6.245   0.854 -0.0918 -0.0727 -0.4795
 2323TIP3    H128384   2.758   6.177   0.864 -0.4615  0.2912 -0.4480
 2323TIP3    H228385   2.875   6.219   0.777  0.0529 -0.6153 -0.2099
 2324TIP3   OH228386   0.134   3.722  14.252  0.7792  0.1629  0.4200
 2324TIP3    H128387   0.106   3.631  14.245 -1.5935  0.9006 -0.8982
 2324TIP3    H228388   0.119   3.745  14.344 -2.3316  0.2078  0.0158
 2325TIP3   OH228389   6.740   4.047  14.229 -0.4512 -0.0724  0.4798
 2325TIP3    H128390   6.723   3.999  14.310  0.6649 -0.2543  0.6197
 2325TIP3    H228391   6.668   4.110  14.223 -0.8735 -0.4628  1.2957
 2326TIP3   OH228392   4.680   3.473  12.506  0.0124  0.0804 -0.2515
 2326TIP3    H128393   4.695   3.536  12.577  0.2569  2.0098 -1.9229
 2326TIP3    H228394   4.734   3.398  12.530  0.9509  1.1177  1.0823
 2327TIP3   OH228395   4.785   0.153   4.904 -0.5003 -0.3548 -0.0810
 2327TIP3    H128396   4.855   0.219   4.903 -0.7173 -0.0530  1.5071
 2327TIP3    H228397   4.721   0.188   4.967 -2.0183 -0.7013 -1.3725
 2328TIP3   OH228398   0.378   3.999   0.619  0.6113 -0.1848  0.4449
 2328TIP3    H128399   0.326   4.002   0.539  1.7024 -2.5152 -0.4414
 2328TIP3    H228400   0.341   3.925   0.668  0.6466  0.5513  1.6201
 2329TIP3   OH228401   0.680   3.781  12.819  0.2694 -0.1380 -0.5363
 2329TIP3    H128402   0.740   3.777  12.745  1.3317 -1.3092  0.3474
 2329TIP3    H228403   0.651   3.872  12.821  1.8927  0.4333 -1.1025
 2330TIP3   OH228404   4.658   2.171  11.881  0.3216 -0.0567  0.2084
 2330TIP3    H128405   4.596   2.233  11.843  1.2225  1.6339  1.4030
 2330TIP3    H228406   4.728   2.165  11.817 -0.1825 -0.5688 -0.3142
 2331TIP3   OH228407   1.845   0.870   2.068  0.1025  0.1866 -0.3858
 2331TIP3    H128408   1.928   0.841   2.105  0.7301  1.3292 -0.8144
 2331TIP3    H228409   1.816   0.797   2.013  0.6378 -0.3687  0.0595
 2332TIP3   OH228410   5.286   3.658   5.055  0.1803 -0.1271 -0.3164
 2332TIP3    H128411   5.372   3.633   5.020  0.2684 -0.5867  0.2094
 2332TIP3    H228412   5.223   3.614   4.997  0.3185 -0.5835 -0.1283
 2333TIP3   OH228413   5.191   3.060  15.706 -0.2350  0.4553  0.1245
 2333TIP3    H128414   5.243   3.039  15.784  0.0345  0.6798  0.0045
 2333TIP3    H228415   5.154   3.146  15.724  1.0486  1.1845 -0.6261
 2334TIP3   OH228416   3.888   1.676   0.868 -0.6569 -0.1109  0.3518
 2334TIP3    H128417   3.953   1.679   0.797  0.2315  1.5573  1.1966
 2334TIP3    H228418   3.928   1.620   0.934 -0.2312  0.5862  0.6977
 2335TIP3   OH228419   0.714   6.582  12.469  0.5652 -0.4342 -0.0341
 2335TIP3    H128420   0.730   6.675  12.459  1.1271 -0.6183 -0.9052
 2335TIP3    H228421   0.742   6.543  12.386 -0.8934 -1.2185 -0.1943
 2336TIP3   OH228422   2.507   2.705  11.340 -0.1582 -0.4784  0.3529
 2336TIP3    H128423   2.530   2.613  11.323 -3.1594 -1.0461 -1.2646
 2336TIP3    H228424   2.447   2.701  11.415 -0.4641  0.1543  0.1415
 2337TIP3   OH228425   5.093   1.224  14.246 -0.2045  0.5688  0.5226
 2337TIP3    H128426   5.166   1.204  14.186 -1.7716  0.1519 -1.3499
 2337TIP3    H228427   5.128   1.290  14.305  1.0779  1.9948 -1.6971
 2338TIP3   OH228428   3.355   6.636  13.672 -0.1634 -0.3419 -0.1697
 2338TIP3    H128429   3.279   6.670  13.720 -2.1051 -1.6239 -2.1582
 2338TIP3    H228430   3.322   6.559  13.626  2.2710 -0.7113 -1.4582
 2339TIP3   OH228431   4.331   2.365  12.000  0.4360 -0.2802  0.1162
 2339TIP3    H128432   4.413   2.382  11.952  0.2033  1.2631  0.2251
 2339TIP3    H228433   4.280   2.445  11.989 -0.5422 -0.7464  1.1152
 2340TIP3   OH228434   3.779   6.432  15.980  0.7024 -0.8815  0.1214
 2340TIP3    H128435   3.767   6.379  15.902 -0.4770 -0.4502 -0.0183
 2340TIP3    H228436   3.711   6.401  16.041  0.4607 -0.0428  0.2970
 2341TIP3   OH228437   5.779   4.999  16.174  0.0990 -0.2092 -0.3243
 2341TIP3    H128438   5.788   5.049  16.255 -0.7452 -0.8818  0.1968
 2341TIP3    H228439   5.699   5.034  16.133 -0.5628 -1.1806  0.0990
 2342TIP3   OH228440   3.305   3.696   6.372 -0.3343 -0.3369 -0.6428
 2342TIP3    H128441   3.393   3.685   6.409 -0.8218  0.5990  0.8885
 2342TIP3    H228442   3.248   3.651   6.433 -0.8795 -1.6619 -2.0710
 2343TIP3   OH228443   2.684   4.599   6.019  0.8922 -0.0485  0.0024
 2343TIP3    H128444   2.591   4.580   6.007  0.8012  0.0243  0.5493
 2343TIP3    H228445   2.696   4.685   5.977  0.9245 -0.4819 -0.9010
 2344TIP3   OH228446   1.075   2.863  10.998  0.5987  0.2483 -0.4366
 2344TIP3    H128447   1.169   2.867  10.983  0.7079 -0.7254 -0.0498
 2344TIP3    H228448   1.037   2.857  10.911  0.9648 -0.5829 -0.5431
 2345TIP3   OH228449   2.959   0.807  15.942  0.1801 -0.2075 -0.6942
 2345TIP3    H128450   2.984   0.717  15.923 -0.4945 -0.3292 -1.0357
 2345TIP3    H228451   2.871   0.801  15.977  1.0103  0.1130  1.6048
 2346TIP3   OH228452   6.372   4.539  13.339  0.4777 -0.0881  0.5745
 2346TIP3    H128453   6.411   4.594  13.407 -0.3638  1.6771 -0.3415
 2346TIP3    H228454   6.416   4.565  13.259 -2.6218  2.1470 -0.5505
 2347TIP3   OH228455   1.735   6.349  16.329  0.0876  0.3390 -1.0478
 2347TIP3    H128456   1.712   6.309  16.245 -1.4593 -3.5258  0.9713
 2347TIP3    H228457   1.798   6.290  16.368  0.4636  1.8064  0.7136
 2348TIP3   OH228458   2.414   1.682  12.331  0.1505  0.3994  0.4908
 2348TIP3    H128459   2.444   1.702  12.420  0.7832  0.4465  0.2775
 2348TIP3    H228460   2.414   1.587  12.326 -2.3790  0.2985  1.3484
 2349TIP3   OH228461   2.792   5.910  13.552  0.8372 -0.4065 -0.0259
 2349TIP3    H128462   2.805   5.905  13.647  1.1124 -0.8044 -0.0837
 2349TIP3    H228463   2.837   5.833  13.517  0.1975 -0.6039 -0.4267
 2350TIP3   OH228464   1.412   4.107   2.140  0.2543  0.1057 -0.5384
 2350TIP3    H128465   1.504   4.095   2.165  0.9234  0.7456 -2.5447
 2350TIP3    H228466   1.411   4.185   2.085 -1.8841  1.4484  1.2268
 2351TIP3   OH228467   6.712   5.544   3.308 -0.1660  0.2284  0.6986
 2351TIP3    H128468   6.789   5.532   3.252  0.3435  2.7820  0.6915
 2351TIP3    H228469   6.638   5.542   3.248  0.4589  4.3277 -0.5372
 2352TIP3   OH228470   4.389   1.666   1.299 -0.3008 -0.5076 -0.1496
 2352TIP3    H128471   4.343   1.680   1.216  0.1028  0.2214 -0.2521
 2352TIP3    H228472   4.341   1.719   1.362 -1.3179 -1.9471  0.3543
 2353TIP3   OH228473   0.555   4.841  13.404  0.2633 -0.3472  0.9002
 2353TIP3    H128474   0.593   4.929  13.395  0.7053 -0.5525  0.7612
 2353TIP3    H228475   0.473   4.856  13.452  1.3258 -0.0946  2.7467
 2354TIP3   OH228476   4.226   1.864  12.759 -0.2467 -0.3038  0.3810
 2354TIP3    H128477   4.228   1.922  12.835  0.1225  1.7383 -1.1219
 2354TIP3    H228478   4.148   1.891  12.710  0.8417  0.0899 -1.2010
 2355TIP3   OH228479   0.085   5.267  15.589 -0.1629  0.5069  0.1303
 2355TIP3    H128480   0.152   5.231  15.532 -0.2430  0.1034  0.2890
 2355TIP3    H228481   0.113   5.358  15.605  1.8362 -0.4022  2.4015
 2356TIP3   OH228482   6.578   5.550   0.318 -0.6850 -0.1322 -0.0709
 2356TIP3    H128483   6.580   5.604   0.238 -0.4200 -0.3454 -0.2105
 2356TIP3    H228484   6.498   5.498   0.310 -1.0478  0.3818  0.1596
 2357TIP3   OH228485   4.587   2.795   0.516 -0.5706  0.3118 -0.1664
 2357TIP3    H128486   4.638   2.771   0.594  0.3525  0.2283 -0.7774
 2357TIP3    H228487   4.530   2.865   0.545  0.2436  0.7423  0.4331
 2358TIP3   OH228488   0.074   1.695  13.047 -0.0043  0.1890  0.3586
 2358TIP3    H128489   0.109   1.735  13.127  0.9687 -0.6705  0.3907
 2358TIP3    H228490  -0.016   1.672  13.069  0.3474 -0.3195  1.3234
 2359TIP3   OH228491   1.801   4.567  13.415  0.6675 -0.0748 -0.9320
 2359TIP3    H128492   1.816   4.473  13.405  0.0030 -0.3987  0.7971
 2359TIP3    H228493   1.795   4.600  13.325  1.4330 -1.5861 -1.5681
 2360TIP3   OH228494   1.642   4.391   1.527  0.3409  0.4328 -0.1083
 2360TIP3    H128495   1.591   4.394   1.446  0.3297 -1.1959 -0.2069
 2360TIP3    H228496   1.733   4.388   1.498  0.2981 -2.0525 -0.2125
 2361TIP3   OH228497   6.795   0.534   3.484 -0.0935 -0.3335  0.3727
 2361TIP3    H128498   6.779   0.597   3.555 -1.6822 -1.0432  0.6968
 2361TIP3    H228499   6.866   0.479   3.516 -1.1776 -1.0189  1.7207
 2362TIP3   OH228500   2.605   1.376   3.899 -0.9273 -0.1111 -0.3642
 2362TIP3    H128501   2.637   1.400   3.812 -0.5299 -0.5970 -0.3564
 2362TIP3    H228502   2.514   1.350   3.884 -1.1936  0.8578 -0.4576
 2363TIP3   OH228503   0.581   3.140  12.252  0.4819  0.0702 -0.3105
 2363TIP3    H128504   0.546   3.078  12.316  0.9256  0.6797  0.5266
 2363TIP3    H228505   0.662   3.172  12.290  0.1024  1.4153 -0.5850
 2364TIP3   OH228506   0.059   1.766  12.153  0.0121 -0.3682 -0.4361
 2364TIP3    H128507   0.107   1.722  12.083  0.7364  0.2175 -0.3122
 2364TIP3    H228508   0.124   1.780  12.222 -0.5484 -0.3862  0.1085
 2365TIP3   OH228509   6.040   1.638   0.783 -0.3434  0.6066  0.7453
 2365TIP3    H128510   6.098   1.713   0.796  1.5063 -0.7976  0.9517
 2365TIP3    H228511   6.068   1.600   0.700  0.4059 -1.2497  1.7982
 2366TIP3   OH228512   2.363   1.962  13.884 -0.9762 -0.1215 -0.6810
 2366TIP3    H128513   2.443   2.006  13.855 -0.2022 -0.9551  0.1206
 2366TIP3    H228514   2.313   2.031  13.929 -0.4577  0.2836 -0.7126
 2367TIP3   OH228515   6.455   2.601  14.560  0.0282 -0.2679  0.1203
 2367TIP3    H128516   6.386   2.637  14.503  0.0167 -1.1115 -0.4265
 2367TIP3    H228517   6.504   2.677  14.590 -0.9965  0.3291  0.3186
 2368TIP3   OH228518   4.470   0.601  17.077  0.0033 -0.1620 -0.1704
 2368TIP3    H128519   4.493   0.678  17.128 -0.3764 -0.7553  0.9432
 2368TIP3    H228520   4.423   0.635  17.001  0.3646  0.7293 -0.0026
 2369TIP3   OH228521   0.741   1.496   3.324 -0.6295 -0.0561 -0.2222
 2369TIP3    H128522   0.801   1.507   3.251  0.7866  0.7199  1.0132
 2369TIP3    H228523   0.741   1.401   3.340 -1.8214 -0.3840 -1.8787
 2370TIP3   OH228524   6.468   3.486   5.749  0.2676 -0.0998  0.8768
 2370TIP3    H128525   6.416   3.549   5.799  1.5335  2.8247 -1.2299
 2370TIP3    H228526   6.420   3.403   5.758 -1.9632  1.2983  3.1028
 2371TIP3   OH228527   4.690   2.402  14.152  0.3506 -0.3569 -0.2298
 2371TIP3    H128528   4.687   2.308  14.132 -0.4586 -0.6489  1.1133
 2371TIP3    H228529   4.646   2.409  14.237 -0.7031  1.3891 -0.8807
 2372TIP3   OH228530   1.954   4.519  16.973  0.4021 -0.5447 -1.0931
 2372TIP3    H128531   1.957   4.486  17.063  0.3691  0.5530 -0.6684
 2372TIP3    H228532   1.877   4.478  16.934 -0.1302 -0.3014 -0.3159
 2373TIP3   OH228533   5.161   0.732   3.151 -0.0105  0.0518 -0.0219
 2373TIP3    H128534   5.156   0.825   3.129  1.8491  0.1036 -0.4248
 2373TIP3    H228535   5.079   0.695   3.119 -0.5115  1.4340 -0.4218
 2374TIP3   OH228536   3.993   2.018   5.044 -0.0558  0.1916  0.5865
 2374TIP3    H128537   4.055   1.969   5.098  0.9920  0.5061 -0.2882
 2374TIP3    H228538   3.928   1.953   5.018  0.4000 -0.3573  0.7928
 2375TIP3   OH228539   2.709   2.035   2.522  0.7196 -0.6100  0.2716
 2375TIP3    H128540   2.616   2.015   2.520  0.8830 -1.7068  1.9270
 2375TIP3    H228541   2.721   2.104   2.456 -1.1881 -0.6859 -0.1828
 2376TIP3   OH228542   6.524   3.485   5.233  0.8134  0.7038 -0.2116
 2376TIP3    H128543   6.476   3.550   5.182  1.2869  0.5692 -0.8446
 2376TIP3    H228544   6.548   3.530   5.314 -0.4763  0.7347  0.1799
 2377TIP3   OH228545   1.640   2.132  13.001 -0.2534  0.3221  0.0820
 2377TIP3    H128546   1.694   2.058  13.029  0.0550 -0.3203 -1.9751
 2377TIP3    H228547   1.695   2.209  13.014 -0.3407  0.1501  1.6562
 2378TIP3   OH228548   5.918   3.813  11.481  0.1855  0.4763 -0.1553
 2378TIP3    H128549   5.979   3.886  11.467  1.3000 -0.1720  1.0914
 2378TIP3    H228550   5.860   3.844  11.552 -0.8259  0.9988 -1.1755
 2379TIP3   OH228551   5.309   2.710   2.311  0.3393 -0.0284  1.3012
 2379TIP3    H128552   5.336   2.633   2.260 -0.6769  0.5006 -0.1071
 2379TIP3    H228553   5.289   2.675   2.398 -1.7645 -1.7344  0.2392
 2380TIP3   OH228554   2.402   5.104  16.465 -0.6353 -0.4192 -0.0514
 2380TIP3    H128555   2.492   5.137  16.466  0.1412 -2.4521  0.2283
 2380TIP3    H228556   2.356   5.163  16.404  1.0988  0.0660 -0.9560
 2381TIP3   OH228557   0.708   6.564   4.491  0.2650  0.1165  0.0632
 2381TIP3    H128558   0.783   6.529   4.540 -0.0550 -1.2340 -0.3577
 2381TIP3    H228559   0.741   6.644   4.451  0.2323  1.9299  3.3414
 2382TIP3   OH228560   6.638   4.876  15.313 -0.4134 -0.0701 -0.0819
 2382TIP3    H128561   6.621   4.966  15.343 -0.3706 -0.0479 -0.1253
 2382TIP3    H228562   6.625   4.823  15.391  0.3796  0.0609  0.1505
 2383TIP3   OH228563   5.814   1.674  10.719  0.6119  0.1743  0.2937
 2383TIP3    H128564   5.875   1.606  10.750 -0.5796 -1.4396 -0.7872
 2383TIP3    H228565   5.730   1.629  10.711  0.2419  1.2175 -2.5144
 2384TIP3   OH228566   3.192   1.146   4.165  0.2978 -1.0762 -0.1295
 2384TIP3    H128567   3.199   1.067   4.219 -0.0316 -2.2686 -1.7760
 2384TIP3    H228568   3.101   1.174   4.175  0.5030 -0.6669  0.7330
 2385TIP3   OH228569   2.257   5.372   5.278  0.1388  0.5205 -0.4484
 2385TIP3    H128570   2.300   5.394   5.196 -0.9535  1.0554 -0.8850
 2385TIP3    H228571   2.301   5.292   5.307 -0.1336 -0.2477 -2.0644
 2386TIP3   OH228572   5.450   2.184   6.117 -0.2800 -0.1111  0.1279
 2386TIP3    H128573   5.374   2.239   6.102 -0.9196 -0.8444  0.6086
 2386TIP3    H228574   5.451   2.123   6.044 -0.6798 -0.6713  0.5803
 2387TIP3   OH228575   1.888   0.648   2.388 -0.0057 -0.1665  0.0566
 2387TIP3    H128576   1.949   0.722   2.394  0.3909 -0.4318 -0.5576
 2387TIP3    H228577   1.945   0.572   2.382 -0.4059 -0.4358 -0.3361
 2388TIP3   OH228578   6.398   6.253   3.769  0.0212 -0.8279 -0.3330
 2388TIP3    H128579   6.392   6.348   3.771  0.9456 -0.7613  0.3544
 2388TIP3    H228580   6.490   6.235   3.789  0.4368 -1.8047 -2.7956
 2389TIP3   OH228581   5.662   2.397   0.898  0.0755 -0.6461 -0.5690
 2389TIP3    H128582   5.611   2.376   0.820 -0.6823  1.2755 -0.6381
 2389TIP3    H228583   5.747   2.427   0.864  0.0145 -0.5361 -0.6252
 2390TIP3   OH228584   0.588   3.949  13.055  0.2679 -0.2909 -0.1270
 2390TIP3    H128585   0.606   4.005  12.979  1.1909 -0.6531 -0.1863
 2390TIP3    H228586   0.623   3.999  13.129  1.5738 -1.0101 -0.2437
 2391TIP3   OH228587   3.779   3.069  10.932 -0.1968  0.3743  0.6582
 2391TIP3    H128588   3.803   3.064  10.840 -1.3634  0.9926  0.3075
 2391TIP3    H228589   3.823   3.147  10.965  1.4462 -0.6552  1.0348
 2392TIP3   OH228590   0.513   4.416  11.653  0.4703 -0.2337  0.1366
 2392TIP3    H128591   0.443   4.367  11.694 -1.8824  0.7293 -2.3851
 2392TIP3    H228592   0.490   4.508  11.667  1.4193  0.1036 -0.4153
 2393TIP3   OH228593   5.120   6.676  15.637 -0.2788  0.7286  0.6529
 2393TIP3    H128594   5.066   6.645  15.710 -0.4840  1.2367  0.7175
 2393TIP3    H228595   5.207   6.688  15.675 -0.0403 -0.3450  0.4903
 2394TIP3   OH228596   4.280   1.211  13.157 -0.1737 -0.0656  0.1767
 2394TIP3    H128597   4.204   1.239  13.105 -1.0807 -0.7652  1.0892
 2394TIP3    H228598   4.337   1.287  13.159 -1.7859  1.1672  1.1668
 2395TIP3   OH228599   4.784   3.497   3.732  0.0405 -0.2617  0.4128
 2395TIP3    H128600   4.716   3.472   3.669  0.2083 -0.3961  0.2850
 2395TIP3    H228601   4.863   3.453   3.701  0.2948  0.2617  0.2982
 2396TIP3   OH228602   3.455   0.353   2.346  0.1972  0.4540 -0.5305
 2396TIP3    H128603   3.512   0.283   2.314  0.2863  1.2723 -2.2978
 2396TIP3    H228604   3.507   0.399   2.412 -0.0104 -1.3363  0.9580
 2397TIP3   OH228605   1.771   0.642   2.644  0.1402  0.3838 -0.0318
 2397TIP3    H128606   1.810   0.653   2.557  1.1344 -0.7260  0.2440
 2397TIP3    H228607   1.827   0.692   2.702  1.2835 -1.2883  0.3803
 2398TIP3   OH228608   4.718   3.622  11.910  0.1545  0.4841 -0.1973
 2398TIP3    H128609   4.644   3.593  11.857  1.2710 -0.7705 -1.1319
 2398TIP3    H228610   4.697   3.713  11.932 -0.9147  0.6647 -1.7794
 2399TIP3   OH228611   0.457   5.440   2.396  0.5671 -0.2401 -0.1589
 2399TIP3    H128612   0.384   5.494   2.424  0.7503  0.6371 -1.2814
 2399TIP3    H228613   0.488   5.398   2.476 -0.1265  0.6491  0.6019
 2400TIP3   OH228614   0.497   1.564   3.421 -0.7008 -0.4207 -0.1337
 2400TIP3    H128615   0.495   1.655   3.391 -1.9876 -0.4466 -0.1702
 2400TIP3    H228616   0.587   1.535   3.403 -0.3485  0.7574 -0.3487
 2401TIP3   OH228617   1.146   3.440  15.594 -0.2547  0.3263  0.1792
 2401TIP3    H128618   1.089   3.485  15.656 -1.1367  0.4698 -0.6933
 2401TIP3    H228619   1.087   3.379  15.549  0.4249  0.0139 -0.3026
 2402TIP3   OH228620   3.401   6.434   5.614 -0.3899  0.2508 -0.4110
 2402TIP3    H128621   3.409   6.349   5.572  3.2340 -0.9944  2.3846
 2402TIP3    H228622   3.358   6.417   5.697 -0.6183  1.3730 -0.2723
 2403TIP3   OH228623   0.227   0.214  16.439  0.8042  0.1226  0.3540
 2403TIP3    H128624   0.209   0.296  16.484  1.6194  0.3240  0.3409
 2403TIP3    H228625   0.162   0.210  16.369  0.8152  0.8032  0.2961
 2404TIP3   OH228626   5.364   2.812  15.108  0.0333 -0.2953 -0.1711
 2404TIP3    H128627   5.456   2.838  15.102  0.9683 -3.2065  0.2147
 2404TIP3    H228628   5.357   2.735  15.051 -2.2017 -0.1126 -0.2297
 2405TIP3   OH228629   1.604   3.806   4.356  0.5181  0.9285  0.6209
 2405TIP3    H128630   1.535   3.743   4.374  1.3744 -0.0369  0.5956
 2405TIP3    H228631   1.590   3.876   4.420  0.1624  0.2295  1.3173
 2406TIP3   OH228632   6.529   5.644  13.529 -0.1532  0.5028 -0.0921
 2406TIP3    H128633   6.495   5.690  13.452 -1.4560 -0.4182 -0.1138
 2406TIP3    H228634   6.505   5.552  13.514 -0.2772  0.2829  1.3126
 2407TIP3   OH228635   2.824   1.999  14.281  0.0898 -0.1999 -0.5556
 2407TIP3    H128636   2.812   1.951  14.363  0.6204  1.1736  0.3784
 2407TIP3    H228637   2.918   1.990  14.262  0.5650  1.7532  0.5433
 2408TIP3   OH228638   6.381   1.147  16.187 -0.5497 -0.3711  0.2113
 2408TIP3    H128639   6.348   1.176  16.102 -1.6027 -0.3871  0.5979
 2408TIP3    H228640   6.378   1.226  16.242 -1.6510 -0.7675  0.7467
 2409TIP3   OH228641   4.918   4.117  15.352  0.2128 -0.2521 -0.1077
 2409TIP3    H128642   4.952   4.206  15.359  2.4512 -1.0969  0.4845
 2409TIP3    H228643   4.840   4.126  15.297  1.3663  1.8122 -1.5674
 2410TIP3   OH228644   6.090   1.902   1.376  0.1499  0.0080 -0.7853
 2410TIP3    H128645   6.173   1.855   1.379  0.6045  0.4767 -3.2541
 2410TIP3    H228646   6.024   1.835   1.361 -0.2053 -0.5381  2.5763
 2411TIP3   OH228647   2.691   2.022  10.913  0.1849 -0.1492  0.0212
 2411TIP3    H128648   2.658   2.041  10.825  0.7213 -0.3951 -0.2440
 2411TIP3    H228649   2.613   2.007  10.966 -0.1500 -2.1290 -0.9082
 2412TIP3   OH228650   1.972   6.048  16.930 -0.3437 -0.3056  0.2162
 2412TIP3    H128651   1.964   6.033  16.836 -0.9213  0.0649  0.1977
 2412TIP3    H228652   2.061   6.081  16.942  0.4254 -2.1878  0.0614
 2413TIP3   OH228653   6.266   1.898   1.113  0.7631 -0.1361 -0.1622
 2413TIP3    H128654   6.173   1.906   1.093  0.4855 -0.4106  0.9232
 2413TIP3    H228655   6.307   1.973   1.070 -0.4054  1.8255  1.9451
 2414TIP3   OH228656   3.233   4.046   5.222  0.1434  0.0800 -0.5011
 2414TIP3    H128657   3.239   4.092   5.305 -0.0154 -0.9061  0.0790
 2414TIP3    H228658   3.246   3.953   5.245 -0.3589 -0.2576 -1.5100
 2415TIP3   OH228659   1.554   4.768   0.171  0.2917 -0.2716  0.0177
 2415TIP3    H128660   1.488   4.757   0.240 -0.3304  1.3827 -0.2681
 2415TIP3    H228661   1.580   4.678   0.149 -0.7703 -0.9084  1.1761
 2416TIP3   OH228662   6.300   0.516  13.777  0.3765  0.7028  0.4183
 2416TIP3    H128663   6.337   0.441  13.730 -0.6010  1.2353 -1.3048
 2416TIP3    H228664   6.229   0.478  13.829  1.2937  0.1368  1.2751
 2417TIP3   OH228665   3.084   6.088   3.939 -0.7483 -0.1895 -0.1551
 2417TIP3    H128666   3.006   6.034   3.956 -1.6275 -0.1186 -3.3262
 2417TIP3    H228667   3.152   6.025   3.917 -0.5694 -0.1507  0.2779
 2418TIP3   OH228668   6.482   2.165   5.596 -0.0302 -0.1187  1.1419
 2418TIP3    H128669   6.426   2.115   5.655 -1.7098  0.0380 -0.2311
 2418TIP3    H228670   6.441   2.251   5.591  0.9904  0.3796  0.9599
 2419TIP3   OH228671   2.497   4.551  11.871 -0.3702  0.1263 -0.4889
 2419TIP3    H128672   2.426   4.610  11.847 -0.3988  1.1580  1.9253
 2419TIP3    H228673   2.454   4.476  11.912 -0.1148  0.6718  0.8180
 2420TIP3   OH228674   0.710   1.938  13.676  0.0964  0.1536  0.1262
 2420TIP3    H128675   0.780   1.894  13.725 -0.2142 -0.5535 -0.0443
 2420TIP3    H228676   0.714   2.029  13.704  0.8216  0.0355  0.4226
 2421TIP3   OH228677   2.120   5.344  14.054  0.2701  0.1268  0.0519
 2421TIP3    H128678   2.150   5.368  14.141  0.4707 -2.4398  0.7732
 2421TIP3    H228679   2.201   5.332  14.003  0.2543 -0.5194  0.1661
 2422TIP3   OH228680   6.648   1.429  12.213  0.0432 -0.3237  0.5710
 2422TIP3    H128681   6.730   1.477  12.208  0.8403 -1.6576  0.6008
 2422TIP3    H228682   6.581   1.498  12.210  1.0792  0.6791 -1.1642
 2423TIP3   OH228683   3.989   2.836  11.332  0.1630  0.1293 -0.0595
 2423TIP3    H128684   3.920   2.903  11.327  0.4036  0.3854  0.0211
 2423TIP3    H228685   4.024   2.831  11.243 -0.4270 -0.5036 -0.2635
 2424TIP3   OH228686   1.287   0.986  15.285 -0.6005 -1.1890 -0.3073
 2424TIP3    H128687   1.294   1.072  15.242 -1.9758 -1.3968 -1.0201
 2424TIP3    H228688   1.344   0.993  15.361  2.6472 -1.1028 -2.5632
 2425TIP3   OH228689   6.745   2.798   4.295  0.1518  0.6013  0.2454
 2425TIP3    H128690   6.728   2.703   4.295  1.3306  0.3720  0.6648
 2425TIP3    H228691   6.707   2.828   4.213  1.7578 -0.6430 -1.0274
 2426TIP3   OH228692   4.425   0.851   5.894  0.3450  0.4377  0.4401
 2426TIP3    H128693   4.445   0.944   5.907  1.7520 -0.0996  2.6332
 2426TIP3    H228694   4.350   0.834   5.951  0.8425 -0.0048  0.9743
 2427TIP3   OH228695   0.106   1.761  11.396 -0.2874  0.1699  0.2368
 2427TIP3    H128696   0.161   1.695  11.353  1.1532  1.0225  0.6952
 2427TIP3    H228697   0.086   1.723  11.482 -1.9227 -0.8913 -0.5646
 2428TIP3   OH228698   5.563   6.000  12.572  0.8999 -0.2300  0.2090
 2428TIP3    H128699   5.588   6.092  12.574  2.0130 -0.5252  0.4550
 2428TIP3    H228700   5.535   5.984  12.482  1.4467  0.1610 -0.0338
 2429TIP3   OH228701   3.773   5.203  11.923  0.3990 -0.1290 -0.0589
 2429TIP3    H128702   3.739   5.197  11.833 -0.1466 -0.3044  0.1597
 2429TIP3    H228703   3.845   5.139  11.925  2.4052  1.9245 -1.2340
 2430TIP3   OH228704   3.824   3.837   2.961  0.7786  0.1687 -0.5328
 2430TIP3    H128705   3.863   3.843   2.873  0.0414  0.4873 -0.8552
 2430TIP3    H228706   3.784   3.924   2.974 -1.4222 -0.6961 -1.0160
 2431TIP3   OH228707   4.182   0.918  13.606 -0.4075  0.5341  0.4550
 2431TIP3    H128708   4.221   0.985  13.663 -1.2279  0.8738  0.6306
 2431TIP3    H228709   4.242   0.912  13.532 -0.7186  2.0444  0.0521
 2432TIP3   OH228710   6.584   1.186   4.133 -0.1691 -0.4373 -0.5173
 2432TIP3    H128711   6.577   1.147   4.220  2.1383  0.7791  0.2958
 2432TIP3    H228712   6.601   1.111   4.075 -0.9996 -1.1736  0.1538
 2433TIP3   OH228713   0.137   2.786  12.630  0.1982 -0.1534  0.3550
 2433TIP3    H128714   0.110   2.698  12.603  0.9577 -0.0439 -0.8583
 2433TIP3    H228715   0.058   2.839  12.625 -0.2021 -0.7104  0.8064
 2434TIP3   OH228716   5.713   3.658   5.343 -0.0101  0.4374 -0.4317
 2434TIP3    H128717   5.641   3.720   5.349  2.4875  3.4296  1.9536
 2434TIP3    H228718   5.744   3.665   5.252 -1.0777  1.0619 -0.7569
 2435TIP3   OH228719   1.614   0.251  10.327  0.3144  0.0376  0.0938
 2435TIP3    H128720   1.705   0.282  10.328  0.4391 -0.3383  1.1259
 2435TIP3    H228721   1.579   0.276  10.412 -0.2803 -0.6121  0.0497
 2436TIP3   OH228722   0.477   0.057   3.349 -0.1721 -0.2137 -0.1019
 2436TIP3    H128723   0.498   0.062   3.256  0.3944 -1.5348 -0.0709
 2436TIP3    H228724   0.524   0.131   3.388  1.4096 -0.9249 -0.5785
 2437TIP3   OH228725   5.046   2.551   4.361 -0.4019  0.1465  0.0479
 2437TIP3    H128726   4.967   2.606   4.357 -0.3793  0.1140 -3.5363
 2437TIP3    H228727   5.013   2.465   4.389 -1.6253  0.1999 -1.1321
 2438TIP3   OH228728   6.455   5.109   1.386  0.2134  0.4766 -0.7160
 2438TIP3    H128729   6.486   5.137   1.300  1.2497 -1.3033 -0.9642
 2438TIP3    H228730   6.416   5.023   1.371  0.6563  0.0145  0.6401
 2439TIP3   OH228731   2.541   3.980  14.108  0.0011 -0.4085  0.1066
 2439TIP3    H128732   2.481   3.952  14.038 -0.2527 -0.7588  0.4632
 2439TIP3    H228733   2.484   4.010  14.178  0.2589 -0.0358  0.1620
 2440TIP3   OH228734   1.385   2.722   5.422 -0.0157 -0.3284  0.0636
 2440TIP3    H128735   1.327   2.798   5.414  0.5948  0.1558  0.1613
 2440TIP3    H228736   1.378   2.678   5.337  0.3388  0.3615 -0.3309
 2441TIP3   OH228737   5.788   0.355   1.851  0.1156 -0.3158 -0.3878
 2441TIP3    H128738   5.785   0.263   1.825 -2.3807 -0.3240 -0.2987
 2441TIP3    H228739   5.699   0.374   1.882  1.2081  1.4829  1.9337
 2442TIP3   OH228740   5.761   4.168   1.402  0.5198  0.2836  0.6172
 2442TIP3    H128741   5.800   4.116   1.473  0.1622 -1.8939 -0.7199
 2442TIP3    H228742   5.743   4.253   1.443 -0.3182 -1.0900  3.3436
 2443TIP3   OH228743   5.160   3.324   5.302  0.3446  0.6867 -0.0097
 2443TIP3    H128744   5.195   3.389   5.363 -1.0041  1.4650 -0.0282
 2443TIP3    H228745   5.068   3.315   5.327  0.3912 -0.8707 -0.3285
 2444TIP3   OH228746   1.220   5.069  14.680 -0.3832 -0.1516  0.1550
 2444TIP3    H128747   1.171   5.003  14.731 -0.2157 -0.4477 -0.0631
 2444TIP3    H228748   1.283   5.105  14.742  0.5872 -1.3169 -0.1214
 2445TIP3   OH228749   1.617   1.068   1.415  0.0300  0.1078 -0.0353
 2445TIP3    H128750   1.616   1.144   1.473  1.8989 -0.8634  1.4025
 2445TIP3    H228751   1.643   1.103   1.330 -4.0592  1.7821 -0.8286
 2446TIP3   OH228752   3.067   0.726   3.742 -0.0510  0.8381 -0.5874
 2446TIP3    H128753   3.041   0.730   3.834 -0.0748 -1.3603 -0.4480
 2446TIP3    H228754   3.159   0.753   3.741  0.1524  0.2034  0.1930
 2447TIP3   OH228755   1.189   3.160  11.730 -0.0373 -0.2132 -0.0004
 2447TIP3    H128756   1.231   3.190  11.649 -0.0048  0.2383  0.1795
 2447TIP3    H228757   1.109   3.117  11.701  0.9714 -1.8886 -0.4159
 2448TIP3   OH228758   1.753   4.144   5.281  0.3284 -0.0109  0.1484
 2448TIP3    H128759   1.732   4.201   5.355  1.3599  1.0976 -0.3718
 2448TIP3    H228760   1.825   4.090   5.312  1.1199  0.8233 -0.1893
 2449TIP3   OH228761   4.651   5.184   5.741 -0.0920 -0.1297  0.2748
 2449TIP3    H128762   4.566   5.200   5.700  0.0118 -0.6594 -0.1634
 2449TIP3    H228763   4.673   5.267   5.783 -1.6755 -0.5179  1.9951
 2450TIP3   OH228764   5.369   0.393  10.998  0.1911 -0.3191  0.0783
 2450TIP3    H128765   5.331   0.481  11.003 -1.5573 -0.9011 -1.4656
 2450TIP3    H228766   5.417   0.393  10.915 -0.9553 -1.1892 -0.6083
 2451TIP3   OH228767   6.289   1.761   4.695 -0.2856  0.2478  0.3480
 2451TIP3    H128768   6.383   1.750   4.707  0.1314  1.3912 -1.4214
 2451TIP3    H228769   6.249   1.692   4.748  1.6170 -1.5866 -0.4707
 2452TIP3   OH228770   5.165   1.124   2.241  0.2413 -0.0868  0.0935
 2452TIP3    H128771   5.104   1.124   2.315 -0.6546  0.6711 -0.6114
 2452TIP3    H228772   5.251   1.132   2.281 -0.2216  0.1996  1.0722
 2453TIP3   OH228773   5.046   1.906   5.687 -0.5677  0.0539 -0.5286
 2453TIP3    H128774   4.995   1.987   5.693 -3.9778 -1.9066 -0.5110
 2453TIP3    H228775   5.042   1.868   5.775  0.3627 -0.4780 -0.7060
 2454TIP3   OH228776   6.178   4.456  16.525  0.1962 -0.3129 -0.8489
 2454TIP3    H128777   6.114   4.478  16.457 -0.3448 -2.6859 -1.1859
 2454TIP3    H228778   6.140   4.381  16.571  0.8809  0.7726  1.6549
 2455TIP3   OH228779   2.861   5.519   2.183 -0.0546  0.2374 -0.4549
 2455TIP3    H128780   2.868   5.507   2.088 -1.3818  0.8909 -0.6550
 2455TIP3    H228781   2.947   5.551   2.210 -0.4892  2.8401 -1.8932
 2456TIP3   OH228782   6.746   2.962   3.304 -0.6231 -0.0869  0.6217
 2456TIP3    H128783   6.779   2.978   3.216  0.0224 -3.3985  0.1132
 2456TIP3    H228784   6.650   2.961   3.294 -0.7754  3.2084  0.8185
 2457TIP3   OH228785   5.534   4.979  12.554 -0.1810  0.2153  0.2223
 2457TIP3    H128786   5.628   4.985  12.573 -0.4095  1.5965  1.0456
 2457TIP3    H228787   5.530   4.939  12.468  1.0571 -2.4527  1.2819
 2458TIP3   OH228788   3.545   4.801  16.513  0.3993  0.9322 -0.5277
 2458TIP3    H128789   3.505   4.715  16.511  0.3225  0.9515  0.1697
 2458TIP3    H228790   3.485   4.857  16.464 -1.4759  1.3917  2.0850
 2459TIP3   OH228791   3.296   0.715   4.954 -0.2041  0.0676  0.1507
 2459TIP3    H128792   3.206   0.685   4.952 -0.1442 -0.0713 -0.4254
 2459TIP3    H228793   3.317   0.722   5.048 -0.6963 -0.2307  0.2821
 2460TIP3   OH228794   6.635   0.803   2.901 -0.0851  0.0334 -0.0283
 2460TIP3    H128795   6.726   0.786   2.877  0.6759  3.5896 -0.2564
 2460TIP3    H228796   6.589   0.814   2.818 -0.1657  0.5548  0.0800
 2461TIP3   OH228797   0.194   3.110   1.306  0.2465 -0.1453  0.1800
 2461TIP3    H128798   0.192   3.140   1.215  0.3041 -2.2096 -0.5494
 2461TIP3    H228799   0.163   3.019   1.303  0.4923 -0.3554  2.1916
 2462TIP3   OH228800   3.487   0.481  12.101 -0.0504 -0.2477 -0.5637
 2462TIP3    H128801   3.455   0.560  12.057  1.0005  0.4857 -0.0739
 2462TIP3    H228802   3.560   0.452  12.046  0.3225 -0.1801 -0.1133
 2463TIP3   OH228803   6.178   2.826   2.503  0.1030 -0.4423  0.0508
 2463TIP3    H128804   6.103   2.786   2.548  0.5548 -2.5178 -0.9319
 2463TIP3    H228805   6.250   2.765   2.518  0.5810 -0.5553 -2.3308
 2464TIP3   OH228806   6.566   2.239  12.678 -0.5233 -0.1206  0.3377
 2464TIP3    H128807   6.593   2.224  12.768 -2.1850 -1.9973  0.5917
 2464TIP3    H228808   6.512   2.318  12.681  1.9794  1.6769  0.3799
 2465TIP3   OH228809   3.189   2.933   3.109  0.0109 -0.3955 -0.1135
 2465TIP3    H128810   3.241   3.002   3.151  0.3993 -0.8038  0.0844
 2465TIP3    H228811   3.164   2.971   3.025 -1.7027  0.8608  0.8895
 2466TIP3   OH228812   5.529   1.176  15.732  0.4330  0.1900 -0.0593
 2466TIP3    H128813   5.454   1.224  15.698  0.1219  1.7483  2.6067
 2466TIP3    H228814   5.605   1.227  15.704  0.2179  1.0958  0.9529
 2467TIP3   OH228815   2.896   5.641   4.666 -0.2202 -0.7395  0.9395
 2467TIP3    H128816   2.970   5.633   4.607 -1.0762 -1.3375 -0.0803
 2467TIP3    H228817   2.895   5.558   4.715 -0.9306 -1.2561  0.0776
 2468TIP3   OH228818   2.916   1.222   4.176  0.1039 -0.6734 -0.2914
 2468TIP3    H128819   2.826   1.256   4.177  0.4461  0.2977 -0.6652
 2468TIP3    H228820   2.907   1.131   4.147 -0.7078 -0.3881 -0.9991
 2469TIP3   OH228821   4.432   1.534   5.888 -0.2745  0.4268  0.2869
 2469TIP3    H128822   4.506   1.523   5.947 -1.6332  1.0661  2.1786
 2469TIP3    H228823   4.459   1.490   5.807  2.6284  1.6919  0.4743
 2470TIP3   OH228824   6.333   5.144  15.973  0.2411  0.1075 -0.3343
 2470TIP3    H128825   6.302   5.227  16.010 -1.9422 -0.9394  0.3155
 2470TIP3    H228826   6.272   5.124  15.902  0.0481 -1.4527  0.2205
 2471TIP3   OH228827   6.316   6.642   4.571  0.4483 -0.2127  0.1693
 2471TIP3    H128828   6.264   6.578   4.523  1.1682 -0.2046 -0.6467
 2471TIP3    H228829   6.377   6.589   4.623  1.5479 -0.2108 -1.0733
 2472TIP3   OH228830   3.268   2.411  14.024 -0.3014 -0.0151 -0.1818
 2472TIP3    H128831   3.241   2.429  14.114  0.2887 -1.6213  0.3473
 2472TIP3    H228832   3.186   2.401  13.975 -0.6855 -1.5095  0.7058
 2473TIP3   OH228833   4.563   4.818  11.003  0.3501  0.0708  0.1502
 2473TIP3    H128834   4.531   4.873  11.075  0.2576  1.2907 -0.8009
 2473TIP3    H228835   4.591   4.737  11.046 -1.3271  0.0862  1.3477
 2474TIP3   OH228836   5.052   2.995   2.522  0.2160  0.4294 -0.0646
 2474TIP3    H128837   4.983   3.048   2.484 -0.7065 -1.3481 -0.9718
 2474TIP3    H228838   5.126   3.005   2.462  0.2455  1.1085  0.0763
 2475TIP3   OH228839   1.381   4.110   3.144 -0.4884 -0.6356  0.1659
 2475TIP3    H128840   1.329   4.171   3.195  0.4876  0.7644 -0.4549
 2475TIP3    H228841   1.339   4.025   3.159  0.7998 -0.7187  4.7529
 2476TIP3   OH228842   1.096   4.530   5.729 -0.1589  0.2929  0.0521
 2476TIP3    H128843   1.090   4.527   5.824  0.7045  2.0746  0.2124
 2476TIP3    H228844   1.019   4.579   5.701 -0.3342 -0.1006 -0.1698
 2477TIP3   OH228845   0.363   4.390  15.191 -0.0819 -0.0248  0.2837
 2477TIP3    H128846   0.403   4.354  15.270 -1.3784 -0.5646  0.7279
 2477TIP3    H228847   0.305   4.321  15.160 -1.7179  1.1780  0.4741
 2478TIP3   OH228848   0.369   0.199  14.544  0.3573 -0.4003 -0.1897
 2478TIP3    H128849   0.311   0.183  14.469  0.3807 -0.8029 -0.1245
 2478TIP3    H228850   0.452   0.159  14.519  0.9944  1.2380 -0.7903
 2479TIP3   OH228851   0.901   0.149  16.054 -0.3010 -0.5841  0.6876
 2479TIP3    H128852   0.827   0.109  16.099  0.2499 -1.2695  1.0025
 2479TIP3    H228853   0.943   0.076  16.007  0.3489 -0.2699  0.7605
 2480TIP3   OH228854   6.378   0.578  10.684 -0.4706  0.4447 -0.5390
 2480TIP3    H128855   6.406   0.656  10.732  0.8123  0.9471 -2.0523
 2480TIP3    H228856   6.433   0.508  10.719  1.3066  1.0353 -2.0490
 2481TIP3   OH228857   1.331   4.194   4.534  0.1436 -0.6485  0.0056
 2481TIP3    H128858   1.336   4.216   4.628  1.4414 -2.8312  0.5109
 2481TIP3    H228859   1.414   4.151   4.515 -0.0637 -0.1906 -2.2194
 2482TIP3   OH228860   6.091   4.631   3.930  0.2873 -0.2355  0.5655
 2482TIP3    H128861   6.038   4.706   3.904 -0.9108 -0.9763  0.7844
 2482TIP3    H228862   6.030   4.574   3.978  1.0821 -1.4638  0.1766
 2483TIP3   OH228863   5.335   5.657  10.142  0.1083 -0.3483  0.5495
 2483TIP3    H128864   5.310   5.722  10.207 -1.9476 -1.5279  1.0191
 2483TIP3    H228865   5.303   5.693  10.059  1.1479  0.3205  0.4134
 2484TIP3   OH228866   0.252   3.247  11.272 -0.0031 -0.1421  0.1306
 2484TIP3    H128867   0.227   3.192  11.197 -1.9771 -0.1933  0.7652
 2484TIP3    H228868   0.239   3.337  11.241  1.6633 -0.0393 -0.3772
 2485TIP3   OH228869   3.744   5.660   3.076 -0.6191  0.2900 -0.6952
 2485TIP3    H128870   3.654   5.657   3.044 -0.3889 -0.4147 -1.3042
 2485TIP3    H228871   3.746   5.734   3.135 -2.3511 -1.3702  1.6105
 2486TIP3   OH228872   6.269   1.883  14.399  0.5881 -0.0069  0.7534
 2486TIP3    H128873   6.179   1.874  14.429  0.6339 -3.0875  0.2415
 2486TIP3    H228874   6.322   1.879  14.479  0.3645  1.2389  0.9976
 2487TIP3   OH228875   0.922   0.169   2.311  0.0700  0.2384 -0.1458
 2487TIP3    H128876   0.863   0.095   2.326 -1.2551  1.0327 -1.1727
 2487TIP3    H228877   0.896   0.203   2.225  0.7095  1.8284  0.2543
 2488TIP3   OH228878   4.881   0.417   4.957  0.2249 -0.1962  0.6637
 2488TIP3    H128879   4.787   0.424   4.973 -0.0155  0.9279 -0.9575
 2488TIP3    H228880   4.905   0.500   4.916  1.8407 -0.6285  0.6492
 2489TIP3   OH228881   4.637   5.939   2.509  0.1586  0.3651  0.4256
 2489TIP3    H128882   4.623   6.003   2.440  0.0562  0.6500  0.7089
 2489TIP3    H228883   4.573   5.962   2.577  0.4844  0.2916  0.7586
 2490TIP3   OH228884   0.227   1.476  16.984 -0.2928 -0.3255  0.2997
 2490TIP3    H128885   0.167   1.441  16.918 -0.4996 -1.0740  0.8667
 2490TIP3    H228886   0.185   1.557  17.014 -0.5443 -0.3503  0.0179
 2491TIP3   OH228887   1.614   6.216  13.527 -0.2454 -0.4581 -0.2981
 2491TIP3    H128888   1.552   6.196  13.457  1.1421 -0.7776 -1.4881
 2491TIP3    H228889   1.682   6.150  13.519  1.3599  1.1370 -0.4494
 2492TIP3   OH228890   4.286   6.332  15.307  0.8097  0.6201  0.4627
 2492TIP3    H128891   4.240   6.412  15.332 -0.4095  0.8902 -2.2828
 2492TIP3    H228892   4.373   6.362  15.280 -0.4364  1.5701 -3.0210
 2493TIP3   OH228893   3.300   2.137  12.999  0.5438  0.1937 -0.1901
 2493TIP3    H128894   3.363   2.154  13.069 -0.2448  1.5362  0.2156
 2493TIP3    H228895   3.351   2.142  12.919  1.3861 -0.9991  0.2449
 2494TIP3   OH228896   0.309   2.603   0.779  0.1855  0.1292 -0.0533
 2494TIP3    H128897   0.227   2.642   0.747 -0.9732 -1.6135  0.6356
 2494TIP3    H228898   0.283   2.516   0.808  2.5091 -0.8559 -0.7834
 2495TIP3   OH228899   5.707   4.714  15.878  0.4642 -0.2537  0.0278
 2495TIP3    H128900   5.647   4.640  15.872  0.4602 -0.3334  0.9258
 2495TIP3    H228901   5.735   4.729  15.788 -1.7303  0.4905 -0.5923
 2496TIP3   OH228902   1.123   5.114  12.188  0.3841  0.5418 -0.1019
 2496TIP3    H128903   1.056   5.047  12.177  0.3072  0.5579  0.2842
 2496TIP3    H228904   1.157   5.101  12.276  0.2595  1.1138  0.0380
 2497TIP3   OH228905   5.424   5.924   1.176  0.1295 -0.1862  0.5083
 2497TIP3    H128906   5.334   5.912   1.148  0.1535 -0.6178  0.6073
 2497TIP3    H228907   5.473   5.855   1.131  0.2075 -0.7252  1.4037
 2498TIP3   OH228908   1.627   0.182   3.174 -0.1517 -0.3274 -0.1368
 2498TIP3    H128909   1.599   0.119   3.109  1.4524 -0.6601 -0.5607
 2498TIP3    H228910   1.679   0.246   3.125 -0.3681  0.3942  0.5461
 2499TIP3   OH228911   6.065   3.861   5.133  0.3143  0.5977 -0.7226
 2499TIP3    H128912   5.997   3.921   5.103  0.4609 -0.4174 -3.3547
 2499TIP3    H228913   6.072   3.795   5.063 -0.0709 -2.7389  2.1067
 2500TIP3   OH228914   0.905   1.237   1.046  0.0605  0.2603  0.0399
 2500TIP3    H128915   0.918   1.159   0.993 -1.4498  0.0897 -0.1182
 2500TIP3    H228916   0.859   1.206   1.124 -0.6101  0.9858 -0.0550
 2501TIP3   OH228917   3.599   0.591   5.342 -0.2129  0.0609 -0.3233
 2501TIP3    H128918   3.592   0.613   5.435 -0.0601 -1.4071  0.0615
 2501TIP3    H228919   3.691   0.605   5.321 -0.1738  0.0590 -0.1537
 2502TIP3   OH228920   0.655   0.190   2.588  0.1884  0.0539  0.1950
 2502TIP3    H128921   0.591   0.154   2.527  0.2829 -1.4606  0.9388
 2502TIP3    H228922   0.704   0.114   2.619  2.1297  1.1145 -0.0812
 2503TIP3   OH228923   5.929   4.278  10.863  0.9031  0.6032 -0.5823
 2503TIP3    H128924   5.936   4.291  10.957 -0.0075 -2.5992  0.0544
 2503TIP3    H228925   6.020   4.275  10.833  1.2671 -0.2984  0.5503
 2504TIP3   OH228926   3.698   3.407   3.207  0.1515 -0.3152  0.1276
 2504TIP3    H128927   3.649   3.431   3.286  1.0002  1.3389  0.2047
 2504TIP3    H228928   3.652   3.330   3.173 -2.0718  0.7244  0.5644
 2505TIP3   OH228929   4.230   6.750   3.944  0.4392  0.1079 -0.2724
 2505TIP3    H128930   4.315   6.791   3.959  0.3879 -0.3094  1.3446
 2505TIP3    H228931   4.186   6.756   4.028 -0.1536 -1.8998 -0.4014
 2506TIP3   OH228932   4.959   0.151  14.105  0.1969 -0.2502 -0.3418
 2506TIP3    H128933   5.039   0.100  14.089  0.6161  0.3364 -0.1484
 2506TIP3    H228934   4.888   0.094  14.075  0.5333 -1.5461  1.1967
 2507TIP3   OH228935   5.680   6.656  14.863  0.0786  0.4740 -0.2401
 2507TIP3    H128936   5.631   6.722  14.913 -0.3612 -0.3909  0.4925
 2507TIP3    H228937   5.753   6.705  14.824  1.6902  0.8273  2.9220
 2508TIP3   OH228938   3.654   6.361   0.036  0.1279 -0.2226  0.4841
 2508TIP3    H128939   3.748   6.356   0.018 -0.0546  0.9933 -1.0346
 2508TIP3    H228940   3.645   6.440   0.090 -0.1700  0.7643 -0.9320
 2509TIP3   OH228941   5.273   1.800   0.190 -0.0965  0.4003  0.2486
 2509TIP3    H128942   5.348   1.849   0.155 -0.2963  0.7161  0.2666
 2509TIP3    H228943   5.269   1.722   0.134  0.4187  0.2400  0.4243
 2510TIP3   OH228944   1.878   3.588   3.638  0.4005 -0.6612  0.0119
 2510TIP3    H128945   1.889   3.608   3.731 -1.1307  0.8088 -0.0660
 2510TIP3    H228946   1.924   3.659   3.593  0.6933 -1.0747 -0.3356
 2511TIP3   OH228947   3.446   3.482  12.948  0.3529  0.2523  0.4220
 2511TIP3    H128948   3.498   3.533  12.885  1.4661  0.7756  1.7054
 2511TIP3    H228949   3.421   3.403  12.900  3.1903 -0.5083 -0.0366
 2512TIP3   OH228950   0.916   4.190  11.824 -0.2783  0.1762  0.3522
 2512TIP3    H128951   0.829   4.188  11.864 -0.2134 -1.2294  0.4488
 2512TIP3    H228952   0.974   4.222  11.893 -0.7971  1.8379  0.0701
 2513TIP3   OH228953   1.509   2.153   1.044 -0.2090  0.1556 -0.0470
 2513TIP3    H128954   1.448   2.158   0.970 -1.2207 -0.3205  0.7355
 2513TIP3    H228955   1.568   2.227   1.032 -2.0255  1.6790  0.1283
 2514TIP3   OH228956   0.249   2.033   1.958 -0.3141 -0.2896  0.6223
 2514TIP3    H128957   0.268   1.943   1.930 -0.2454 -0.8626  2.4351
 2514TIP3    H228958   0.333   2.068   1.986 -0.3782  0.3017  0.1060
 2515TIP3   OH228959   3.781   0.716   3.902  0.1318 -0.3757 -0.1189
 2515TIP3    H128960   3.869   0.744   3.877 -0.4140  1.8179  0.2164
 2515TIP3    H228961   3.781   0.718   3.997 -1.4076  3.9850  0.0047
 2516TIP3   OH228962   0.763   1.635  15.420 -0.2774  0.2789 -0.2384
 2516TIP3    H128963   0.750   1.566  15.354 -1.8442 -0.0152  0.3318
 2516TIP3    H228964   0.857   1.630  15.441  0.0099 -0.4308 -1.5456
 2517TIP3   OH228965   2.852   2.140  17.086  0.3615 -0.0409 -0.1084
 2517TIP3    H128966   2.867   2.175  17.174 -1.3152 -0.3601  0.3350
 2517TIP3    H228967   2.899   2.057  17.085  1.4104  0.5255  0.0422
 2518TIP3   OH228968   0.562   0.884   6.052  0.7365 -0.8210 -0.0885
 2518TIP3    H128969   0.634   0.945   6.069 -0.1550  0.0721  0.5877
 2518TIP3    H228970   0.506   0.892   6.129 -1.2515  0.2068 -1.5559
 2519TIP3   OH228971   3.822   4.761   1.417  0.2836  0.8485 -0.2421
 2519TIP3    H128972   3.819   4.823   1.344 -0.7678 -0.5198 -1.4160
 2519TIP3    H228973   3.862   4.682   1.380  0.1220  0.2655  0.7811
 2520TIP3   OH228974   2.670   5.304  16.898 -0.1257 -0.1157  0.1210
 2520TIP3    H128975   2.678   5.312  16.993  2.9959 -1.5845  0.0897
 2520TIP3    H228976   2.679   5.393  16.865 -0.2718  0.2861  1.1304
 2521TIP3   OH228977   2.090   5.528  16.487  0.1905 -0.4255  0.6351
 2521TIP3    H128978   2.156   5.519  16.555  1.1854  0.3493 -0.2016
 2521TIP3    H228979   2.058   5.438  16.473  2.0129 -1.0361  0.1434
 2522TIP3   OH228980   2.859   3.422  11.597  0.4377 -0.0358 -0.3911
 2522TIP3    H128981   2.847   3.399  11.505  2.1580 -0.6579 -0.4975
 2522TIP3    H228982   2.930   3.486  11.597  0.5543 -0.1470  0.5096
 2523TIP3   OH228983   2.299   4.758   0.788  0.3583  0.2527 -0.0349
 2523TIP3    H128984   2.315   4.830   0.727  1.2744 -0.6102 -0.8555
 2523TIP3    H228985   2.299   4.799   0.874 -0.9098  1.4954 -0.5821
 2524TIP3   OH228986   1.710   0.303   4.424  0.0354 -0.0868  0.2980
 2524TIP3    H128987   1.722   0.210   4.402  0.0724  0.3203 -1.5382
 2524TIP3    H228988   1.620   0.308   4.456 -0.0814 -0.7122  0.0878
 2525TIP3   OH228989   5.317   5.200   0.166  0.5048  0.1220 -0.8426
 2525TIP3    H128990   5.246   5.151   0.125  0.6703  0.8693 -2.0896
 2525TIP3    H228991   5.390   5.195   0.104  1.8242 -1.2172  0.7277
 2526TIP3   OH228992   6.297   4.734   3.377  0.1939  0.2671 -0.0645
 2526TIP3    H128993   6.327   4.733   3.468  2.8718  1.1091 -0.8391
 2526TIP3    H228994   6.369   4.695   3.327 -0.2852  1.6780 -2.0063
 2527TIP3   OH228995   4.097   5.596  10.995 -0.0085 -0.1973  0.2125
 2527TIP3    H128996   4.088   5.530  10.926 -1.0169  0.7602 -0.6083
 2527TIP3    H228997   4.174   5.569  11.044  1.1788 -0.5203 -1.7234
 2528TIP3   OH228998   6.130   2.011  15.649  0.6198  0.9350 -0.2904
 2528TIP3    H128999   6.203   1.977  15.598  0.7655  1.2217 -0.2700
 2528TIP3    H229000   6.145   2.105  15.654 -1.6388  1.6434 -3.4107
 2529TIP3   OH229001   4.423   5.667  11.545 -0.5039 -0.2800 -0.1477
 2529TIP3    H129002   4.386   5.741  11.593  0.7777  0.6733 -0.5733
 2529TIP3    H229003   4.497   5.705  11.496 -0.5217 -1.6146 -1.2643
 2530TIP3   OH229004   3.788   3.041   4.289 -0.1204  0.8213 -0.3466
 2530TIP3    H129005   3.790   3.069   4.381 -0.5120  0.9415 -0.3702
 2530TIP3    H229006   3.694   3.041   4.267 -0.1397 -0.5658 -0.3342
 2531TIP3   OH229007   5.449   1.021   2.732  0.4703 -0.1711 -0.0168
 2531TIP3    H129008   5.379   1.028   2.668 -0.7028  0.6816  1.3081
 2531TIP3    H229009   5.444   0.930   2.764 -0.7188  0.1632  0.7937
 2532TIP3   OH229010   2.606   2.084  13.758 -0.0871 -0.2276  0.4080
 2532TIP3    H129011   2.659   2.161  13.736 -0.0972  0.3008  2.1106
 2532TIP3    H229012   2.669   2.021  13.792 -0.3130 -0.2316  0.8341
 2533TIP3   OH229013   3.423   5.297  13.471  0.1369  0.6932  0.0085
 2533TIP3    H129014   3.404   5.252  13.389  0.2002 -0.0205  0.3752
 2533TIP3    H229015   3.471   5.233  13.524 -0.4436  0.9215  0.8436
 2534TIP3   OH229016   4.407   5.006   5.242  0.2477  0.2661 -0.1177
 2534TIP3    H129017   4.464   4.956   5.301 -0.1293  0.2816  0.2557
 2534TIP3    H229018   4.324   4.960   5.244  0.4993 -0.2907 -1.3684
 2535TIP3   OH229019   1.941   0.729  11.616 -0.5045  0.1146  0.1429
 2535TIP3    H129020   1.896   0.751  11.697  1.1683 -1.1104  1.4962
 2535TIP3    H229021   1.882   0.669  11.570 -1.8186  1.4570  0.0264
 2536TIP3   OH229022   0.325   4.986  14.280 -0.2792 -0.4296  0.2712
 2536TIP3    H129023   0.251   4.994  14.340 -1.3965 -0.5471 -1.0313
 2536TIP3    H229024   0.296   5.033  14.201  2.6995  3.4086  1.1370
 2537TIP3   OH229025   0.207   5.680   2.259 -0.2519 -0.9374  0.3348
 2537TIP3    H129026   0.171   5.642   2.178  3.2659 -2.1760 -0.8434
 2537TIP3    H229027   0.239   5.766   2.233 -1.2253 -0.3394  1.0567
 2538TIP3   OH229028   5.987   4.896   2.098  0.5033 -0.2524 -0.1002
 2538TIP3    H129029   5.970   4.989   2.110 -0.6627 -0.4369 -0.2006
 2538TIP3    H229030   6.076   4.891   2.064  0.0985  0.9181 -1.4155
 2539TIP3   OH229031   0.526   2.915   5.460  0.2640  0.0709  0.3063
 2539TIP3    H129032   0.449   2.860   5.475  0.3354 -0.1310 -0.0381
 2539TIP3    H229033   0.524   2.979   5.531 -0.3888  0.2540  0.1326
 2540TIP3   OH229034   0.962   0.122   3.343 -0.2627  0.2541  0.4123
 2540TIP3    H129035   0.905   0.126   3.420 -0.5267 -1.5175  0.3456
 2540TIP3    H229036   0.901   0.110   3.269  0.1110 -0.3628  0.1950
 2541TIP3   OH229037   1.904   5.831   0.399 -0.3333 -0.4436 -0.1694
 2541TIP3    H129038   1.994   5.847   0.370 -0.3826 -0.4131 -0.3057
 2541TIP3    H229039   1.906   5.846   0.493 -0.6232  1.4027 -0.4330
 2542TIP3   OH229040   5.369   3.502  12.470  0.7327 -0.4994  0.4381
 2542TIP3    H129041   5.408   3.424  12.430 -0.0542 -0.2026 -1.0060
 2542TIP3    H229042   5.438   3.538  12.526  1.5016 -1.5830  0.2139
 2543TIP3   OH229043   4.953   1.139  11.180  0.1330  0.1007 -0.2627
 2543TIP3    H129044   4.902   1.059  11.173  0.9130 -0.3448 -1.0830
 2543TIP3    H229045   4.941   1.168  11.270 -1.6532  0.0925 -0.4714
 2544TIP3   OH229046   3.080   3.138   2.439  0.0344 -0.2423 -0.0990
 2544TIP3    H129047   3.134   3.093   2.503  0.6433 -1.7399 -1.5658
 2544TIP3    H229048   3.029   3.068   2.397 -0.3964  0.6759 -1.1851
 2545TIP3   OH229049   5.771   0.650  16.145  0.3511 -0.2144  0.0442
 2545TIP3    H129050   5.691   0.600  16.162  1.7276 -1.8345  2.3703
 2545TIP3    H229051   5.750   0.738  16.177 -0.5364 -0.6052  0.6052
 2546TIP3   OH229052   4.829   2.795   1.931  0.6052 -0.3095  0.0493
 2546TIP3    H129053   4.915   2.757   1.948  0.8359 -0.2465 -0.9358
 2546TIP3    H229054   4.784   2.730   1.878 -0.0233 -0.4073  0.6805
 2547TIP3   OH229055   1.953   2.438  14.089  0.0600 -0.0724  0.6080
 2547TIP3    H129056   1.915   2.451  14.176 -2.7947 -0.7679 -0.4412
 2547TIP3    H229057   1.941   2.344  14.072  0.7202  0.0246 -0.4991
 2548TIP3   OH229058   0.207   1.532   0.589  0.4020 -0.0572 -0.2501
 2548TIP3    H129059   0.188   1.592   0.517 -0.0173 -1.0877 -1.0327
 2548TIP3    H229060   0.143   1.554   0.657 -0.3950 -0.2461 -0.9218
 2549TIP3   OH229061   5.663   2.402   0.598  0.0301  0.0145  0.0383
 2549TIP3    H129062   5.614   2.454   0.534  0.3950  0.2700 -0.0315
 2549TIP3    H229063   5.752   2.436   0.594  0.5397 -1.3357 -0.7823
 2550TIP3   OH229064   4.541   4.866   4.385 -0.2047 -0.0007 -0.1977
 2550TIP3    H129065   4.522   4.821   4.302 -0.5327  0.7799 -0.5598
 2550TIP3    H229066   4.635   4.885   4.380 -0.0824 -0.5516 -0.0828
 2551TIP3   OH229067   0.713   3.009   0.010  0.4450 -0.3243  0.5475
 2551TIP3    H129068   0.754   3.032   0.093  1.8303  0.0247 -0.1957
 2551TIP3    H229069   0.630   2.969   0.034 -1.0875  3.3024  2.0035
 2552TIP3   OH229070   2.405   6.277  14.048  0.3583 -0.0295  0.3356
 2552TIP3    H129071   2.478   6.329  14.013 -0.0234  0.6301  0.4903
 2552TIP3    H229072   2.381   6.322  14.129 -0.5463  0.0565  0.0283
 2553TIP3   OH229073   4.620   2.107   1.155 -0.4647  0.2377  1.0974
 2553TIP3    H129074   4.563   2.155   1.215  1.0124  0.1494  2.6419
 2553TIP3    H229075   4.602   2.145   1.069 -3.4846 -0.4027  1.3164
 2554TIP3   OH229076   1.396   1.394  11.565  0.5130 -0.0770 -0.0217
 2554TIP3    H129077   1.473   1.422  11.514  2.4142 -2.2913  1.4259
 2554TIP3    H229078   1.330   1.374  11.499  0.4793  3.4596 -1.2655
 2555TIP3   OH229079   5.331   0.451  15.576  0.4088 -0.7250 -0.1860
 2555TIP3    H129080   5.398   0.392  15.541 -0.8152 -1.5922 -1.1402
 2555TIP3    H229081   5.261   0.393  15.607 -0.7019  0.1893 -0.8936
 2556TIP3   OH229082   5.498   5.976   5.185 -0.1445 -0.0948 -0.0268
 2556TIP3    H129083   5.557   5.982   5.110  0.5434 -1.2671  0.3929
 2556TIP3    H229084   5.487   6.066   5.215  0.6546  0.2410 -0.7084
 2557TIP3   OH229085   5.859   0.657  14.118 -0.3004 -0.4277 -0.1667
 2557TIP3    H129086   5.896   0.649  14.206  0.4814 -0.7018 -0.5053
 2557TIP3    H229087   5.784   0.598  14.119  0.2076 -1.0912  0.0673
 2558TIP3   OH229088   6.223   6.341  16.128 -0.8545  0.3765  0.1944
 2558TIP3    H129089   6.252   6.336  16.219 -1.6021 -0.6705  0.3937
 2558TIP3    H229090   6.220   6.250  16.098  0.6535  0.7606 -1.3072
 2559TIP3   OH229091   3.029   2.452   3.927  0.3553  0.1401 -0.5434
 2559TIP3    H129092   2.948   2.433   3.879 -1.1622  2.0342  1.1037
 2559TIP3    H229093   3.037   2.380   3.989 -1.3407  0.9960  0.7533
 2560TIP3   OH229094   1.250   3.580  12.560  0.2660  0.1295 -0.1122
 2560TIP3    H129095   1.231   3.553  12.650 -1.4864  1.8809  0.1129
 2560TIP3    H229096   1.346   3.577  12.554  0.3437 -1.8105  1.1810
 2561TIP3   OH229097   6.129   3.613   3.326 -0.5176  0.3039 -0.1326
 2561TIP3    H129098   6.065   3.542   3.328  0.4515 -0.7458 -2.6704
 2561TIP3    H229099   6.121   3.651   3.239 -0.4416  2.8631  0.8845
 2562TIP3   OH229100   5.799   0.889  13.485  0.0721 -0.0485  0.4802
 2562TIP3    H129101   5.823   0.932  13.568  0.5348 -0.9974  0.8600
 2562TIP3    H229102   5.868   0.915  13.424 -0.8636  1.5470  0.0638
 2563TIP3   OH229103   4.482   2.712  16.394  0.0629 -0.4839  0.9184
 2563TIP3    H129104   4.544   2.664  16.449  1.6762  1.0787  0.5689
 2563TIP3    H229105   4.514   2.699  16.305 -0.0429  0.4252  0.7395
 2564TIP3   OH229106   5.156   3.996   1.637  0.3298  0.4697 -0.2774
 2564TIP3    H129107   5.169   4.005   1.542  1.4055 -1.7733 -0.3951
 2564TIP3    H229108   5.096   3.922   1.646 -0.0394  0.8837  0.8211
 2565TIP3   OH229109   3.702   2.786   2.239  0.6339  0.3584 -0.6641
 2565TIP3    H129110   3.689   2.692   2.244  0.4356  0.3874 -0.6280
 2565TIP3    H229111   3.685   2.817   2.328 -0.8447  0.6229 -1.0197
 2566TIP3   OH229112   6.308   0.445  12.870 -0.2409 -0.5869 -0.0811
 2566TIP3    H129113   6.297   0.370  12.929 -1.0506 -0.0174  0.5172
 2566TIP3    H229114   6.393   0.482  12.893 -0.0169 -1.0850 -0.1020
 2567TIP3   OH229115   5.224   6.443  12.677  0.3692  0.7209  0.2571
 2567TIP3    H129116   5.139   6.403  12.657 -0.2439  2.2201 -0.2447
 2567TIP3    H229117   5.267   6.451  12.592  1.9013 -1.8205  0.6856
 2568TIP3   OH229118   4.884   0.547   2.507  0.0226  0.0749 -0.2813
 2568TIP3    H129119   4.949   0.595   2.559 -0.7811 -0.7778  1.6250
 2568TIP3    H229120   4.800   0.583   2.536 -0.5172 -1.4422  0.1286
 2569TIP3   OH229121   6.136   1.177  12.996 -0.2838 -0.8289  0.1367
 2569TIP3    H129122   6.129   1.256  12.943 -1.3825 -0.5691  0.6414
 2569TIP3    H229123   6.230   1.155  12.995  0.2577  1.2666  1.1505
 2570TIP3   OH229124   1.342   2.461  15.943 -0.0888  0.5567 -0.1440
 2570TIP3    H129125   1.337   2.380  15.893  0.8541  0.6219 -0.3570
 2570TIP3    H229126   1.251   2.480  15.967 -0.1967 -1.2665  1.0842
 2571TIP3   OH229127   1.574   6.123  11.461  0.2190  0.7608  0.1958
 2571TIP3    H129128   1.557   6.115  11.367 -0.6225  1.2644  0.2980
 2571TIP3    H229129   1.591   6.033  11.490  0.3306  0.5836 -0.4048
 2572TIP3   OH229130   4.892   2.421  12.362 -0.3957 -0.0932  0.2296
 2572TIP3    H129131   4.947   2.447  12.288 -1.1962 -0.2457 -0.4350
 2572TIP3    H229132   4.853   2.338  12.334 -0.2462 -0.4514  1.0680
 2573TIP3   OH229133   0.029   1.810   6.042 -0.1089 -0.7129  0.0391
 2573TIP3    H129134   0.115   1.848   6.059 -0.2895 -0.9681  1.6843
 2573TIP3    H229135  -0.026   1.885   6.021  0.3943 -0.4969 -0.5464
 2574TIP3   OH229136   5.881   1.132  16.807 -0.1953  0.0101 -0.3233
 2574TIP3    H129137   5.882   1.037  16.806 -0.2819 -0.0272  0.9719
 2574TIP3    H229138   5.959   1.157  16.857 -0.7444  0.5677  0.2910
 2575TIP3   OH229139   3.723   3.989   0.265 -0.2964  0.1996  0.0311
 2575TIP3    H129140   3.722   3.897   0.293 -0.0789  0.4017  0.7092
 2575TIP3    H229141   3.630   4.009   0.251 -0.3549 -0.0984 -0.0258
 2576TIP3   OH229142   5.468   0.981   4.250  0.3585 -0.6012 -0.0681
 2576TIP3    H129143   5.475   1.076   4.265 -1.1755 -0.6826  1.5066
 2576TIP3    H229144   5.383   0.970   4.207 -0.4603 -1.3810  1.6267
 2577TIP3   OH229145   5.974   0.598   5.369  0.2349  0.3912  0.1041
 2577TIP3    H129146   5.964   0.636   5.456  0.6028 -0.2505  0.4386
 2577TIP3    H229147   5.938   0.509   5.377  0.6892  0.1669 -0.2679
 2578TIP3   OH229148   3.892   6.128  15.326 -0.4136  0.1952 -0.1680
 2578TIP3    H129149   3.884   6.035  15.345  1.4198 -0.1615 -0.8601
 2578TIP3    H229150   3.908   6.132  15.231  0.5072  1.1070 -0.0044
 2579TIP3   OH229151   5.883   3.220   4.091  0.3610 -0.2787  0.0751
 2579TIP3    H129152   5.909   3.144   4.039 -0.5608 -0.4826 -0.1120
 2579TIP3    H229153   5.940   3.291   4.060 -0.2167 -0.3811 -1.2809
 2580TIP3   OH229154   5.554   6.754  10.678  0.3748 -0.0966 -0.1335
 2580TIP3    H129155   5.506   6.672  10.691  0.7800 -0.0780  1.8119
 2580TIP3    H229156   5.521   6.812  10.747  0.8218  1.0556 -0.8506
 2581TIP3   OH229157   6.423   2.569  10.928 -0.6359  0.2508 -0.0494
 2581TIP3    H129158   6.383   2.642  10.976 -0.3435  0.9080 -0.7836
 2581TIP3    H229159   6.482   2.611  10.866  0.9809 -0.6644  0.7817
 2582TIP3   OH229160   0.839   5.898   4.919 -0.0004  0.5039  0.4796
 2582TIP3    H129161   0.856   5.818   4.870  0.6319  0.8057  0.1881
 2582TIP3    H229162   0.798   5.868   5.000 -3.4582  0.1477 -1.2124
 2583TIP3   OH229163   1.725   3.364   2.594 -0.1972  0.8126  0.1131
 2583TIP3    H129164   1.644   3.334   2.554  1.4528 -0.6007 -2.4493
 2583TIP3    H229165   1.742   3.300   2.664 -0.9806  0.7946  0.2993
 2584TIP3   OH229166   0.376   0.139  15.194 -0.0174 -0.5665  0.0358
 2584TIP3    H129167   0.363   0.155  15.100  2.2007 -2.2168 -0.6325
 2584TIP3    H229168   0.461   0.179  15.213 -0.9080  0.6955  1.6688
 2585TIP3   OH229169   3.176   2.124  13.477 -0.1125  0.3188 -0.1169
 2585TIP3    H129170   3.222   2.194  13.523  1.6804 -2.4577  2.7845
 2585TIP3    H229171   3.091   2.119  13.520 -0.2313  0.6681 -0.3070
 2586TIP3   OH229172   0.629   2.579  12.591 -0.2034 -0.4438 -0.0963
 2586TIP3    H129173   0.626   2.673  12.577 -1.4433 -0.4033  0.2747
 2586TIP3    H229174   0.689   2.566  12.665 -0.7479  0.1402  0.4557
 2587TIP3   OH229175   3.818   2.092   3.345 -0.9602  0.5164  0.0712
 2587TIP3    H129176   3.779   2.031   3.282 -1.7390  0.5097  0.5533
 2587TIP3    H229177   3.833   2.172   3.293  1.2284 -0.4360 -0.8869
 2588TIP3   OH229178   5.801   5.682   3.619  0.4114 -0.2227 -0.7362
 2588TIP3    H129179   5.878   5.737   3.633  1.0740 -0.7375 -2.0818
 2588TIP3    H229180   5.728   5.734   3.651  0.9957  1.5046 -2.0088
 2589TIP3   OH229181   2.462   2.045   2.849 -0.5638  0.1172 -0.3756
 2589TIP3    H129182   2.488   1.956   2.823 -1.0421  0.4533 -2.1889
 2589TIP3    H229183   2.374   2.055   2.813 -0.6293  1.2312  0.0680
 2590TIP3   OH229184   4.701   6.139  13.167 -0.5988 -0.0733  0.1508
 2590TIP3    H129185   4.774   6.079  13.147 -0.1265  0.9070 -1.2386
 2590TIP3    H229186   4.726   6.180  13.249  1.5623  1.8351 -1.3238
 2591TIP3   OH229187   3.113   2.477   3.168 -0.1413 -0.5585 -0.6027
 2591TIP3    H129188   3.170   2.450   3.240 -1.0482 -0.8112  0.0397
 2591TIP3    H229189   3.152   2.559   3.137 -0.1922  0.0104  0.7398
 2592TIP3   OH229190   0.017   0.254   1.898 -0.2152  0.3310  0.2314
 2592TIP3    H129191  -0.004   0.161   1.900 -1.1640  0.5306  1.9434
 2592TIP3    H229192   0.097   0.262   1.950 -0.0382  0.4555 -0.0571
 2593TIP3   OH229193   5.806   2.382  14.568 -0.2363  0.0735  0.5372
 2593TIP3    H129194   5.745   2.445  14.608  0.1543  0.3456  0.7059
 2593TIP3    H229195   5.826   2.320  14.638 -0.2245  0.0516  0.5142
 2594TIP3   OH229196   4.627   0.554   4.981  0.3521  0.2251  0.4090
 2594TIP3    H129197   4.585   0.546   4.896 -0.2374 -1.0055  0.7919
 2594TIP3    H229198   4.611   0.645   5.008  0.3286  0.5483 -0.6629
 2595TIP3   OH229199   1.922   3.025  13.562 -0.3092  0.0626 -0.1527
 2595TIP3    H129200   1.876   3.026  13.646  0.2292  0.5065  0.1499
 2595TIP3    H229201   1.951   3.116  13.550  0.8744 -0.2845 -0.0961
 2596TIP3   OH229202   1.528   5.671  13.100 -0.3767  0.1694 -0.3169
 2596TIP3    H129203   1.480   5.601  13.055  0.2931 -0.7098  0.3119
 2596TIP3    H229204   1.618   5.661  13.070  0.2504 -0.9266  1.7323
 2597TIP3   OH229205   3.540   3.162   5.634 -0.0700  0.1358 -0.0266
 2597TIP3    H129206   3.521   3.249   5.599 -1.6256 -1.1309 -2.6672
 2597TIP3    H229207   3.457   3.131   5.670  0.0691 -0.8089 -0.4776
 2598TIP3   OH229208   3.969   0.803   0.842 -1.0164 -0.4229 -0.5702
 2598TIP3    H129209   3.922   0.844   0.914 -0.5790  0.4117 -0.7500
 2598TIP3    H229210   3.970   0.869   0.772  1.0763 -0.1056 -0.2943
 2599TIP3   OH229211   4.813   2.940   2.173 -0.1227 -0.4731  0.1978
 2599TIP3    H129212   4.793   2.911   2.084  1.4785 -0.0315 -0.3348
 2599TIP3    H229213   4.745   2.900   2.227 -0.8325 -1.1552 -1.1545
 2600TIP3   OH229214   5.493   6.113   4.145  0.0171 -0.1120 -0.0176
 2600TIP3    H129215   5.497   6.083   4.054  1.7881  1.9121 -0.6983
 2600TIP3    H229216   5.409   6.158   4.152  0.3965  0.8107 -1.0739
 2601TIP3   OH229217   2.379   4.769  15.429  0.3939  0.0141 -0.2345
 2601TIP3    H129218   2.408   4.839  15.487 -0.7578  0.7253 -0.4915
 2601TIP3    H229219   2.350   4.813  15.349 -0.5460 -0.7158 -0.3247
 2602TIP3   OH229220   4.639   1.364   3.717  0.6197  0.2425 -0.3965
 2602TIP3    H129221   4.714   1.403   3.763  1.3600 -1.1658 -0.3647
 2602TIP3    H229222   4.573   1.350   3.785  0.9682 -0.0444 -0.1161
 2603TIP3   OH229223   4.139   1.981   0.069 -0.6095 -0.2712  0.3152
 2603TIP3    H129224   4.211   2.045   0.077  0.6555 -1.4755 -0.9779
 2603TIP3    H229225   4.099   2.000  -0.015 -1.8760  0.4067  1.0395
 2604TIP3   OH229226   2.815   5.156   2.618 -0.8322  0.5929  0.3176
 2604TIP3    H129227   2.834   5.198   2.702 -0.9267 -1.2300  1.2935
 2604TIP3    H229228   2.780   5.070   2.642  0.4645 -0.5218 -1.6060
 2605TIP3   OH229229   5.343   2.995  15.490  0.1220 -0.2735 -0.0875
 2605TIP3    H129230   5.266   3.028  15.536 -0.4132 -1.8902  0.2365
 2605TIP3    H229231   5.309   2.958  15.409  0.9614  1.7567 -1.4639
 2606TIP3   OH229232   1.665   3.280   0.677 -0.1721  0.1111 -0.0636
 2606TIP3    H129233   1.616   3.200   0.696  0.3190 -0.4085 -0.8887
 2606TIP3    H229234   1.740   3.250   0.625  0.6586  0.9660  0.6018
 2607TIP3   OH229235   6.116   1.281   3.538 -0.2316 -0.4454 -0.1928
 2607TIP3    H129236   6.101   1.201   3.488 -4.6107  0.1292 -0.2605
 2607TIP3    H229237   6.133   1.348   3.472  0.1171 -0.7338 -0.3971
 2608TIP3   OH229238   0.121   5.931   5.380 -0.4871 -0.3115  0.1919
 2608TIP3    H129239   0.074   5.873   5.321  0.2546  0.7395 -1.4865
 2608TIP3    H229240   0.070   5.930   5.461 -0.5152 -3.2555  0.2299
 2609TIP3   OH229241   2.020   1.930  11.982  0.0269  0.9080 -0.2958
 2609TIP3    H129242   2.105   1.924  11.939  0.0449  0.2882 -0.1805
 2609TIP3    H229243   1.977   1.848  11.961  0.2089  0.4005  1.2125
 2610TIP3   OH229244   5.566   2.715  14.027  0.1599 -1.0556 -0.1694
 2610TIP3    H129245   5.491   2.758  14.069  0.0892 -0.4219 -0.9114
 2610TIP3    H229246   5.603   2.783  13.971  1.0486 -1.4884 -0.1145
 2611TIP3   OH229247   5.502   6.305  16.700  0.7505  0.1077  0.1152
 2611TIP3    H129248   5.515   6.393  16.665  1.4196  0.4102  1.0864
 2611TIP3    H229249   5.497   6.317  16.795 -1.6298 -0.6193  0.1354
 2612TIP3   OH229250   3.596   3.757   3.115  0.1707  0.1101  0.4847
 2612TIP3    H129251   3.679   3.758   3.068  0.4755  0.0349  1.0163
 2612TIP3    H229252   3.533   3.797   3.055  0.8772  1.4648  0.6071
 2613TIP3   OH229253   4.801   1.270  15.276  0.0992 -0.5648 -0.0216
 2613TIP3    H129254   4.727   1.325  15.304  2.5918  1.6032  3.1152
 2613TIP3    H229255   4.828   1.308  15.192 -0.2407  0.9294  0.5108
 2614TIP3   OH229256   6.452   5.653   1.343 -0.5781  0.2945 -0.4801
 2614TIP3    H129257   6.387   5.608   1.289 -0.3870 -2.4047  1.3292
 2614TIP3    H229258   6.448   5.607   1.427  2.2907  1.3211  0.3199
 2615TIP3   OH229259   5.103   0.299   4.336 -0.3633 -0.1447  1.0162
 2615TIP3    H129260   5.174   0.340   4.386  0.6899 -0.5112 -0.1414
 2615TIP3    H229261   5.109   0.206   4.357  0.5676 -0.4081 -0.3465
 2616TIP3   OH229262   3.546   2.362   4.928  0.1645  0.1039  0.3979
 2616TIP3    H129263   3.605   2.360   4.853 -0.5026 -2.4920 -0.1749
 2616TIP3    H229264   3.459   2.348   4.891 -0.3781  0.4322  1.5151
 2617TIP3   OH229265   5.347   4.613   3.502  0.1706  0.4300 -0.0172
 2617TIP3    H129266   5.262   4.642   3.537  0.8395 -0.3594  2.4722
 2617TIP3    H229267   5.408   4.624   3.576  2.0716  0.1485 -1.4744
 2618TIP3   OH229268   2.456   2.593   1.454  0.5055  0.2433 -0.1094
 2618TIP3    H129269   2.492   2.639   1.378  0.6528 -1.4513 -1.1163
 2618TIP3    H229270   2.363   2.617   1.455  1.0453  2.6107  0.9887
 2619TIP3   OH229271   1.102   6.665   3.699 -0.0600  0.3903 -0.1634
 2619TIP3    H129272   1.173   6.611   3.735 -1.0374 -1.2849 -0.6624
 2619TIP3    H229273   1.145   6.747   3.675  1.3700  0.0880  1.1502
 2620TIP3   OH229274   6.079   5.317  12.838 -0.1206  0.7393 -0.3076
 2620TIP3    H129275   6.085   5.248  12.904  2.1730  0.0876 -1.1122
 2620TIP3    H229276   6.023   5.384  12.878  0.1203 -0.2159  1.7456
 2621TIP3   OH229277   6.555   3.927   4.885  0.0784  0.2041  0.2983
 2621TIP3    H129278   6.634   3.980   4.883 -0.3102  0.8000  0.5990
 2621TIP3    H229279   6.576   3.851   4.829  1.2247 -0.1789  1.2093
 2622TIP3   OH229280   0.226   6.394   6.171  0.2845 -0.7164 -0.4687
 2622TIP3    H129281   0.314   6.366   6.145  0.6137 -0.5897  0.4796
 2622TIP3    H229282   0.227   6.489   6.160  0.2428 -0.7230 -0.5304
 2623TIP3   OH229283   1.368   6.577  11.242 -0.1237  0.0573  0.2411
 2623TIP3    H129284   1.361   6.546  11.333 -1.0222  0.4507  0.3092
 2623TIP3    H229285   1.279   6.571  11.207 -0.3154  2.3178  0.1771
 2624TIP3   OH229286   0.295   1.615   5.743  0.1618 -0.0140  0.1655
 2624TIP3    H129287   0.318   1.676   5.813  0.3095  0.7205 -0.5096
 2624TIP3    H229288   0.260   1.538   5.789  0.8470  0.1969  1.0651
 2625TIP3   OH229289   5.149   0.855   5.124 -1.1067  0.0908  0.2369
 2625TIP3    H129290   5.181   0.799   5.194 -1.7960 -0.3214  0.2318
 2625TIP3    H229291   5.061   0.823   5.105 -1.1239  0.5192 -0.4714
 2626TIP3   OH229292   4.379   3.281   1.718 -0.1528 -0.0967  0.0659
 2626TIP3    H129293   4.407   3.216   1.782  1.5667  0.7637  0.2551
 2626TIP3    H229294   4.291   3.253   1.692 -0.0642 -1.6201  1.2508
 2627TIP3   OH229295   5.040   5.819   2.590  0.2192  0.1200 -0.0121
 2627TIP3    H129296   4.983   5.849   2.519  0.5008 -0.1365 -0.3501
 2627TIP3    H229297   4.996   5.742   2.626  0.8816 -0.7584 -1.0044
 2628TIP3   OH229298   2.703   4.979   3.254 -0.1862  0.1020  0.6431
 2628TIP3    H129299   2.777   4.981   3.193 -0.8878  0.0331 -0.2396
 2628TIP3    H229300   2.643   5.046   3.220 -2.7269 -3.0003 -1.5943
 2629TIP3   OH229301   0.092   1.784   3.940  0.4178 -0.8497  0.5871
 2629TIP3    H129302   0.024   1.720   3.962 -0.3635 -0.4381 -0.5512
 2629TIP3    H229303   0.171   1.732   3.928 -0.0042 -1.4985  0.5608
 2630TIP3   OH229304   6.231   6.129  15.912  0.6149  0.4091  0.1618
 2630TIP3    H129305   6.301   6.165  15.857  1.3839 -1.6903 -0.3530
 2630TIP3    H229306   6.150   6.152  15.865  1.1606  0.1147 -0.9780
 2631TIP3   OH229307   2.316   5.663  16.140 -0.2681  0.2483  0.2189
 2631TIP3    H129308   2.257   5.732  16.170 -0.9422  0.6343 -1.8291
 2631TIP3    H229309   2.269   5.622  16.067  2.3958  1.2913 -2.2590
 2632TIP3   OH229310   3.164   6.653   2.321  0.8229 -0.3018  0.4734
 2632TIP3    H129311   3.166   6.749   2.316  0.3098 -0.2354  1.2651
 2632TIP3    H229312   3.168   6.624   2.230 -0.2963  0.5103  0.1369
 2633TIP3   OH229313   5.984   0.395  15.122 -0.1914 -0.1520  0.0463
 2633TIP3    H129314   6.015   0.304  15.116  0.1168 -0.0044 -0.7004
 2633TIP3    H229315   6.060   0.448  15.097  0.1358  0.4057  2.0316
 2634TIP3   OH229316   5.490   0.095   3.042  0.5262 -0.8532 -0.5414
 2634TIP3    H129317   5.538   0.014   3.062  0.5450 -1.2223 -1.9639
 2634TIP3    H229318   5.527   0.125   2.959 -0.4046 -0.1025 -0.7042
 2635TIP3   OH229319   5.445   5.159   0.886  0.0497 -0.1610 -0.2294
 2635TIP3    H129320   5.498   5.082   0.867  1.7326  0.6814  0.8383
 2635TIP3    H229321   5.442   5.207   0.803  1.2636 -0.0713 -0.2422
 2636TIP3   OH229322   1.011   2.059  11.929 -0.1239  0.5094 -0.0328
 2636TIP3    H129323   0.943   2.009  11.885  0.1022  0.7583 -0.6688
 2636TIP3    H229324   1.093   2.017  11.903 -0.0575 -0.4400  1.5415
 2637TIP3   OH229325   4.229   0.769   4.212  0.3825  0.3883 -0.0568
 2637TIP3    H129326   4.257   0.773   4.304 -1.1561 -1.8424  0.6030
 2637TIP3    H229327   4.305   0.737   4.165  1.0095  0.9612  0.5439
 2638TIP3   OH229328   1.760   2.136  12.375 -0.4922  0.3894  0.9974
 2638TIP3    H129329   1.760   2.058  12.319 -1.6704  0.9458  0.1881
 2638TIP3    H229330   1.676   2.133  12.421  0.2479  0.2111  2.3819
 2639TIP3   OH229331   4.612   1.113   0.960 -0.1027  0.1462 -0.3046
 2639TIP3    H129332   4.694   1.111   0.912 -0.6929 -0.8681 -1.3364
 2639TIP3    H229333   4.628   1.061   1.039  1.0002  2.1725  0.8769
 2640TIP3   OH229334   5.063   2.982  16.310 -0.0061  0.1959 -0.3167
 2640TIP3    H129335   5.069   3.072  16.343  0.8424  0.9721 -2.3953
 2640TIP3    H229336   5.154   2.952  16.305 -0.3054 -1.0201  0.8425
 2641TIP3   OH229337   5.804   2.798  11.479 -0.5644 -0.1559  0.0420
 2641TIP3    H129338   5.871   2.864  11.467  0.3152 -1.2196 -1.1926
 2641TIP3    H229339   5.841   2.718  11.441 -2.4272 -0.8433 -0.4857
 2642TIP3   OH229340   5.428   2.716  12.107  0.2748  0.2675  0.1971
 2642TIP3    H129341   5.514   2.676  12.125  0.7637  1.3244  0.2676
 2642TIP3    H229342   5.384   2.652  12.051  1.0969 -0.3071  0.1807
 2643TIP3   OH229343   2.833   4.798  14.047  0.0210  0.5138 -0.0198
 2643TIP3    H129344   2.927   4.786  14.031 -0.1801 -0.6658 -0.3825
 2643TIP3    H229345   2.820   4.772  14.138 -0.0697  0.0257 -0.1738
 2644TIP3   OH229346   6.290   5.011   4.745 -0.0724 -0.0292 -0.5525
 2644TIP3    H129347   6.223   4.942   4.745  0.0350 -0.1336 -0.5074
 2644TIP3    H229348   6.290   5.045   4.834  0.9205 -0.9940 -0.1635
 2645TIP3   OH229349   1.888   1.154   2.432  0.0864  0.2783  0.1982
 2645TIP3    H129350   1.824   1.101   2.385 -0.4790  1.4933 -0.4443
 2645TIP3    H229351   1.953   1.177   2.365  1.0417 -0.6609  0.7682
 2646TIP3   OH229352   5.198   1.276   0.805  0.3525  0.0566 -0.4168
 2646TIP3    H129353   5.173   1.300   0.715 -1.8896  1.7529  0.5425
 2646TIP3    H229354   5.219   1.360   0.847 -0.3570 -0.4742  1.0810
 2647TIP3   OH229355   6.252   3.479  13.598 -0.3030  0.7309  0.1253
 2647TIP3    H129356   6.326   3.421  13.580  0.1589  1.8349 -1.9002
 2647TIP3    H229357   6.184   3.451  13.537  0.2198  2.7230 -1.5186
 2648TIP3   OH229358   4.855   3.467  13.616  0.3080  0.2967 -0.1729
 2648TIP3    H129359   4.917   3.467  13.689 -0.0260  4.1689  0.3256
 2648TIP3    H229360   4.793   3.537  13.637 -2.8901 -1.7990 -1.8095
 2649TIP3   OH229361   3.889   3.853   0.579  0.5090  0.2550 -0.3025
 2649TIP3    H129362   3.901   3.758   0.577 -1.5815 -0.0409 -1.1506
 2649TIP3    H229363   3.800   3.865   0.612  0.6215  1.9115 -0.5290
 2650TIP3   OH229364   4.810   0.496  16.999 -0.1120 -0.0165  0.1068
 2650TIP3    H129365   4.828   0.469  16.910 -1.4666  1.2598 -0.6042
 2650TIP3    H229366   4.741   0.437  17.029 -0.2855  0.1249 -0.0148
 2651TIP3   OH229367   4.344   0.396   1.178  0.3877 -0.4857 -0.0420
 2651TIP3    H129368   4.425   0.445   1.183 -0.4268  0.9109 -0.0300
 2651TIP3    H229369   4.281   0.457   1.141 -0.5014 -1.7571 -0.6983
 2652TIP3   OH229370   3.579   5.975  16.340 -0.0117 -0.1785  0.5395
 2652TIP3    H129371   3.581   6.060  16.383  1.0453  0.6272 -1.0225
 2652TIP3    H229372   3.671   5.953  16.325 -0.3382 -0.6899 -0.7948
 2653TIP3   OH229373   0.315   4.214   4.052  0.9922 -0.3982  1.3593
 2653TIP3    H129374   0.324   4.293   4.104  0.5965  0.0595  0.7499
 2653TIP3    H229375   0.293   4.145   4.115 -0.0387  0.2555  1.7391
 2654TIP3   OH229376   2.819   1.896  16.626  0.4094 -0.0645 -0.1478
 2654TIP3    H129377   2.756   1.827  16.604 -0.2743 -0.1368  1.9037
 2654TIP3    H229378   2.768   1.977  16.621  0.4826  0.0067  0.2591
 2655TIP3   OH229379   0.982   1.973   3.687  0.0826 -0.2744 -0.3887
 2655TIP3    H129380   0.902   1.990   3.737 -0.7551 -1.5494 -1.2402
 2655TIP3    H229381   0.956   1.986   3.595  0.6097 -1.5169 -0.7301
 2656TIP3   OH229382   1.570   2.608   2.674  0.8800 -0.7888  0.0721
 2656TIP3    H129383   1.602   2.697   2.659  1.9826 -1.0314  0.8553
 2656TIP3    H229384   1.553   2.573   2.586  0.5476  0.1489 -0.2459
 2657TIP3   OH229385   6.766   1.079  13.850  0.3947  0.0883  0.8090
 2657TIP3    H129386   6.715   1.001  13.829  0.1046 -0.3563  2.9408
 2657TIP3    H229387   6.703   1.151  13.848 -0.3688 -0.4211  3.1785
 2658TIP3   OH229388   3.623   6.731  11.930  0.6501 -0.3140  0.3678
 2658TIP3    H129389   3.698   6.790  11.932  0.9708 -0.4920 -2.6575
 2658TIP3    H229390   3.559   6.775  11.875 -0.8013 -0.9618  1.4717
 2659TIP3   OH229391   5.897   4.719   4.612 -0.1865 -0.1442 -1.0566
 2659TIP3    H129392   5.980   4.738   4.656  1.5704  1.1047 -4.5295
 2659TIP3    H229393   5.876   4.630   4.640  1.1415  0.2410  1.5550
 2660TIP3   OH229394   5.435   0.570   0.613  0.2604  0.0385 -0.1122
 2660TIP3    H129395   5.434   0.578   0.709  3.0710  0.4151 -0.0183
 2660TIP3    H229396   5.397   0.652   0.582  0.2288  0.3434  0.6969
 2661TIP3   OH229397   5.050   2.335  15.825 -0.2312 -0.0437  0.2134
 2661TIP3    H129398   5.127   2.288  15.793 -1.3040 -0.8048 -1.4295
 2661TIP3    H229399   5.070   2.427  15.810 -0.2619 -0.3143 -1.8566
 2662TIP3   OH229400   4.797   2.089   4.119 -0.2594 -0.2002  0.4933
 2662TIP3    H129401   4.706   2.088   4.090  0.4892  1.0550 -2.2402
 2662TIP3    H229402   4.824   2.180   4.111  1.5461 -0.7255  0.0989
 2663TIP3   OH229403   3.247   0.208  15.240  0.3018 -0.2901  0.5835
 2663TIP3    H129404   3.296   0.125  15.240  0.2190 -0.3725  2.0435
 2663TIP3    H229405   3.253   0.240  15.150  1.0592 -1.4620  0.1968
 2664TIP3   OH229406   2.844   5.629  14.224  0.4895 -0.2353  0.6744
 2664TIP3    H129407   2.821   5.684  14.149  0.0399 -1.0161  0.2290
 2664TIP3    H229408   2.764   5.626  14.277  0.7559  0.1807  1.1213
 2665TIP3   OH229409   0.907   4.754  13.558 -0.4116 -0.0899 -0.4659
 2665TIP3    H129410   0.875   4.782  13.473 -1.9796 -1.0685 -0.2307
 2665TIP3    H229411   0.833   4.768  13.618 -0.4030 -2.2723  0.1265
 2666TIP3   OH229412   5.862   3.328  10.908  0.3866 -0.4100 -0.0194
 2666TIP3    H129413   5.814   3.322  10.826  1.1944 -0.3043 -0.5112
 2666TIP3    H229414   5.937   3.268  10.897  0.7675 -0.0288  0.4445
 2667TIP3   OH229415   4.575   3.774   4.398  0.3000 -0.1726 -0.0997
 2667TIP3    H129416   4.582   3.679   4.391  0.2157 -0.2144  0.3272
 2667TIP3    H229417   4.576   3.806   4.308  1.1574 -0.5158 -0.2211
 2668TIP3   OH229418   2.169   1.092   0.302  0.0633  0.3726  0.3958
 2668TIP3    H129419   2.190   1.068   0.392 -0.3389 -0.5416  0.2492
 2668TIP3    H229420   2.238   1.154   0.278 -0.8030  2.0180  1.9153
 2669TIP3   OH229421   2.666   1.551  14.829 -0.1653 -0.2026 -0.5661
 2669TIP3    H129422   2.662   1.484  14.761 -0.9620 -0.5631 -0.1772
 2669TIP3    H229423   2.734   1.520  14.889  1.5970  0.8442 -1.9211
 2670TIP3   OH229424   1.080   0.159   4.979 -0.3325  0.0823 -0.4027
 2670TIP3    H129425   1.121   0.090   4.927 -2.7411 -1.4333 -0.4773
 2670TIP3    H229426   1.052   0.114   5.060  0.5632  1.6630  0.8369
 2671TIP3   OH229427   5.918   0.393   3.887 -0.1347  0.9937  0.2126
 2671TIP3    H129428   5.984   0.460   3.906  0.8093  0.1656 -0.0675
 2671TIP3    H229429   5.911   0.342   3.967  2.0412 -0.9657 -0.7269
 2672TIP3   OH229430   4.825   1.621  16.877 -0.3068  0.3177  0.1516
 2672TIP3    H129431   4.761   1.589  16.940 -0.3304  0.3713  0.1545
 2672TIP3    H229432   4.904   1.635  16.930  1.0903 -3.7596 -0.4708
 2673TIP3   OH229433   0.291   3.705   1.196  0.0001  0.2471 -0.7658
 2673TIP3    H129434   0.349   3.737   1.127  0.4585 -0.1913 -0.5943
 2673TIP3    H229435   0.211   3.755   1.185  0.0941  0.2380 -1.5727
 2674TIP3   OH229436   4.354   5.890  13.934 -0.1242 -0.9109  0.0417
 2674TIP3    H129437   4.401   5.812  13.962 -0.4547 -1.4302 -0.8125
 2674TIP3    H229438   4.364   5.891  13.839  0.3456  0.3954  0.0851
 2675TIP3   OH229439   1.700   6.280  14.186  0.0667  0.0829 -0.3061
 2675TIP3    H129440   1.664   6.244  14.105 -0.0329  1.2137 -0.7708
 2675TIP3    H229441   1.659   6.366  14.195 -0.9032 -0.5094  1.6070
 2676TIP3   OH229442   2.748   3.675   2.640 -0.1119 -0.0632 -0.0118
 2676TIP3    H129443   2.753   3.675   2.544  0.0140  1.2880 -0.0161
 2676TIP3    H229444   2.792   3.755   2.666 -1.3494  0.2712  1.1192
 2677TIP3   OH229445   4.597   2.982  16.162 -0.3195  0.4895 -0.1052
 2677TIP3    H129446   4.562   2.893  16.169 -0.0472  0.4161  0.3103
 2677TIP3    H229447   4.521   3.034  16.134 -0.3894  0.0691 -0.7389
 2678TIP3   OH229448   4.586   2.540   0.416  0.2934  0.0902 -0.4150
 2678TIP3    H129449   4.543   2.531   0.501  1.8444 -1.3450  0.2673
 2678TIP3    H229450   4.629   2.625   0.419  0.6212 -0.1012  0.3780
 2679TIP3   OH229451   4.152   5.794   3.896 -0.5734 -0.2927 -0.3275
 2679TIP3    H129452   4.213   5.777   3.824 -0.8472 -1.0459 -0.3886
 2679TIP3    H229453   4.096   5.864   3.864  0.4969  0.6921 -0.1234
 2680TIP3   OH229454   2.713   4.865   2.449 -0.1811 -0.0486 -0.2262
 2680TIP3    H129455   2.710   4.957   2.421  1.9819  0.5012  1.0555
 2680TIP3    H229456   2.716   4.870   2.545  1.3552 -1.3380 -0.1685
 2681TIP3   OH229457   0.028   1.071  12.832  0.3362  0.1002 -0.5208
 2681TIP3    H129458   0.024   0.976  12.821 -0.0545 -0.2331  1.9140
 2681TIP3    H229459  -0.031   1.106  12.765 -0.0416 -1.4072 -1.0090
 2682TIP3   OH229460   6.777   4.822  13.173 -0.3514 -0.1688 -0.3879
 2682TIP3    H129461   6.738   4.760  13.235 -0.6383 -1.0970 -1.4628
 2682TIP3    H229462   6.815   4.890  13.228 -1.6155 -0.3553  0.7781
 2683TIP3   OH229463   4.086   1.654   6.301  0.2166  0.4064 -0.0682
 2683TIP3    H129464   4.175   1.662   6.337  0.1539 -0.9509  0.4501
 2683TIP3    H229465   4.096   1.671   6.207  0.8350  1.3614  0.1644
 2684TIP3   OH229466   3.557   6.151  12.076  0.3307 -0.0585 -0.0987
 2684TIP3    H129467   3.611   6.150  11.996 -0.0392  2.0854 -0.4487
 2684TIP3    H229468   3.577   6.235  12.117  0.1532 -0.9182  1.8561
 2685TIP3   OH229469   1.334   6.413  16.635 -0.5451 -0.5556 -0.0569
 2685TIP3    H129470   1.425   6.439  16.620 -0.2719 -1.5087 -0.1351
 2685TIP3    H229471   1.336   6.362  16.716 -1.4655  1.6795  1.4573
 2686TIP3   OH229472   0.188   1.072  16.834 -0.0308 -0.3228 -0.6139
 2686TIP3    H129473   0.160   1.016  16.761 -2.5322  1.4654 -1.1606
 2686TIP3    H229474   0.196   1.013  16.908 -2.5079 -1.4815 -1.1830
 2687TIP3   OH229475   6.788   0.238  16.301  0.0120 -0.0984 -0.4341
 2687TIP3    H129476   6.784   0.149  16.337 -1.4195  0.3604  0.6403
 2687TIP3    H229477   6.701   0.274  16.315 -0.0014  0.8652 -2.5518
 2688TIP3   OH229478   4.806   6.442  16.155 -0.0775  0.5327 -0.4952
 2688TIP3    H129479   4.884   6.484  16.192 -1.0682  2.4104 -0.4009
 2688TIP3    H229480   4.801   6.357  16.198  0.9015  1.1336  0.8657
 2689TIP3   OH229481   6.683   1.132   1.144 -0.0756 -0.1411  0.4104
 2689TIP3    H129482   6.664   1.044   1.178  1.5996 -0.3911  0.7864
 2689TIP3    H229483   6.694   1.120   1.050  0.1439 -0.3487  0.4607
 2690TIP3   OH229484   3.216   4.006  16.747  0.7332  0.2103 -0.2893
 2690TIP3    H129485   3.253   4.038  16.665  0.5653  0.6190 -0.2066
 2690TIP3    H229486   3.131   4.049  16.754  0.1743 -0.8195 -0.5340
 2691TIP3   OH229487   0.361   5.744   3.561  0.0410 -0.3602 -0.1830
 2691TIP3    H129488   0.333   5.741   3.653  0.6943 -0.1358  0.0298
 2691TIP3    H229489   0.457   5.736   3.565  0.0196 -1.0571 -0.8862
 2692TIP3   OH229490   2.088   5.628  14.630 -0.7966  0.5816  0.3858
 2692TIP3    H129491   2.028   5.660  14.563 -0.2550 -1.5217 -1.2285
 2692TIP3    H229492   2.032   5.579  14.690 -0.8591 -0.9632 -0.8466
 2693TIP3   OH229493   5.285   5.583   0.728 -0.1397  0.0158 -0.2189
 2693TIP3    H129494   5.218   5.638   0.687  0.1926 -0.5161 -1.5573
 2693TIP3    H229495   5.345   5.645   0.769  0.1465  0.6612 -1.5620
 2694TIP3   OH229496   0.483   1.087   4.754  0.2258  0.1699  0.3928
 2694TIP3    H129497   0.545   1.104   4.682  0.6027 -0.5190  0.5463
 2694TIP3    H229498   0.437   1.170   4.765 -1.0116 -0.1412 -1.7291
 2695TIP3   OH229499   5.609   3.916  15.465  0.2255  0.1170  0.4346
 2695TIP3    H129500   5.701   3.938  15.453 -0.1838  1.1107 -1.1091
 2695TIP3    H229501   5.562   3.975  15.407 -1.4304 -0.1346  1.4527
 2696TIP3   OH229502   4.601   6.424  16.393 -0.3269 -0.2866 -0.5948
 2696TIP3    H129503   4.616   6.488  16.464 -1.5644 -1.1953  0.5257
 2696TIP3    H229504   4.683   6.424  16.344  0.5460  0.4391  0.7925
 2697TIP3   OH229505   0.133   0.783  14.201 -0.0727  0.3665  0.0559
 2697TIP3    H129506   0.064   0.848  14.192 -0.5961  0.2729  2.4805
 2697TIP3    H229507   0.142   0.771  14.296  1.4340 -1.5737 -0.2542
 2698TIP3   OH229508   2.053   2.806  14.168 -0.0272  0.1887  0.3739
 2698TIP3    H129509   1.972   2.835  14.127  0.0718 -1.5606 -1.1641
 2698TIP3    H229510   2.054   2.851  14.253 -2.1542  0.9105  0.0724
 2699TIP3   OH229511   2.048   3.077   1.741  0.3382 -0.0134 -0.1170
 2699TIP3    H129512   1.993   3.042   1.671  0.5320  0.5541 -0.5559
 2699TIP3    H229513   2.138   3.063   1.710  0.4205  1.0857 -0.4182
 2700TIP3   OH229514   1.432   4.969  10.818  0.3130 -0.1835  0.3269
 2700TIP3    H129515   1.374   4.892  10.818 -0.1249  0.1419  0.1718
 2700TIP3    H229516   1.441   4.992  10.726 -0.1933  0.4191  0.4202
 2701TIP3   OH229517   0.122   0.404  13.235 -0.1424  0.4824 -0.5227
 2701TIP3    H129518   0.039   0.373  13.198  0.0405  0.3879 -0.8581
 2701TIP3    H229519   0.097   0.474  13.296 -0.4609  0.4996 -0.6729
 2702TIP3   OH229520   5.128   0.313   2.288 -0.1912 -0.4725 -0.2859
 2702TIP3    H129521   5.190   0.330   2.217 -0.2393  1.9353  0.1717
 2702TIP3    H229522   5.181   0.316   2.368 -0.6766  0.2847  0.0132
 2703TIP3   OH229523   3.248   1.576  16.235 -0.3055  0.4185 -0.1857
 2703TIP3    H129524   3.257   1.484  16.211 -1.2835  0.1628  0.4003
 2703TIP3    H229525   3.157   1.586  16.263 -0.0565  1.4270  0.3478
 2704TIP3   OH229526   4.832   2.767  15.993  0.7180 -0.2605 -0.7261
 2704TIP3    H129527   4.859   2.776  16.085  1.5017 -0.0133 -0.9772
 2704TIP3    H229528   4.863   2.847  15.951 -2.5187  1.2714 -0.5554
 2705TIP3   OH229529   0.070   0.393  15.390 -0.0962  0.1139  0.5548
 2705TIP3    H129530   0.058   0.351  15.475 -1.9115  0.6182  0.5783
 2705TIP3    H229531   0.135   0.462  15.406 -1.0827  0.7978  1.7634
 2706TIP3   OH229532   2.342   2.625  15.565  0.3980 -0.5145  0.0384
 2706TIP3    H129533   2.437   2.628  15.572  0.4691 -0.8583 -0.7025
 2706TIP3    H229534   2.323   2.662  15.479 -0.3123  1.9930  1.1765
 2707TIP3   OH229535   3.773   5.211  14.209 -0.4458 -0.1919  0.0571
 2707TIP3    H129536   3.702   5.257  14.255 -0.6884 -1.7198  1.3388
 2707TIP3    H229537   3.851   5.232  14.260 -0.6937 -1.7818  1.1919
 2708TIP3   OH229538   1.897   0.984  10.549  0.2740  0.1642  0.2980
 2708TIP3    H129539   1.856   0.908  10.508  0.5411 -0.2333  0.7519
 2708TIP3    H229540   1.845   1.058  10.520 -0.5493 -0.2893  0.5715
 2709TIP3   OH229541   1.233   6.471  15.639 -0.2187  0.2431 -0.3175
 2709TIP3    H129542   1.237   6.423  15.556 -1.5898 -0.6653  0.1011
 2709TIP3    H229543   1.237   6.563  15.614  2.0367 -0.0300 -1.1730
 2710TIP3   OH229544   4.585   6.718   0.613 -0.1820  0.1215 -0.1567
 2710TIP3    H129545   4.619   6.663   0.684  0.5317  0.5991 -0.1123
 2710TIP3    H229546   4.663   6.760   0.576 -0.3226 -1.3900 -2.3574
 2711TIP3   OH229547   4.591   6.022   0.030  0.2393 -0.1756  0.1387
 2711TIP3    H129548   4.591   5.995   0.122 -0.8672  0.7050  0.4164
 2711TIP3    H229549   4.652   6.096   0.027 -0.1968  0.1987  0.3072
 2712TIP3   OH229550   6.293   1.726   1.477  0.9290  0.1789  0.2281
 2712TIP3    H129551   6.266   1.637   1.453  0.8472 -0.0176  1.0267
 2712TIP3    H229552   6.380   1.715   1.514  0.8070  0.3948  0.5827
 2713TIP3   OH229553   3.949   6.392   2.973  0.2775  0.1761  0.0792
 2713TIP3    H129554   3.998   6.404   3.055  0.5193  0.4901 -0.1110
 2713TIP3    H229555   4.013   6.353   2.913  0.3546  0.7784 -0.2313
 2714TIP3   OH229556   1.679   1.577  12.519 -0.5611  0.1139  0.5392
 2714TIP3    H129557   1.677   1.667  12.489  1.4641  0.6378  1.7790
 2714TIP3    H229558   1.594   1.564  12.561 -0.9738  1.3567  0.1296
 2715TIP3   OH229559   2.163   2.534  12.150  0.3198  0.0641  0.6982
 2715TIP3    H129560   2.170   2.544  12.244  0.3774  0.7555  0.6241
 2715TIP3    H229561   2.251   2.552  12.117  0.2404  0.0803  0.4929
 2716TIP3   OH229562   5.235   2.043  12.019 -0.1023  0.0074  0.0932
 2716TIP3    H129563   5.217   1.956  11.984 -0.8394  0.0826  0.2692
 2716TIP3    H229564   5.193   2.043  12.105  1.2905 -0.0220  0.8060
 2717TIP3   OH229565   3.235   3.488  15.315  0.6880 -0.0409 -0.7208
 2717TIP3    H129566   3.156   3.486  15.261  0.1445 -1.0495  0.0629
 2717TIP3    H229567   3.207   3.525  15.399  1.6975  2.2633 -1.3367
 2718TIP3   OH229568   5.385   4.292  12.130 -0.3052 -0.3678  0.1314
 2718TIP3    H129569   5.378   4.376  12.176  1.6672 -0.1472  0.1141
 2718TIP3    H229570   5.336   4.231  12.184 -1.5619  0.7343  0.2836
 2719TIP3   OH229571   0.354   2.697  16.641  0.6053 -0.4834 -0.0191
 2719TIP3    H129572   0.322   2.786  16.627  1.6207 -0.4117 -2.4476
 2719TIP3    H229573   0.278   2.648  16.670  0.1193  1.2202  1.8515
 2720TIP3   OH229574   6.162   3.658   6.227 -0.0822  0.1820 -0.3773
 2720TIP3    H129575   6.235   3.607   6.264  0.6177  2.5060  1.8099
 2720TIP3    H229576   6.087   3.637   6.283 -0.6867 -0.9005 -1.5534
 2721TIP3   OH229577   5.720   5.398   6.128 -0.4743  0.5188  0.1489
 2721TIP3    H129578   5.809   5.364   6.132  0.0808  1.7992 -0.8137
 2721TIP3    H229579   5.712   5.452   6.207  0.5859  2.6066 -1.0929
 2722TIP3   OH229580   0.612   4.480   5.524  0.2073 -0.1621 -0.3229
 2722TIP3    H129581   0.529   4.437   5.503 -1.5751  1.8875  2.0304
 2722TIP3    H229582   0.615   4.481   5.619  3.1466 -0.4053 -0.3204
 2723TIP3   OH229583   4.469   6.247   6.220 -0.4324 -0.2710  0.2942
 2723TIP3    H129584   4.437   6.157   6.231  2.2553 -1.0792  2.8346
 2723TIP3    H229585   4.550   6.237   6.170 -0.9029  0.9753 -0.7602
 2724TIP3   OH229586   4.837   2.439   1.558  0.4477  0.0551  0.0679
 2724TIP3    H129587   4.797   2.376   1.617  2.8020 -1.1981  0.4541
 2724TIP3    H229588   4.849   2.518   1.611  0.4824 -0.2994  0.5941
 2725TIP3   OH229589   3.044   2.186   0.285  0.3584  0.0004  0.2919
 2725TIP3    H129590   3.093   2.219   0.209 -1.9299 -2.3355 -2.4551
 2725TIP3    H229591   3.000   2.263   0.321  0.6334  1.0434 -1.4801
 2726TIP3   OH229592   5.826   3.081  12.447 -0.4525 -0.3912  0.0842
 2726TIP3    H129593   5.904   3.057  12.397 -0.4754  0.4407 -0.3712
 2726TIP3    H229594   5.797   3.164  12.408  1.4136  2.1106  3.5512
 2727TIP3   OH229595   4.408   4.331   3.848  0.0420 -0.2552  0.0767
 2727TIP3    H129596   4.490   4.379   3.860  1.1253 -1.8873 -0.4147
 2727TIP3    H229597   4.416   4.255   3.906 -0.8749 -0.7306 -0.3985
 2728TIP3   OH229598   2.243   1.932   5.367  0.2503 -0.2445  0.6070
 2728TIP3    H129599   2.236   1.921   5.272 -3.5359  0.8694  0.6017
 2728TIP3    H229600   2.311   1.999   5.378 -0.2619  0.7076 -1.4583
 2729TIP3   OH229601   4.316   0.969  12.217 -0.9473  0.8967 -0.3349
 2729TIP3    H129602   4.384   0.954  12.152 -0.7291  0.4339 -0.0068
 2729TIP3    H229603   4.344   1.048  12.264 -0.4140  0.4798  0.0703
 2730TIP3   OH229604   0.412   2.584   1.940 -0.6090 -0.0868  0.5548
 2730TIP3    H129605   0.441   2.651   2.002 -0.2992  0.0254  0.2905
 2730TIP3    H229606   0.421   2.626   1.854 -0.6452 -0.3835  0.4063
 2731TIP3   OH229607   6.581   4.237   5.481  0.2483  0.7069 -0.3325
 2731TIP3    H129608   6.600   4.165   5.420 -0.1354 -0.2531  0.6426
 2731TIP3    H229609   6.566   4.193   5.564 -0.2525  1.9207  0.2281
 2732TIP3   OH229610   2.395   1.715  16.419 -0.2935 -0.4386  0.5850
 2732TIP3    H129611   2.334   1.673  16.359  0.4959 -1.1377  0.2587
 2732TIP3    H229612   2.451   1.770  16.363 -0.6805  0.2829  0.8941
 2733TIP3   OH229613   3.424   2.178  14.121 -0.3601  0.3900 -0.0055
 2733TIP3    H129614   3.390   2.102  14.073  0.7806  0.8572 -1.6462
 2733TIP3    H229615   3.361   2.247  14.105 -0.6645  0.1795  0.2830
 2734TIP3   OH229616   2.302   4.316   2.595 -0.4074 -0.4487  0.5299
 2734TIP3    H129617   2.368   4.258   2.557 -0.0488  0.2229  0.1062
 2734TIP3    H229618   2.297   4.290   2.687  1.1460  0.1175  0.8060
 2735TIP3   OH229619   4.611   1.108  16.829 -0.5680  0.4762  0.1235
 2735TIP3    H129620   4.647   1.021  16.812  0.5633  0.4964  2.1266
 2735TIP3    H229621   4.673   1.168  16.788  0.1258  0.4004  1.0260
 2736TIP3   OH229622   3.323   5.011  13.806 -0.4174 -0.4657 -0.0022
 2736TIP3    H129623   3.313   5.036  13.715  0.7576 -0.2140 -0.0872
 2736TIP3    H229624   3.262   4.939  13.819 -1.8960  0.6343 -0.4960
 2737TIP3   OH229625   5.017   1.072  16.205  0.1593  0.4791  0.4210
 2737TIP3    H129626   5.066   1.046  16.283  0.5136  2.0419  0.7551
 2737TIP3    H229627   4.972   1.152  16.231  0.4452  1.1451 -1.0428
 2738TIP3   OH229628   1.854   0.236  13.647 -0.1328 -0.4072  0.1206
 2738TIP3    H129629   1.800   0.246  13.568  0.5690 -1.9972 -0.5935
 2738TIP3    H229630   1.878   0.326  13.670 -0.1566  0.0860 -1.6262
 2739TIP3   OH229631   4.260   0.008  11.670 -0.4338 -0.3580  0.1362
 2739TIP3    H129632   4.313  -0.049  11.726 -1.7499 -2.3449 -0.5386
 2739TIP3    H229633   4.193   0.043  11.729  0.3565  0.4826  0.5470
 2740TIP3   OH229634   5.988   1.890   1.031  0.7773  0.2252  0.5064
 2740TIP3    H129635   5.923   1.827   1.001  2.2751 -0.0005 -2.5787
 2740TIP3    H229636   5.937   1.968   1.052 -0.8044 -1.0269  1.6891
 2741TIP3   OH229637   3.373   0.341   0.948  0.0600 -0.1717 -0.6857
 2741TIP3    H129638   3.345   0.277   1.013  0.4952 -1.1855 -1.4710
 2741TIP3    H229639   3.468   0.342   0.954  0.1803 -1.1191 -2.0576
 2742TIP3   OH229640   0.201   0.841   3.417  0.7986  0.3834  0.1395
 2742TIP3    H129641   0.186   0.918   3.362  0.6076 -0.9268 -1.7331
 2742TIP3    H229642   0.134   0.847   3.486 -0.3824  0.9733 -1.0165
 2743TIP3   OH229643   2.713   3.726   4.436 -0.7048 -0.8251  0.2989
 2743TIP3    H129644   2.654   3.757   4.505 -1.0043  1.1752 -0.7775
 2743TIP3    H229645   2.663   3.735   4.355  1.0379  1.1023 -0.6707
 2744TIP3   OH229646   0.142   4.790   4.680 -0.6664  0.0512  0.3053
 2744TIP3    H129647   0.186   4.734   4.617 -1.1575 -0.5584  0.4869
 2744TIP3    H229648   0.208   4.811   4.745  0.3254  2.0548 -1.2335
 2745TIP3   OH229649   6.588   3.366  11.187 -0.3982 -0.0652 -0.0355
 2745TIP3    H129650   6.584   3.459  11.205  1.5503  0.1472 -0.4570
 2745TIP3    H229651   6.553   3.357  11.099 -3.1646 -0.1463  0.9971
 2746TIP3   OH229652   0.948   2.741  14.309  0.5621 -0.3528 -0.0559
 2746TIP3    H129653   1.011   2.678  14.273  0.0805 -1.5797  1.1392
 2746TIP3    H229654   0.863   2.697  14.299  0.2208  0.0889  0.8362
 2747TIP3   OH229655   4.950   3.813   1.654  0.0673  0.2466  0.1093
 2747TIP3    H129656   4.904   3.855   1.727 -0.2036  1.7202 -0.8783
 2747TIP3    H229657   4.896   3.832   1.577  0.0819 -1.6967 -0.4358
 2748TIP3   OH229658   0.551   4.455   3.593  0.1524 -0.4649 -0.5680
 2748TIP3    H129659   0.600   4.524   3.637 -1.0089 -0.8653  1.5004
 2748TIP3    H229660   0.495   4.501   3.530 -1.0422  0.5963  1.1940
 2749TIP3   OH229661   1.929   0.358   6.084 -0.2042  0.5689 -1.0371
 2749TIP3    H129662   1.841   0.321   6.081 -0.0831 -0.2498  2.0474
 2749TIP3    H229663   1.916   0.452   6.070 -1.8679  0.7280  0.9996
 2750TIP3   OH229664   3.344   1.357  11.420 -0.1667 -0.2022 -0.0852
 2750TIP3    H129665   3.282   1.344  11.349 -0.1085  2.1316 -0.6143
 2750TIP3    H229666   3.362   1.451  11.421  2.3165 -0.5934  0.9284
 2751TIP3   OH229667   6.128   1.619  10.917 -0.4146  0.1048  0.2167
 2751TIP3    H129668   6.066   1.561  10.873 -1.5051  0.5369  1.1508
 2751TIP3    H229669   6.086   1.705  10.917  0.5263  0.5834  0.1905
 2752TIP3   OH229670   1.509   3.586   3.935  0.1484 -0.0075  0.5845
 2752TIP3    H129671   1.480   3.521   4.000 -0.1587  0.5393  1.0027
 2752TIP3    H229672   1.586   3.626   3.975  0.5084 -0.3062  0.1994
 2753TIP3   OH229673   4.339   2.018   3.309  0.1218  0.3486  0.1242
 2753TIP3    H129674   4.307   1.938   3.267  1.8212  0.2487 -1.1173
 2753TIP3    H229675   4.284   2.029   3.386 -0.8273 -1.4441 -0.2421
 2754TIP3   OH229676   2.438   0.146  11.370  0.0847  0.1265  0.6469
 2754TIP3    H129677   2.414   0.095  11.447 -0.3288  1.4823  1.4570
 2754TIP3    H229678   2.530   0.169  11.384 -0.0022  0.4091  0.7805
 2755TIP3   OH229679   2.090   2.657   1.659 -0.1155 -0.3035 -0.1913
 2755TIP3    H129680   2.127   2.584   1.710  0.8926  1.1489  1.2749
 2755TIP3    H229681   2.139   2.656   1.577  1.4322 -0.0041  0.6870
 2756TIP3   OH229682   6.328   4.427  11.023  0.0158  0.8070  0.0371
 2756TIP3    H129683   6.352   4.336  11.042  1.7091  1.1463 -0.2929
 2756TIP3    H229684   6.398   4.458  10.965 -0.3484  2.4252  0.4228
 2757TIP3   OH229685   2.013   4.896  12.326 -0.3259  0.0511 -0.4704
 2757TIP3    H129686   2.104   4.925  12.316  0.2516 -1.3510  0.4617
 2757TIP3    H229687   2.018   4.801  12.328 -1.8902 -0.0649 -0.9710
 2758TIP3   OH229688   2.544   3.783   6.111  0.6409  0.4317  0.4953
 2758TIP3    H129689   2.523   3.715   6.175 -0.9962  0.6377  0.2069
 2758TIP3    H229690   2.502   3.862   6.145  1.5563  1.0476  0.2348
 2759TIP3   OH229691   0.192   5.361  16.165  0.7234 -0.3384  0.3699
 2759TIP3    H129692   0.259   5.294  16.149 -1.4116 -2.1475 -1.6728
 2759TIP3    H229693   0.171   5.395  16.078 -0.3018  0.9249  1.0786
 2760TIP3   OH229694   0.904   3.599   0.420  0.6055 -0.0032 -0.2334
 2760TIP3    H129695   0.949   3.660   0.479  0.7993 -0.4175  0.0530
 2760TIP3    H229696   0.975   3.559   0.369  0.4038  0.6776 -1.0726
 2761TIP3   OH229697   2.034   3.250   5.206  0.0530 -0.1799 -0.0560
 2761TIP3    H129698   2.095   3.277   5.137 -1.5031 -0.1317 -1.4619
 2761TIP3    H229699   2.003   3.164   5.179 -2.1739  0.7101 -0.5854
 2762TIP3   OH229700   2.875   5.349  15.216 -0.5294 -0.4206  0.2423
 2762TIP3    H129701   2.925   5.417  15.170  0.5988 -2.0990 -1.1629
 2762TIP3    H229702   2.895   5.362  15.309  0.9814  0.1780 -0.1384
 2763TIP3   OH229703   2.502   3.401   6.144 -0.5746 -0.1544 -0.5082
 2763TIP3    H129704   2.410   3.381   6.127 -0.7269 -1.2407  1.3713
 2763TIP3    H229705   2.543   3.316   6.157  0.6327  0.3375 -0.9425
 2764TIP3   OH229706   1.416   4.128   3.555  0.7191  0.1403  0.6576
 2764TIP3    H129707   1.493   4.132   3.612  0.6672  1.1773  0.6753
 2764TIP3    H229708   1.376   4.043   3.574  2.1945 -0.6907  0.2035
 2765TIP3   OH229709   1.633   4.504   0.108 -0.0475 -0.0509  0.5396
 2765TIP3    H129710   1.602   4.415   0.124  0.7416 -0.4689 -0.2398
 2765TIP3    H229711   1.579   4.535   0.035  0.2748 -0.2071  0.2337
 2766TIP3   OH229712   4.998   3.789  14.886 -0.1603  0.1528  0.5624
 2766TIP3    H129713   4.994   3.845  14.964  2.1147  0.6915  0.3740
 2766TIP3    H229714   5.022   3.703  14.919 -0.7248 -0.0061  0.5741
 2767TIP3   OH229715   3.276   4.080   2.740 -0.4108 -0.4319  0.1415
 2767TIP3    H129716   3.204   4.021   2.762 -0.4141  0.0569  1.6031
 2767TIP3    H229717   3.326   4.034   2.673 -2.0888 -0.7633 -0.9174
 2768TIP3   OH229718   2.944   6.127   5.256  0.3937 -0.2186  0.0160
 2768TIP3    H129719   2.914   6.176   5.333  0.2147 -0.3336  0.0208
 2768TIP3    H229720   3.017   6.074   5.289  0.4298 -0.1378  0.0670
 2769TIP3   OH229721   0.709   6.760   5.225  0.2870  0.1244 -0.4926
 2769TIP3    H129722   0.635   6.701   5.235 -0.2941  1.1488  1.9450
 2769TIP3    H229723   0.670   6.847   5.217  1.1881  0.6403  0.3925
 2770TIP3   OH229724   0.505   2.453   1.519 -0.1685 -0.1978  0.0523
 2770TIP3    H129725   0.422   2.460   1.567  0.6303  1.4448  1.3093
 2770TIP3    H229726   0.517   2.540   1.481 -0.0443 -1.0502 -1.9476
 2771TIP3   OH229727   6.287   5.143  17.067 -0.1614 -0.7321 -0.2599
 2771TIP3    H129728   6.220   5.181  17.123 -0.3992 -0.3109 -0.8273
 2771TIP3    H229729   6.278   5.048  17.080 -2.0787 -0.8029 -1.6728
 2772TIP3   OH229730   0.144   6.756   4.738  0.1484 -0.4932  0.0947
 2772TIP3    H129731   0.153   6.851   4.737 -0.6914 -0.3710  1.3385
 2772TIP3    H229732   0.171   6.728   4.651  2.4652  0.6844  0.3547
 2773TIP3   OH229733   5.119   1.928  10.738  0.0974  0.9604  0.0299
 2773TIP3    H129734   5.199   1.925  10.685  0.0446  2.3535 -0.1881
 2773TIP3    H229735   5.087   2.018  10.726 -1.1063  0.6362  0.6944
 2774TIP3   OH229736   4.210   4.322   5.114 -0.0549 -0.0929  0.1505
 2774TIP3    H129737   4.174   4.235   5.133 -2.3466  0.6576 -0.3734
 2774TIP3    H229738   4.304   4.309   5.113 -0.3127 -2.5298  0.3089
 2775TIP3   OH229739   3.574   1.866  14.303  0.1249 -0.0981  0.1734
 2775TIP3    H129740   3.656   1.915  14.291  0.3014 -0.0290  1.4778
 2775TIP3    H229741   3.602   1.774  14.304  0.1138 -0.1024  0.0912
 2776TIP3   OH229742   2.358   4.023   4.646 -0.2140 -0.1635 -0.1585
 2776TIP3    H129743   2.295   4.003   4.577  0.0616 -2.7319  0.2285
 2776TIP3    H229744   2.428   3.958   4.634  1.4141  1.3506  0.6174
 2777TIP3   OH229745   6.699   0.475  16.628 -0.3657  0.1149 -0.1646
 2777TIP3    H129746   6.775   0.417  16.625 -1.7238 -1.7601 -0.0580
 2777TIP3    H229747   6.661   0.460  16.714 -2.3370 -1.0309 -1.1648
 2778TIP3   OH229748   1.043   2.474  13.190  0.3568  0.1506  0.5922
 2778TIP3    H129749   1.125   2.439  13.224  0.6596  0.2120 -0.0570
 2778TIP3    H229750   1.067   2.558  13.151 -0.3340  1.0257  1.9915
 2779TIP3   OH229751   1.514   1.046  11.679  0.3539 -0.7250  0.1909
 2779TIP3    H129752   1.435   1.070  11.630 -0.7791 -4.5081 -0.1727
 2779TIP3    H229753   1.486   1.049  11.771  1.3005  2.4420  0.4920
 2780TIP3   OH229754   0.847   0.678   3.651 -0.2767  0.2607 -0.5788
 2780TIP3    H129755   0.769   0.702   3.701  0.0840  1.3459 -0.5146
 2780TIP3    H229756   0.918   0.727   3.693  0.4004 -0.5030 -0.8052
 2781TIP3   OH229757   0.994   1.945  14.925 -0.3262  0.0254 -0.4098
 2781TIP3    H129758   0.959   2.019  14.976  0.7735  0.7439 -0.6560
 2781TIP3    H229759   0.926   1.925  14.862 -0.4735  1.1416 -0.6305
 2782TIP3   OH229760   3.536   1.531  12.029 -0.4047 -0.2643  0.2321
 2782TIP3    H129761   3.537   1.511  11.935  2.1909  2.3407 -0.4326
 2782TIP3    H229762   3.586   1.460  12.069  1.1704  0.2051 -0.8306
 2783TIP3   OH229763   4.144   2.639   3.742 -0.2504 -0.4015  0.2091
 2783TIP3    H129764   4.140   2.725   3.699 -2.0188 -0.2104  0.6922
 2783TIP3    H229765   4.139   2.576   3.670  0.4612 -0.1129 -0.1045
 2784TIP3   OH229766   0.727   2.104  10.758 -0.3330  0.1386  0.2089
 2784TIP3    H129767   0.707   2.068  10.672 -2.4462  0.8377  0.3719
 2784TIP3    H229768   0.705   2.034  10.819  0.9253 -0.2647  0.2308
 2785TIP3   OH229769   6.148   3.780  12.938  0.1408 -0.5898 -0.0644
 2785TIP3    H129770   6.107   3.699  12.967 -0.7702 -0.0502  0.2122
 2785TIP3    H229771   6.117   3.791  12.848  0.2539 -0.5480 -0.0977
 2786TIP3   OH229772   6.476   2.486  14.810 -0.4082 -0.1867 -0.1343
 2786TIP3    H129773   6.458   2.525  14.724 -0.1752 -0.1381 -0.1603
 2786TIP3    H229774   6.505   2.397  14.791 -2.2169 -0.8592 -0.0228
 2787TIP3   OH229775   5.532   4.290   3.219  0.6030 -0.5813  1.0177
 2787TIP3    H129776   5.610   4.285   3.164  0.0768  1.4227  0.0032
 2787TIP3    H229777   5.519   4.200   3.250  2.1083 -1.3676 -0.4578
 2788TIP3   OH229778   6.070   3.369   3.955 -0.3765 -0.3585 -0.1930
 2788TIP3    H129779   6.142   3.326   4.001 -0.3814  0.0469  0.2065
 2788TIP3    H229780   6.083   3.347   3.863  1.6167  1.5653 -0.4752
 2789TIP3   OH229781   1.943   6.070  12.566 -0.1364  0.2096 -0.2154
 2789TIP3    H129782   1.897   6.009  12.624 -0.4870  0.0188 -0.6924
 2789TIP3    H229783   2.017   6.020  12.533  0.5203  0.5721  0.6882
 2790TIP3   OH229784   3.785   4.420   4.836  0.0488  0.2124 -0.1526
 2790TIP3    H129785   3.804   4.434   4.743  0.3075  1.3769  0.0612
 2790TIP3    H229786   3.837   4.487   4.881  0.0628 -0.4639  0.8422
 2791TIP3   OH229787   3.279   5.297   3.582  0.1211  0.1020  0.2100
 2791TIP3    H129788   3.277   5.383   3.539  0.8544 -0.6738 -1.4780
 2791TIP3    H229789   3.191   5.262   3.571  0.2935 -0.0769 -0.7034
 2792TIP3   OH229790   4.138   5.568   1.327  0.0383 -0.4713 -0.0438
 2792TIP3    H129791   4.066   5.572   1.263 -0.0779 -0.5815  0.0793
 2792TIP3    H229792   4.186   5.650   1.314  0.3418 -0.7376 -0.6541
 2793TIP3   OH229793   5.841   6.791  10.725 -1.0384  0.5089 -0.1478
 2793TIP3    H129794   5.907   6.783  10.656 -0.9430  0.3088 -0.0338
 2793TIP3    H229795   5.757   6.786  10.679 -0.9751  0.2813 -0.2403
 2794TIP3   OH229796   4.823   2.028   2.192  0.4822  0.2461  0.2047
 2794TIP3    H129797   4.903   1.976   2.193  1.2695  1.3584 -0.9853
 2794TIP3    H229798   4.754   1.965   2.171  0.9561 -0.8100  1.7142
 2795TIP3   OH229799   5.672   0.874  16.566  0.3540  0.9506 -0.2087
 2795TIP3    H129800   5.761   0.851  16.592  0.1060  0.8156  0.5192
 2795TIP3    H229801   5.620   0.864  16.645 -0.1240  2.0703 -0.3587
 2796TIP3   OH229802   4.390   0.065  11.194 -0.4212  0.0289  0.2289
 2796TIP3    H129803   4.365   0.125  11.124  0.9989 -0.7231 -0.9713
 2796TIP3    H229804   4.384   0.118  11.274 -1.4029  1.0976 -0.5180
 2797TIP3   OH229805   2.438   3.166  11.864 -0.8292 -0.3239  0.7727
 2797TIP3    H129806   2.398   3.249  11.841  1.2143  0.8697  1.2777
 2797TIP3    H229807   2.385   3.132  11.937 -1.9382  0.2958  0.2679
 2798TIP3   OH229808   2.803   1.180   1.108 -0.3864  0.3369  0.9968
 2798TIP3    H129809   2.859   1.234   1.164  0.2464 -0.7351  1.4322
 2798TIP3    H229810   2.865   1.128   1.057 -0.9841  0.0459  0.5686
 2799TIP3   OH229811   3.039   1.644  14.781 -0.3810 -0.4161  0.2070
 2799TIP3    H129812   3.042   1.738  14.799  0.8204 -0.4862  0.4987
 2799TIP3    H229813   3.075   1.603  14.860  1.5007 -0.9422 -0.8409
 2800TIP3   OH229814   5.760   5.141   0.716  0.4425 -0.6299  0.6899
 2800TIP3    H129815   5.814   5.152   0.794 -1.2877 -2.8809  2.2989
 2800TIP3    H229816   5.784   5.055   0.682 -0.4671 -0.6458  0.0701
 2801TIP3   OH229817   0.375   1.932  15.112 -0.1444 -0.2419  0.2149
 2801TIP3    H129818   0.440   1.945  15.043 -1.7842  1.8546 -1.0944
 2801TIP3    H229819   0.398   1.996  15.179  0.0093 -0.5603  0.4698
 2802TIP3   OH229820   2.984   2.028  13.269  0.1560  0.4855 -0.6987
 2802TIP3    H129821   3.032   2.066  13.342 -1.1012 -0.7108  0.8204
 2802TIP3    H229822   2.911   2.089  13.255  0.2337  0.5633 -0.7687
 2803TIP3   OH229823   1.819   4.983  15.805 -0.0103 -0.1362  0.5444
 2803TIP3    H129824   1.735   5.025  15.785  0.1993 -0.4110 -1.0911
 2803TIP3    H229825   1.879   5.056  15.821 -0.3676  0.0883  0.8826
 2804TIP3   OH229826   5.570   4.960   3.608 -0.2006  0.2077 -0.0770
 2804TIP3    H129827   5.657   4.951   3.646 -0.0563 -0.0877 -0.4596
 2804TIP3    H229828   5.564   5.052   3.582 -0.4309  0.4867  0.9486
 2805TIP3   OH229829   4.129   2.458   6.307  0.3406 -0.0186  0.2252
 2805TIP3    H129830   4.194   2.483   6.241  0.2412  1.3955  0.6360
 2805TIP3    H229831   4.128   2.531   6.369 -1.4205 -0.1643  0.4031
 2806TIP3   OH229832   6.724   5.469   2.738 -0.6986 -0.3080 -0.3728
 2806TIP3    H129833   6.652   5.406   2.739 -0.7208 -0.2927 -0.6879
 2806TIP3    H229834   6.682   5.553   2.722 -0.7771 -0.0503  1.1169
 2807TIP3   OH229835   5.439   2.348   4.413 -0.6269 -0.5791 -0.7587
 2807TIP3    H129836   5.416   2.357   4.320 -1.3577 -1.0525 -0.6322
 2807TIP3    H229837   5.534   2.336   4.412 -0.5593 -0.0620 -1.4084
 2808TIP3   OH229838   6.478   2.003  13.143  0.6865 -0.2122 -0.3537
 2808TIP3    H129839   6.568   1.975  13.156 -0.0571 -2.9431 -0.5450
 2808TIP3    H229840   6.459   1.981  13.052  0.3823  2.2273 -0.9476
 2809TIP3   OH229841   1.471   0.500  16.465 -0.3698 -0.2360 -0.0837
 2809TIP3    H129842   1.479   0.493  16.370 -2.1116 -1.6886 -0.1712
 2809TIP3    H229843   1.403   0.566  16.479 -0.6093 -0.5255  0.1282
 2810TIP3   OH229844   0.032   1.151   3.717 -0.0506 -0.0998  0.5392
 2810TIP3    H129845   0.032   1.073   3.663  0.5528  0.6850 -0.6367
 2810TIP3    H229846   0.064   1.221   3.659  0.9264  0.7161  1.9859
 2811TIP3   OH229847   2.206   3.647   4.726  0.1213 -0.5586 -0.8815
 2811TIP3    H129848   2.189   3.740   4.734 -1.1318 -0.5756 -2.7255
 2811TIP3    H229849   2.176   3.609   4.809 -1.9726  0.3633 -1.1651
 2812TIP3   OH229850   3.985   4.414   1.755  0.2039 -0.0138  0.7748
 2812TIP3    H129851   3.904   4.427   1.705 -1.1113 -1.0077  2.5096
 2812TIP3    H229852   4.045   4.374   1.692 -0.5821  0.8680 -0.6035
 2813TIP3   OH229853   1.910   0.499  12.645  0.1759  0.2813  0.1027
 2813TIP3    H129854   1.950   0.454  12.570 -0.5739  1.3263 -0.9567
 2813TIP3    H229855   1.977   0.496  12.713  1.8651  1.4550 -1.4267
 2814TIP3   OH229856   2.162   0.660  14.814  0.5270 -0.4683  0.4296
 2814TIP3    H129857   2.133   0.751  14.819 -1.0094 -0.8627 -0.5581
 2814TIP3    H229858   2.250   0.660  14.853  0.2834  1.2982  1.0543
 2815TIP3   OH229859   5.028   1.849  12.825 -0.2263 -0.1866  0.0154
 2815TIP3    H129860   4.994   1.880  12.910 -0.6333  0.2558 -0.3015
 2815TIP3    H229861   5.121   1.833  12.841 -0.3258 -0.2301  0.5824
 2816TIP3   OH229862   0.790   4.352   1.850 -0.5331  0.2829  0.4100
 2816TIP3    H129863   0.835   4.329   1.769  0.7633  1.8030  0.6450
 2816TIP3    H229864   0.776   4.268   1.895  1.9604 -0.3027  0.2464
 2817TIP3   OH229865   1.551   4.142  13.736  0.6898  0.1931 -0.5316
 2817TIP3    H129866   1.553   4.211  13.670  3.3393  0.0837 -0.6824
 2817TIP3    H229867   1.620   4.081  13.709  1.2179 -0.3633  1.8094
 2818TIP3   OH229868   0.454   5.523   3.765  0.1786 -0.3911 -0.3642
 2818TIP3    H129869   0.473   5.544   3.856 -0.6209  1.4020 -0.5561
 2818TIP3    H229870   0.358   5.527   3.758  0.2835  2.8638 -1.9040
 2819TIP3   OH229871   6.613   3.964   3.359 -0.0220 -0.1833 -0.0981
 2819TIP3    H129872   6.621   4.056   3.335 -0.4074 -0.9253 -3.6572
 2819TIP3    H229873   6.703   3.934   3.371  0.0979  0.6461  1.2361
 2820TIP3   OH229874   4.093   0.133   0.149 -0.5443 -0.2111  0.3042
 2820TIP3    H129875   4.009   0.092   0.170 -0.6150  0.1795  0.8074
 2820TIP3    H229876   4.070   0.223   0.125 -0.1204  0.4951  2.3426
 2821TIP3   OH229877   3.406   4.367  15.481 -0.1910 -0.0538 -0.1623
 2821TIP3    H129878   3.434   4.433  15.545  0.3579  0.6698 -1.1195
 2821TIP3    H229879   3.486   4.345  15.433 -0.8726  0.5543 -1.6124
 2822TIP3   OH229880   6.123   6.133  12.675 -0.0964 -0.1814  0.2841
 2822TIP3    H129881   6.178   6.144  12.596 -2.1969 -0.6782 -1.3404
 2822TIP3    H229882   6.078   6.216  12.684 -0.4854 -0.4110  0.4578
 2823TIP3   OH229883   2.078   1.375  13.791 -0.0413  0.3193 -0.2717
 2823TIP3    H129884   2.096   1.363  13.698  0.9513  1.5170 -0.2556
 2823TIP3    H229885   2.162   1.401  13.830 -0.6760  0.9547  0.7470
 2824TIP3   OH229886   0.624   5.033  11.834  0.3420 -0.0060  0.0791
 2824TIP3    H129887   0.685   4.965  11.863  0.2821  0.0214  0.2680
 2824TIP3    H229888   0.627   5.099  11.902  1.6633  0.9868 -0.8907
 2825TIP3   OH229889   3.172   0.157   2.538 -0.5249 -0.5036  0.3460
 2825TIP3    H129890   3.190   0.109   2.457 -0.8685 -0.9335  0.5247
 2825TIP3    H229891   3.257   0.195   2.562 -0.5235  0.0404 -0.4749
 2826TIP3   OH229892   6.732   6.425   2.485 -0.3248 -0.3947 -0.0658
 2826TIP3    H129893   6.739   6.516   2.459  0.4962 -0.3237  0.3776
 2826TIP3    H229894   6.651   6.420   2.536 -0.4769  0.0326 -0.2642
 2827TIP3   OH229895   2.789   1.900  15.040  0.3072 -0.3588 -0.2651
 2827TIP3    H129896   2.744   1.980  15.015 -0.5924 -0.9492 -0.5629
 2827TIP3    H229897   2.879   1.927  15.056  0.1579  0.6031 -0.9819
 2828TIP3   OH229898   4.219   6.063  13.695 -1.0333  0.2070 -0.6462
 2828TIP3    H129899   4.177   6.087  13.778  0.1481  0.8350 -0.2090
 2828TIP3    H229900   4.308   6.096  13.703 -0.2172 -1.7135 -1.2649
 2829TIP3   OH229901   2.897   0.518   1.313 -0.4028  0.5332  0.6756
 2829TIP3    H129902   2.825   0.455   1.316 -0.2289  0.2359 -0.7608
 2829TIP3    H229903   2.883   0.567   1.232  2.5432 -1.4581 -1.2290
 2830TIP3   OH229904   1.208   5.585   4.579 -0.9438  0.4138 -0.1472
 2830TIP3    H129905   1.235   5.647   4.647 -0.7420  0.3517 -0.1707
 2830TIP3    H229906   1.171   5.639   4.510 -0.6985  0.5144 -0.2000
 2831TIP3   OH229907   1.434   6.141   5.176 -0.4115  0.0115  0.0786
 2831TIP3    H129908   1.516   6.116   5.216 -0.3044 -1.8196 -1.1588
 2831TIP3    H229909   1.370   6.079   5.210 -0.4709 -1.0734 -1.8613
 2832TIP3   OH229910   3.888   6.367   6.724 -0.0044  0.1848  0.6619
 2832TIP3    H129911   3.857   6.280   6.697  0.9483 -0.2212  0.8606
 2832TIP3    H229912   3.977   6.373   6.690  0.5527  0.3964  2.1144
 2833TIP3   OH229913   3.932   4.531   2.574  0.3963 -0.3900 -0.7671
 2833TIP3    H129914   3.889   4.465   2.519 -0.5549  2.2309 -3.4601
 2833TIP3    H229915   3.866   4.554   2.639  0.2156 -1.1012 -0.6909
 2834TIP3   OH229916   0.828   4.992   4.384 -0.3534 -0.0514  0.1410
 2834TIP3    H129917   0.760   4.936   4.345  0.0434  0.2375 -1.0103
 2834TIP3    H229918   0.891   4.931   4.421  0.9245 -0.5017 -2.5274
 2835TIP3   OH229919   2.127   4.422  16.317  0.4232  0.3239 -0.8115
 2835TIP3    H129920   2.035   4.405  16.301  0.4092 -0.6334  0.2129
 2835TIP3    H229921   2.164   4.338  16.344  1.2316  1.0339  0.3974
 2836TIP3   OH229922   2.695   0.923  13.998  0.6912 -0.1776 -0.4603
 2836TIP3    H129923   2.779   0.935  13.955 -0.2238  0.8079 -2.0948
 2836TIP3    H229924   2.643   1.000  13.971 -1.2116 -1.4815 -0.7241
 2837TIP3   OH229925   0.113   5.482   0.813  0.1805  0.1174  0.4453
 2837TIP3    H129926   0.178   5.440   0.757 -0.2580 -0.3191  0.2486
 2837TIP3    H229927   0.030   5.442   0.787 -0.1101  0.3564  0.9808
 2838TIP3   OH229928   2.278   1.730   3.916 -0.6482  0.1951  0.6875
 2838TIP3    H129929   2.248   1.806   3.867  1.0937 -1.0260 -2.6453
 2838TIP3    H229930   2.221   1.658   3.887  1.8617 -1.0470 -1.7301
 2839TIP3   OH229931   6.775   2.928   5.998  0.4376  0.1261 -0.2648
 2839TIP3    H129932   6.730   2.957   5.918  1.3587 -0.2321 -0.9293
 2839TIP3    H229933   6.706   2.890   6.052 -0.2244  0.4967 -0.8315
 2840TIP3   OH229934   3.177   5.412  12.093 -0.3361  0.4228 -0.1701
 2840TIP3    H129935   3.216   5.414  12.006 -0.0475 -0.3201 -0.0689
 2840TIP3    H229936   3.086   5.383  12.077 -0.4681  0.8917 -0.2815
 2841TIP3   OH229937   3.969   3.522   4.672  0.0297  0.5494  0.5732
 2841TIP3    H129938   4.015   3.438   4.683  1.0448  0.8338 -1.1443
 2841TIP3    H229939   4.035   3.581   4.635 -1.3347  1.3709 -0.6646
 2842TIP3   OH229940   4.141   2.125  14.157  0.0157 -0.3497 -0.3373
 2842TIP3    H129941   4.149   2.073  14.238 -0.2999  0.5582  0.2967
 2842TIP3    H229942   4.088   2.200  14.183  1.4302  0.8977 -0.9343
 2843TIP3   OH229943   6.301   3.509  15.065  0.2073 -0.2966  0.1877
 2843TIP3    H129944   6.216   3.479  15.032  0.6493 -0.9200 -0.3957
 2843TIP3    H229945   6.347   3.430  15.091  0.8136 -0.0087  0.0135
 2844TIP3   OH229946   1.742   1.123   1.148 -0.7451  0.1461  0.1772
 2844TIP3    H129947   1.771   1.190   1.086  0.2606  1.4177  1.9281
 2844TIP3    H229948   1.822   1.092   1.189 -0.9715 -3.4604 -1.7233
 2845TIP3   OH229949   5.882   4.759  16.085  0.5439 -0.3293  0.2084
 2845TIP3    H129950   5.844   4.826  16.141  2.9346  0.7447  0.6865
 2845TIP3    H229951   5.821   4.751  16.012 -0.1530  1.8754  0.4695
 2846TIP3   OH229952   5.233   0.458   1.419  0.2574  0.1203 -0.7440
 2846TIP3    H129953   5.244   0.541   1.374  1.5418 -0.0096 -0.6872
 2846TIP3    H229954   5.275   0.394   1.362 -1.2545 -0.6140 -1.0936
 2847TIP3   OH229955   6.547   5.109   2.578 -0.0614 -0.1082 -0.0726
 2847TIP3    H129956   6.546   5.016   2.558 -1.8240  0.1239 -1.3619
 2847TIP3    H229957   6.638   5.136   2.565  0.2378 -1.4110 -0.8960
 2848TIP3   OH229958   5.301   4.716  11.889 -0.3344  0.2870  0.1544
 2848TIP3    H129959   5.312   4.807  11.916 -1.7966  0.2063  1.1349
 2848TIP3    H229960   5.247   4.677  11.958  1.9083 -1.8675  0.8272
 2849TIP3   OH229961   0.287   0.408  14.680  0.5301  1.1262  0.8052
 2849TIP3    H129962   0.237   0.363  14.748 -1.2285  1.8171  0.0225
 2849TIP3    H229963   0.322   0.337  14.625  0.8261  0.6184  1.6289
 2850TIP3   OH229964   1.058   5.966   3.275 -0.6039 -0.0576  0.6275
 2850TIP3    H129965   0.968   5.935   3.265 -0.0724 -1.0546 -1.7088
 2850TIP3    H229966   1.103   5.896   3.322 -0.5754 -0.6070 -0.1881
 2851TIP3   OH229967   6.114   1.720  15.617 -0.2626  0.2374 -0.7372
 2851TIP3    H129968   6.062   1.641  15.624 -1.2450  0.9769  1.2742
 2851TIP3    H229969   6.051   1.792  15.624  0.8435  1.1673  0.3799
 2852TIP3   OH229970   5.573   1.593  16.791 -0.5095  0.1312  0.0891
 2852TIP3    H129971   5.663   1.562  16.793 -0.1990  1.0288  1.2274
 2852TIP3    H229972   5.520   1.514  16.797  0.1896 -0.4207 -0.7440
 2853TIP3   OH229973   5.633   0.502   3.256 -0.6281  0.4295  0.3103
 2853TIP3    H129974   5.659   0.591   3.232 -2.1147  1.1205  1.1662
 2853TIP3    H229975   5.701   0.474   3.318  0.1747  0.7279 -0.4112
 2854TIP3   OH229976   0.085   1.776  13.326  0.1585  0.2266  0.0483
 2854TIP3    H129977   0.096   1.757  13.419  1.8169  1.4322  0.1464
 2854TIP3    H229978  -0.009   1.790  13.315  0.0551  1.2112  1.8049
 2855TIP3   OH229979   3.089   3.211  15.312 -0.4985  0.0877 -0.3013
 2855TIP3    H129980   3.102   3.283  15.250 -0.3749  0.0836 -0.2803
 2855TIP3    H229981   3.059   3.254  15.393 -0.5573  0.1025 -0.3307
 2856TIP3   OH229982   5.588   3.814   6.538 -0.7581 -0.4138  0.2357
 2856TIP3    H129983   5.655   3.753   6.570  0.4982  1.3668  1.1049
 2856TIP3    H229984   5.523   3.757   6.496  0.7803 -2.2857  0.2437
 2857TIP3   OH229985   5.604   4.147   4.030 -0.2891 -0.0893  0.2031
 2857TIP3    H129986   5.584   4.148   4.124  0.6284 -1.5417  0.4416
 2857TIP3    H229987   5.650   4.064   4.016 -1.9482 -0.7581 -1.8447
 2858TIP3   OH229988   0.498   6.272  13.732  0.0041 -0.1536  0.5141
 2858TIP3    H129989   0.423   6.325  13.758 -0.0170  0.3519 -0.5364
 2858TIP3    H229990   0.465   6.218  13.661  0.5543 -0.1613  0.2648
 2859TIP3   OH229991   2.177   4.147   1.531  0.6318  0.3112 -0.0303
 2859TIP3    H129992   2.149   4.222   1.478 -0.6743 -0.1772 -0.0690
 2859TIP3    H229993   2.197   4.184   1.616 -0.0704  0.7084 -0.0302
 2860TIP3   OH229994   2.881   5.918   4.014 -0.1033 -0.3188 -0.3969
 2860TIP3    H129995   2.931   5.859   4.070 -0.0578 -0.1415 -0.2492
 2860TIP3    H229996   2.822   5.964   4.073 -1.4727 -1.5514 -0.7594
 2861TIP3   OH229997   6.378   1.644  11.021 -0.0777 -0.6413  0.2377
 2861TIP3    H129998   6.438   1.663  10.948 -0.1536 -1.6971 -0.1326
 2861TIP3    H229999   6.300   1.607  10.978 -1.0740  0.8318  0.7029
 2862TIP3   OH230000   6.455   4.878   1.735  0.6278  0.7411  0.3017
 2862TIP3    H130001   6.361   4.858   1.739  0.5058  1.3924  0.9791
 2862TIP3    H230002   6.476   4.878   1.641  0.5298 -1.9166  0.1975
 2863TIP3   OH230003   2.385   5.165  14.087 -0.5720  0.0275  0.2737
 2863TIP3    H130004   2.327   5.150  14.161 -1.9026 -0.9382 -0.9088
 2863TIP3    H230005   2.370   5.090  14.029 -1.0794  1.7070 -1.9111
 2864TIP3   OH230006   2.200   5.460  14.291 -0.3596 -0.8008 -0.2263
 2864TIP3    H130007   2.147   5.538  14.308 -0.0964 -0.6739  0.0278
 2864TIP3    H230008   2.243   5.442  14.375  1.0158 -0.1201 -0.7395
 2865TIP3   OH230009   5.552   4.711  13.379  0.5510  0.2260  0.2150
 2865TIP3    H130010   5.477   4.724  13.321  0.5114 -0.6049  0.0693
 2865TIP3    H230011   5.535   4.769  13.453  0.4531  1.0815 -0.4565
 2866TIP3   OH230012   5.554   2.742  11.554  0.3916  0.4021 -0.4887
 2866TIP3    H130013   5.645   2.756  11.527  0.6770  0.6975  0.5876
 2866TIP3    H230014   5.560   2.711  11.645 -0.5605 -0.1836 -0.6059
 2867TIP3   OH230015   5.693   3.863  14.552  0.1895  1.0540 -0.3122
 2867TIP3    H130016   5.623   3.897  14.497  0.5367  1.5602 -0.4425
 2867TIP3    H230017   5.727   3.787  14.504 -1.4124 -0.2841  0.5621
 2868TIP3   OH230018   2.143   5.172  16.037 -0.2911  0.2071  0.1735
 2868TIP3    H130019   2.091   5.202  16.111 -0.1852 -0.0557  0.3551
 2868TIP3    H230020   2.230   5.154  16.074  0.2296  1.5921 -0.3082
 2869TIP3   OH230021   2.342   3.558   0.984 -0.4315 -0.4321 -0.5475
 2869TIP3    H130022   2.379   3.639   0.948  0.1460 -0.5689 -0.2553
 2869TIP3    H230023   2.305   3.584   1.068  1.1301 -0.7723  0.2741
 2870TIP3   OH230024   6.670   4.032   2.679 -0.2581 -0.1441 -0.3887
 2870TIP3    H130025   6.578   4.009   2.692  0.1571 -1.2639  0.8871
 2870TIP3    H230026   6.695   3.985   2.600 -0.7988  0.2310 -0.7885
 2871TIP3   OH230027   1.129   1.260  13.025  0.1079  0.3107  0.2181
 2871TIP3    H130028   1.164   1.194  12.965  0.4354  1.2902 -0.7096
 2871TIP3    H230029   1.054   1.297  12.979  1.1525  2.0051 -0.2376
 2872TIP3   OH230030   3.998   2.654  15.623 -0.0270 -0.1086  0.3134
 2872TIP3    H130031   3.992   2.750  15.624  0.1701 -0.0690 -0.7553
 2872TIP3    H230032   4.087   2.636  15.595 -0.8167 -0.5540 -2.1939
 2873TIP3   OH230033   4.590   2.835   3.111  0.3519 -0.6500  0.0929
 2873TIP3    H130034   4.652   2.764   3.128 -0.5080 -1.3378  0.4196
 2873TIP3    H230035   4.536   2.839   3.189 -0.7465 -0.8373 -0.6295
 2874TIP3   OH230036   4.241   5.081  15.557  0.1926  0.0565  0.0833
 2874TIP3    H130037   4.185   5.004  15.546  0.3700 -0.2302  1.1041
 2874TIP3    H230038   4.223   5.135  15.479 -0.0007 -0.9600 -0.5934
 2875TIP3   OH230039   4.416   1.698  14.583 -0.1935  0.2591  0.3829
 2875TIP3    H130040   4.491   1.690  14.642 -0.4490  0.5185  0.7385
 2875TIP3    H230041   4.407   1.610  14.544  1.2436  0.5974 -0.8275
 2876TIP3   OH230042   2.498   2.732  13.611 -0.1484  0.1732  0.0714
 2876TIP3    H130043   2.532   2.802  13.555  1.9245 -1.0549 -0.3676
 2876TIP3    H230044   2.532   2.652  13.570 -0.7720 -0.9405  1.6507
 2877TIP3   OH230045   0.096   5.092   3.087  0.0495 -0.4919  0.2818
 2877TIP3    H130046   0.112   5.026   3.019 -0.7828 -0.4826  0.0578
 2877TIP3    H230047   0.000   5.097   3.093  0.1097 -0.1027  1.0817
 2878TIP3   OH230048   4.582   4.575  14.802 -0.2055 -0.0710 -0.5461
 2878TIP3    H130049   4.569   4.509  14.733  0.4131  1.2425 -1.9750
 2878TIP3    H230050   4.645   4.636  14.765 -0.0327  0.8171  1.1255
 2879TIP3   OH230051   5.434   2.397  14.236 -0.3956  0.6612 -0.1318
 2879TIP3    H130052   5.521   2.375  14.269 -1.4162 -0.6729  1.8693
 2879TIP3    H230053   5.425   2.346  14.156  0.7228  0.9395 -0.4455
 2880TIP3   OH230054   6.780   6.787  16.363  0.1543 -0.2155 -0.0599
 2880TIP3    H130055   6.864   6.742  16.358 -0.8159 -2.0242 -1.1258
 2880TIP3    H230056   6.758   6.785  16.456  1.4175  0.5657  0.2745
 2881TIP3   OH230057   5.702   2.749   4.930  0.3514 -0.1914 -0.0390
 2881TIP3    H130058   5.640   2.706   4.989 -0.6846  2.0992  0.6430
 2881TIP3    H230059   5.763   2.795   4.987  1.1673 -0.3589 -0.7461
 2882TIP3   OH230060   3.733   3.536  11.860  0.0433 -0.3397 -0.4043
 2882TIP3    H130061   3.714   3.503  11.948  0.5923 -1.7862 -0.7843
 2882TIP3    H230062   3.657   3.588  11.836 -0.1041  0.0902  0.9303
 2883TIP3   OH230063   2.480   1.333  12.687  0.2213  0.1605  0.3434
 2883TIP3    H130064   2.395   1.325  12.730 -1.4459  0.2797 -2.6696
 2883TIP3    H230065   2.516   1.415  12.720 -0.5186 -0.1545  2.0639
 2884TIP3   OH230066   1.924   6.406   3.734  0.3688 -0.0863 -0.1318
 2884TIP3    H130067   1.925   6.365   3.821 -0.0156 -0.0617 -0.1119
 2884TIP3    H230068   1.863   6.352   3.684  0.3468  0.0872 -0.2911
 2885TIP3   OH230069   6.223   5.145   2.815 -0.6145 -0.1595 -0.3460
 2885TIP3    H130070   6.212   5.197   2.736 -0.7874 -0.6259 -0.6356
 2885TIP3    H230071   6.179   5.195   2.883 -1.8407 -0.4827 -0.8569
 2886TIP3   OH230072   5.965   5.765  13.843 -0.2832  0.6115  0.0638
 2886TIP3    H130073   5.898   5.717  13.794  0.5974  1.4535 -2.0707
 2886TIP3    H230074   5.939   5.857  13.836 -0.4997  0.7180  1.8219
 2887TIP3   OH230075   2.301   6.097  14.730 -0.7877 -0.0727 -0.4325
 2887TIP3    H130076   2.219   6.061  14.696 -1.6027  0.5738  0.7780
 2887TIP3    H230077   2.283   6.190  14.743  0.5767  0.3588 -1.4078
 2888TIP3   OH230078   4.865   1.033   4.620 -0.4764 -0.2297 -0.5161
 2888TIP3    H130079   4.823   1.068   4.541 -0.3877  0.3621 -0.3059
 2888TIP3    H230080   4.834   1.090   4.691  1.6353  1.0220 -0.5285
 2889TIP3   OH230081   0.768   5.280   2.411 -0.2593 -0.1357 -0.0496
 2889TIP3    H130082   0.859   5.300   2.389 -0.4774  0.1328 -0.7599
 2889TIP3    H230083   0.760   5.298   2.504  0.5626 -0.7307  0.1402
 2890TIP3   OH230084   3.281   3.251  10.301  0.4192  0.6763  0.6841
 2890TIP3    H130085   3.204   3.218  10.347  0.4419 -2.4765 -1.2179
 2890TIP3    H230086   3.335   3.174  10.286  3.2285  2.5187  0.5160
 2891TIP3   OH230087   0.124   1.140   2.748 -0.2562 -0.4160  1.0362
 2891TIP3    H130088   0.040   1.099   2.730 -0.3512  0.3377 -0.3859
 2891TIP3    H230089   0.182   1.068   2.770 -0.5649 -1.2657 -0.8342
 2892TIP3   OH230090   2.684   6.742  12.824  0.0738  0.0615  0.3055
 2892TIP3    H130091   2.745   6.813  12.804 -0.7625  0.8795  0.5804
 2892TIP3    H230092   2.624   6.779  12.889  0.7853 -1.5120  1.9325
 2893TIP3   OH230093   6.612   4.927  14.923 -0.4631  0.1603  0.2830
 2893TIP3    H130094   6.557   4.980  14.981  1.5750  1.1453  1.4432
 2893TIP3    H230095   6.681   4.892  14.980  1.4178  0.8541 -1.4282
 2894TIP3   OH230096   3.520   3.934  13.887  0.5625 -0.0812  0.7393
 2894TIP3    H130097   3.470   4.014  13.870  0.9985  0.0259 -0.0810
 2894TIP3    H230098   3.604   3.948  13.843 -0.0434 -1.7477 -1.0520
 2895TIP3   OH230099   0.541   4.013   1.537 -0.0335 -0.2294 -0.1624
 2895TIP3    H130100   0.513   4.103   1.518  0.6840 -0.3432 -1.9184
 2895TIP3    H230101   0.504   3.962   1.466  0.3344 -1.2036  0.3373
 2896TIP3   OH230102   5.125   2.597   4.091  0.1924  0.4714 -0.3756
 2896TIP3    H130103   5.201   2.650   4.067  1.4726 -1.0042  0.2643
 2896TIP3    H230104   5.120   2.605   4.186 -0.6822  0.8258 -0.4433
 2897TIP3   OH230105   2.673   5.001  13.972 -0.0041 -0.2587 -0.0876
 2897TIP3    H130106   2.631   5.024  14.055  0.1402 -0.0890 -0.0583
 2897TIP3    H230107   2.737   4.934  13.995  0.8360  0.6027  0.1365
 2898TIP3   OH230108   6.694   5.796  15.414  0.1176  0.8075 -0.0456
 2898TIP3    H130109   6.624   5.735  15.436 -0.0298 -0.0652 -2.5892
 2898TIP3    H230110   6.696   5.858  15.487 -2.1842 -0.0860  0.8631
 2899TIP3   OH230111   1.838   5.471   5.111 -0.4107 -0.4788 -0.5536
 2899TIP3    H130112   1.916   5.417   5.102 -1.1004 -1.2992 -1.9734
 2899TIP3    H230113   1.783   5.423   5.174  0.6793  0.7189  1.4162
 2900TIP3   OH230114   1.081   2.107  13.346 -0.2620  0.0756  0.0295
 2900TIP3    H130115   1.054   2.176  13.407 -1.5197 -0.9808  0.7167
 2900TIP3    H230116   1.011   2.042  13.351  0.2034 -0.6063 -1.6581
 2901TIP3   OH230117   0.216   3.742  12.078 -0.1326 -0.4550  0.1830
 2901TIP3    H130118   0.283   3.806  12.101 -0.9715  0.7396 -0.5403
 2901TIP3    H230119   0.263   3.671  12.034  0.7665 -0.1305  0.6125
 2902TIP3   OH230120   6.586   6.770   5.697 -0.4433 -0.1319  0.2263
 2902TIP3    H130121   6.620   6.710   5.764 -0.2190 -0.7194 -0.3983
 2902TIP3    H230122   6.494   6.747   5.689 -0.1380 -1.1095 -0.7284
 2903TIP3   OH230123   6.189   0.318   2.744  0.0784 -0.8030 -0.1944
 2903TIP3    H130124   6.223   0.334   2.656  1.2161 -0.5886  0.2718
 2903TIP3    H230125   6.140   0.397   2.766  0.9237 -0.2900 -0.1205
 2904TIP3   OH230126   4.100   5.940  12.104 -0.1906 -0.0188  0.2967
 2904TIP3    H130127   4.168   5.946  12.172  0.8979 -1.3043 -0.6295
 2904TIP3    H230128   4.079   6.031  12.083  0.3083  0.3991  1.4992
 2905TIP3   OH230129   6.614   6.070   3.730 -0.0509  0.1136 -0.1997
 2905TIP3    H130130   6.688   6.011   3.745 -1.3179 -1.6182 -0.4729
 2905TIP3    H230131   6.617   6.087   3.635  1.1925  1.7950  0.0778
 2906TIP3   OH230132   3.227   4.709   1.898  0.0477  0.3526 -0.4916
 2906TIP3    H130133   3.133   4.692   1.889 -0.0843  0.8009 -0.0272
 2906TIP3    H230134   3.240   4.724   1.992  0.4045  1.2894 -0.6816
 2907TIP3   OH230135   4.553   0.582  11.211  0.7489 -0.4324 -0.0498
 2907TIP3    H130136   4.634   0.581  11.261 -0.4970  2.1553  2.2421
 2907TIP3    H230137   4.580   0.562  11.121  3.7662 -0.4921  0.7819
 2908TIP3   OH230138   2.708   4.630  13.648 -0.0159 -0.0539  0.2724
 2908TIP3    H130139   2.785   4.686  13.642 -0.0748 -0.1364 -2.4046
 2908TIP3    H230140   2.702   4.607  13.741  2.7585  0.5245  0.6747
 2909TIP3   OH230141   3.734   0.981  12.166  0.2725 -0.6025 -0.1758
 2909TIP3    H130142   3.817   1.027  12.167  0.5586 -1.0195  2.4393
 2909TIP3    H230143   3.750   0.903  12.112  1.8378 -1.0650  0.8958
 2910TIP3   OH230144   1.393   5.827   6.189 -0.6769  0.4168 -0.5764
 2910TIP3    H130145   1.326   5.776   6.235  0.1570  0.1216  0.3653
 2910TIP3    H230146   1.440   5.763   6.136 -1.0422  0.5998 -1.1299
 2911TIP3   OH230147   1.089   6.733   4.619 -0.2284  0.6560  0.6685
 2911TIP3    H130148   1.091   6.752   4.525 -0.2079  0.7867  0.6964
 2911TIP3    H230149   1.143   6.801   4.659 -1.7459  1.7463  0.9753
 2912TIP3   OH230150   2.766   4.308  16.605 -0.7443  0.4686 -0.2467
 2912TIP3    H130151   2.841   4.367  16.594  0.4815 -1.4085 -2.7421
 2912TIP3    H230152   2.767   4.286  16.698 -0.2198  3.0012  0.4155
 2913TIP3   OH230153   2.541   6.357  14.928  0.8524  0.2769 -0.1220
 2913TIP3    H130154   2.541   6.436  14.982  1.2475 -0.8611  1.6649
 2913TIP3    H230155   2.543   6.388  14.838  0.4278  2.2873  0.5220
 2914TIP3   OH230156   3.999   1.834   2.202 -0.2494 -0.2984 -0.2217
 2914TIP3    H130157   4.085   1.857   2.237  0.4640 -1.3036 -1.2472
 2914TIP3    H230158   4.013   1.827   2.107 -1.0082 -2.3504 -0.2230
 2915TIP3   OH230159   0.387   2.158   4.095 -0.0225  0.5499  0.0200
 2915TIP3    H130160   0.315   2.110   4.054 -1.6349  0.6608  2.4824
 2915TIP3    H230161   0.362   2.250   4.087 -0.0698  0.6006  0.6851
 2916TIP3   OH230162   4.609   2.125  16.228  0.0947 -0.1100  0.1926
 2916TIP3    H130163   4.595   2.038  16.265  1.1115 -0.7801 -0.9395
 2916TIP3    H230164   4.685   2.115  16.171 -0.6230  1.1814 -1.0486
 2917TIP3   OH230165   1.922   5.234   1.268  0.4127  0.4477 -0.5532
 2917TIP3    H130166   1.966   5.319   1.276 -0.1035  0.6868 -0.2943
 2917TIP3    H230167   1.885   5.236   1.179  3.2747 -0.8734 -1.9263
 2918TIP3   OH230168   5.488   0.070   0.034 -0.3724  0.3005 -0.5507
 2918TIP3    H130169   5.470   0.159   0.063  0.6599  0.9443 -1.7417
 2918TIP3    H230170   5.490   0.076  -0.062  1.1418 -0.6784 -0.6295
 2919TIP3   OH230171   4.121   1.322  14.808  0.0001  0.4040  0.2489
 2919TIP3    H130172   4.055   1.392  14.806 -1.7787 -1.2017 -0.2976
 2919TIP3    H230173   4.199   1.363  14.845 -0.9588  2.6759 -0.1015
 2920TIP3   OH230174   5.759   1.370  13.590  0.5283  0.1288  0.2299
 2920TIP3    H130175   5.759   1.338  13.499  0.5866 -2.3344  1.0441
 2920TIP3    H230176   5.687   1.433  13.592 -1.1995 -1.6753 -0.9417
 2921TIP3   OH230177   4.860   1.185  13.086  0.0554 -0.3866  0.0482
 2921TIP3    H130178   4.872   1.153  13.176  1.2210 -1.3800 -0.4362
 2921TIP3    H230179   4.780   1.238  13.091  0.5381  0.2702  1.8389
 2922TIP3   OH230180   4.163   4.258   1.617 -0.1972 -0.0412 -0.2396
 2922TIP3    H130181   4.238   4.315   1.630 -0.0076 -0.6806  2.0692
 2922TIP3    H230182   4.198   4.169   1.629 -1.2666 -0.3483  0.8307
 2923TIP3   OH230183   1.375   2.847  15.092 -0.1230  0.3966 -0.1510
 2923TIP3    H130184   1.301   2.806  15.137 -0.4967 -0.6610 -1.6440
 2923TIP3    H230185   1.339   2.928  15.055 -0.5521 -0.1023 -0.8524
 2924TIP3   OH230186   5.757   4.707   3.952  0.0233 -0.1562 -0.0265
 2924TIP3    H130187   5.742   4.800   3.935  2.0997 -0.0907 -2.0097
 2924TIP3    H230188   5.778   4.703   4.045  0.5539  1.4851 -0.0360
 2925TIP3   OH230189   4.775   4.263   3.196  0.1074 -0.3519  0.3249
 2925TIP3    H130190   4.692   4.279   3.241 -0.3579  0.1486 -0.6683
 2925TIP3    H230191   4.764   4.304   3.110 -0.2630 -3.8835 -1.5165
 2926TIP3   OH230192   1.223   1.672   0.970 -0.1239 -0.3237  0.7865
 2926TIP3    H130193   1.301   1.695   1.020  0.3557  0.1807 -0.1728
 2926TIP3    H230194   1.174   1.613   1.027  0.6362 -0.1211  1.6556
 2927TIP3   OH230195   6.260   0.889   2.789  0.1234 -0.2749  0.3748
 2927TIP3    H130196   6.212   0.812   2.759 -0.2023  0.9517 -2.5834
 2927TIP3    H230197   6.193   0.952   2.816  0.0682  0.5989 -1.6108
 2928TIP3   OH230198   0.536   6.676   5.590  0.2973 -0.4592 -0.2101
 2928TIP3    H130199   0.468   6.730   5.631 -0.8321 -1.0579 -1.2494
 2928TIP3    H230200   0.600   6.662   5.660 -0.4389  0.4478  0.6842
 2929TIP3   OH230201   0.870   4.859   0.727 -0.5960  0.1962 -0.2285
 2929TIP3    H130202   0.807   4.915   0.771  0.7598  2.8255 -1.3660
 2929TIP3    H230203   0.826   4.830   0.648 -1.0892  0.2855  0.0136
 2930TIP3   OH230204   5.956   2.670  12.046  0.0190 -0.2609  0.3308
 2930TIP3    H130205   5.862   2.661  12.038 -0.0999  0.7841  0.3699
 2930TIP3    H230206   5.984   2.711  11.964  0.4814 -0.8003  0.2074
 2931TIP3   OH230207   0.985   0.913  13.905  0.1060 -0.1314  0.6389
 2931TIP3    H130208   1.026   1.000  13.908 -0.7260  0.3669 -0.9101
 2931TIP3    H230209   0.895   0.928  13.933 -0.5198 -0.1331 -1.2419
 2932TIP3   OH230210   4.506   4.883  12.371  0.2444 -0.2268  0.2788
 2932TIP3    H130211   4.457   4.950  12.419 -0.1573 -0.3845  0.0979
 2932TIP3    H230212   4.510   4.916  12.281  2.6910  1.0236  0.7582
 2933TIP3   OH230213   5.811   5.578  12.728 -0.2317 -0.0288 -0.0286
 2933TIP3    H130214   5.816   5.531  12.812  1.3922 -0.3657 -0.2942
 2933TIP3    H230215   5.761   5.519  12.671  0.5829 -0.8329  0.0591
 2934TIP3   OH230216   0.811   1.524   5.564  0.4140 -0.2195 -0.0514
 2934TIP3    H130217   0.866   1.603   5.568 -0.1633  0.1695  0.3435
 2934TIP3    H230218   0.871   1.453   5.583  0.4877  0.3503  2.1391
 2935TIP3   OH230219   4.633   0.386  12.283 -0.2097 -0.2190 -0.3708
 2935TIP3    H130220   4.571   0.449  12.321  0.5664  0.5980 -0.4359
 2935TIP3    H230221   4.691   0.439  12.229 -0.7405 -1.2528 -2.0177
 2936TIP3   OH230222   2.459   2.631   0.545  0.0531 -0.2045  0.1756
 2936TIP3    H130223   2.554   2.637   0.554  0.1967 -1.1347 -0.5453
 2936TIP3    H230224   2.425   2.682   0.619  1.0978  0.6374  0.1123
 2937TIP3   OH230225   5.084   2.601  14.461  0.3076  0.0271 -0.3712
 2937TIP3    H130226   5.084   2.525  14.519  2.6935 -0.1745 -0.5220
 2937TIP3    H230227   5.047   2.568  14.379 -0.6867 -0.3586  0.2066
 2938TIP3   OH230228   3.432   0.661  13.265  0.4056  0.0090  0.2165
 2938TIP3    H130229   3.508   0.630  13.313  1.4077  1.0159 -0.6662
 2938TIP3    H230230   3.453   0.751  13.241 -1.8186  0.9696  1.5029
 2939TIP3   OH230231   5.417   0.424  13.903  0.2681  0.2324 -0.2665
 2939TIP3    H130232   5.399   0.347  13.958 -0.1328  0.9525  0.6472
 2939TIP3    H230233   5.373   0.406  13.820 -1.6679  0.3673  0.6679
 2940TIP3   OH230234   5.213   4.875  13.862  0.5593 -0.0695 -0.3959
 2940TIP3    H130235   5.250   4.960  13.886 -0.0367  0.7001 -2.0591
 2940TIP3    H230236   5.128   4.896  13.823 -1.6077 -1.7243  2.9058
 2941TIP3   OH230237   4.243   5.325  11.614  0.0179 -0.1151 -0.2180
 2941TIP3    H130238   4.159   5.282  11.596 -0.2600  0.4260 -0.2400
 2941TIP3    H230239   4.220   5.417  11.631  0.6836  0.2194 -1.0394
 2942TIP3   OH230240   5.409   5.636  16.415 -0.2087 -0.3437  0.4033
 2942TIP3    H130241   5.462   5.600  16.344 -0.3739 -2.1334  1.1344
 2942TIP3    H230242   5.359   5.707  16.373 -0.5294 -1.5301 -1.3719
 2943TIP3   OH230243   1.318   3.228   0.560  0.1228 -0.8792 -0.1921
 2943TIP3    H130244   1.335   3.135   0.575  1.1122 -0.7375 -0.3432
 2943TIP3    H230245   1.250   3.229   0.493  0.3943 -1.4967 -0.4911
 2944TIP3   OH230246   4.663   1.325  16.233 -0.2950 -0.3851  0.4588
 2944TIP3    H130247   4.665   1.320  16.137 -3.6661  1.1013  0.1540
 2944TIP3    H230248   4.674   1.418  16.252  0.1442 -0.6417  1.5451
 2945TIP3   OH230249   1.190   4.364   0.746  0.3957 -0.2059 -0.0569
 2945TIP3    H130250   1.253   4.364   0.818  0.1745  0.3446  0.1490
 2945TIP3    H230251   1.171   4.272   0.729  2.5078 -0.4738 -1.2367
 2946TIP3   OH230252   1.918   0.550  13.016  0.5116 -0.0029  0.1613
 2946TIP3    H130253   1.971   0.541  12.938  0.5539 -0.7169  0.2584
 2946TIP3    H230254   1.829   0.526  12.988  0.3798  0.4696  0.1645
 2947TIP3   OH230255   3.486   5.550   5.522 -0.1109  0.3475 -0.0337
 2947TIP3    H130256   3.429   5.625   5.510 -1.4681 -0.5940  0.2274
 2947TIP3    H230257   3.574   5.587   5.530 -0.4751  1.7417 -1.9095
 2948TIP3   OH230258   3.578   2.151   0.961  0.2984  0.5347  0.4426
 2948TIP3    H130259   3.545   2.239   0.980  1.0015  0.8372  0.2761
 2948TIP3    H230260   3.551   2.135   0.870 -0.2604  0.3773  0.6339
 2949TIP3   OH230261   4.090   1.940  14.928 -0.3193 -0.4952 -0.5525
 2949TIP3    H130262   4.176   1.971  14.900 -0.4843  0.2680 -0.2306
 2949TIP3    H230263   4.049   2.016  14.969 -2.1531 -0.1268 -2.8959
 2950TIP3   OH230264   0.473   3.710   5.730 -0.3594  0.0775  0.0109
 2950TIP3    H130265   0.470   3.658   5.810  0.7293  1.2733  0.8806
 2950TIP3    H230266   0.398   3.770   5.738  0.2927  0.8366  0.6295
 2951TIP3   OH230267   1.053   1.212   3.652  0.0969 -0.0883  0.0341
 2951TIP3    H130268   1.090   1.225   3.565  0.2421 -2.6156 -0.3625
 2951TIP3    H230269   0.969   1.169   3.637  0.4859 -1.3204  1.1136
 2952TIP3   OH230270   2.933   4.523  17.054  0.6151  0.3100 -0.4042
 2952TIP3    H130271   2.948   4.475  16.972 -0.3223 -0.8957  0.1130
 2952TIP3    H230272   2.855   4.576  17.037  0.0598 -0.3991 -0.1116
 2953TIP3   OH230273   3.681   4.743   1.653  0.3346 -0.0722  0.2861
 2953TIP3    H130274   3.621   4.674   1.679  0.8105 -0.6730 -0.1632
 2953TIP3    H230275   3.727   4.707   1.576  3.9185 -1.2482  2.6895
 2954TIP3   OH230276   1.091   5.653   5.000  0.8237  0.5155 -0.2936
 2954TIP3    H130277   1.123   5.562   5.006 -2.1090 -0.5923  0.0717
 2954TIP3    H230278   1.044   5.656   4.917  1.0218  1.8020 -0.3823
 2955TIP3   OH230279   3.218   5.515   2.645 -0.5275 -0.5486 -0.0316
 2955TIP3    H130280   3.215   5.611   2.642 -1.1419 -0.3701  3.0503
 2955TIP3    H230281   3.266   5.490   2.566  2.2057  2.4473  0.4736
 2956TIP3   OH230282   3.297   3.160   5.426  0.6463 -0.0027  0.1421
 2956TIP3    H130283   3.311   3.245   5.383 -0.6604 -0.7653 -1.9629
 2956TIP3    H230284   3.381   3.115   5.416 -0.0009 -0.7602 -3.2816
 2957TIP3   OH230285   2.883   6.200   2.342  0.1234  0.4304 -0.1512
 2957TIP3    H130286   2.844   6.155   2.267 -1.2965 -0.1916  0.9034
 2957TIP3    H230287   2.883   6.293   2.318 -0.8603  0.2957 -0.6994
 2958TIP3   OH230288   6.001   2.154   1.856  0.3376  0.5430  0.3343
 2958TIP3    H130289   6.037   2.159   1.768  1.6086  0.2378  0.8069
 2958TIP3    H230290   5.980   2.244   1.879 -1.8186  0.4324 -0.9587
 2959TIP3   OH230291   5.586   6.386   1.688  0.0406 -0.4702 -0.2303
 2959TIP3    H130292   5.641   6.324   1.736  0.0008 -1.2140 -1.1348
 2959TIP3    H230293   5.648   6.445   1.646  0.0947 -0.2841  0.1037
 2960TIP3   OH230294   1.208   0.002  16.676 -0.7441  1.2133  0.0047
 2960TIP3    H130295   1.284   0.014  16.618 -0.2828 -3.7685 -0.8581
 2960TIP3    H230296   1.137  -0.023  16.617 -1.0566 -1.0838  1.2712
 2961TIP3   OH230297   3.255   2.520   5.133  0.2870  0.1993  0.1279
 2961TIP3    H130298   3.255   2.615   5.147 -0.5333  0.1892  0.2076
 2961TIP3    H230299   3.266   2.509   5.039  2.1547  0.3277  0.2823
 2962TIP3   OH230300   4.758   6.416   6.050  0.3266  0.5365  0.0423
 2962TIP3    H130301   4.831   6.393   5.992 -0.9014 -0.6117 -1.0989
 2962TIP3    H230302   4.791   6.397   6.138  0.6571 -2.2630 -0.5888
 2963TIP3   OH230303   4.657   5.588  12.983 -0.4332  0.1049  0.5599
 2963TIP3    H130304   4.642   5.568  12.890 -0.4137  0.8006  0.3975
 2963TIP3    H230305   4.569   5.599  13.019 -0.4263  1.8219  0.1508
 2964TIP3   OH230306   0.903   6.315  13.032 -0.7048  0.4490  0.3362
 2964TIP3    H130307   0.968   6.386  13.036  1.0484 -0.9064 -1.8860
 2964TIP3    H230308   0.844   6.341  12.961  0.8239 -0.8992 -1.5228
 2965TIP3   OH230309   5.783   3.178   2.500  0.7450  0.7166 -0.1468
 2965TIP3    H130310   5.724   3.106   2.476  0.2944  0.9851  0.1400
 2965TIP3    H230311   5.783   3.236   2.424  0.8168  0.6015 -0.2350
 2966TIP3   OH230312   4.993   0.278   2.712 -0.3284 -0.4384  0.2181
 2966TIP3    H130313   5.062   0.234   2.762  0.4377  0.4652 -0.0130
 2966TIP3    H230314   5.027   0.366   2.696 -2.4669  0.8347  2.0274
 2967TIP3   OH230315   2.242   5.741   0.644 -1.0196 -0.0290  0.1870
 2967TIP3    H130316   2.162   5.793   0.639  0.0823  1.7547  0.3362
 2967TIP3    H230317   2.311   5.804   0.663  0.5752 -1.3896 -0.7869
 2968TIP3   OH230318   0.460   1.374  16.856  0.5609  0.0837  0.1995
 2968TIP3    H130319   0.424   1.435  16.920 -0.0287 -0.5611  0.4941
 2968TIP3    H230320   0.385   1.323  16.825  0.9932 -0.2942 -0.2630
 2969TIP3   OH230321   6.103   3.219  12.384  0.7336 -0.2448  0.1850
 2969TIP3    H130322   6.195   3.244  12.382  0.5864  0.4487  1.2600
 2969TIP3    H230323   6.086   3.197  12.476 -0.6880  1.7400  0.4682
 2970TIP3   OH230324   6.412   3.272   1.483 -0.5868 -0.0229 -0.4771
 2970TIP3    H130325   6.358   3.307   1.553  1.7582  1.5766  0.6711
 2970TIP3    H230326   6.357   3.277   1.405 -1.6510  2.8397  0.3491
 2971TIP3   OH230327   2.261   3.668  11.716 -0.0291 -0.0616 -0.2771
 2971TIP3    H130328   2.282   3.719  11.795  3.7062 -2.0360  0.1930
 2971TIP3    H230329   2.343   3.664  11.667 -0.8196 -3.3448 -1.5963
 2972TIP3   OH230330   3.365   1.967  14.566  0.0251  0.3564  0.3960
 2972TIP3    H130331   3.271   1.953  14.578 -0.2015  0.0896 -1.5013
 2972TIP3    H230332   3.372   2.030  14.495  1.2875 -1.4552 -1.1887
 2973TIP3   OH230333   1.178   1.621  11.250 -0.0727 -0.5961  0.1774
 2973TIP3    H130334   1.102   1.562  11.243 -0.1214 -0.4555 -0.6264
 2973TIP3    H230335   1.252   1.562  11.267 -0.3541 -0.7372  0.9302
 2974TIP3   OH230336   5.834   0.265   4.102 -0.1954  0.2763  0.1874
 2974TIP3    H130337   5.743   0.245   4.125 -0.3219 -1.5588 -1.5673
 2974TIP3    H230338   5.882   0.260   4.184 -1.8417  2.6752  1.4014
 2975TIP3   OH230339   1.937   4.266   0.469 -0.8653  0.0916  0.0404
 2975TIP3    H130340   1.899   4.311   0.394 -0.1663  2.0503  0.8031
 2975TIP3    H230341   2.021   4.308   0.483 -1.0441 -0.0926  2.0251
 2976TIP3   OH230342   2.749   3.622   1.963  0.4410 -0.4300 -0.1454
 2976TIP3    H130343   2.754   3.603   2.057  2.2008  0.1832 -0.0760
 2976TIP3    H230344   2.819   3.570   1.924  0.9354  0.7142 -0.8489
 2977TIP3   OH230345   1.180   1.490   3.287 -0.5395 -0.1224  0.1399
 2977TIP3    H130346   1.230   1.522   3.362  0.2900 -1.0165 -0.0017
 2977TIP3    H230347   1.128   1.417   3.322 -1.0490  0.2100  0.0866
 2978TIP3   OH230348   3.944   3.546   3.136  0.3831  0.4755 -0.1984
 2978TIP3    H130349   3.911   3.592   3.059  1.2683  1.3540 -0.0738
 2978TIP3    H230350   3.867   3.503   3.173 -0.0298 -0.0743 -1.6354
 2979TIP3   OH230351   4.428   4.190   1.918  0.6239 -0.1146  0.2187
 2979TIP3    H130352   4.451   4.275   1.956 -1.8190  1.2024 -0.9543
 2979TIP3    H230353   4.354   4.159   1.971 -1.3984  0.7216 -1.8985
 2980TIP3   OH230354   3.052   1.296   1.206  0.7231  0.7414 -0.9752
 2980TIP3    H130355   3.129   1.244   1.181  0.1674 -0.0262 -1.1283
 2980TIP3    H230356   3.044   1.284   1.300 -0.5292 -1.0671 -1.2654
 2981TIP3   OH230357   3.196   2.764   5.262 -0.7684  0.3700  0.2397
 2981TIP3    H130358   3.213   2.754   5.355  0.5378 -0.9785 -0.1070
 2981TIP3    H230359   3.101   2.768   5.255 -0.9040 -0.1838  1.5624
 2982TIP3   OH230360   3.875   0.231  13.944  0.1244 -0.2056 -0.0506
 2982TIP3    H130361   3.891   0.158  13.885 -0.9956 -0.6771  0.2137
 2982TIP3    H230362   3.861   0.307  13.887  1.0772 -0.2286 -0.3266
 2983TIP3   OH230363   6.734   4.422  13.476 -0.0628 -0.4517  0.1044
 2983TIP3    H130364   6.712   4.352  13.415 -1.1609  0.0666 -0.1173
 2983TIP3    H230365   6.735   4.501  13.423 -0.1950 -0.1090  0.6046
 2984TIP3   OH230366   0.545   3.541   2.108  0.2301  0.3249  0.3084
 2984TIP3    H130367   0.462   3.524   2.154  0.2238 -2.0355 -0.4569
 2984TIP3    H230368   0.612   3.530   2.176  0.1547 -2.2032  0.0867
 2985TIP3   OH230369   4.735   3.267  11.695  0.0237  0.2942  0.1614
 2985TIP3    H130370   4.831   3.273  11.695  0.1170 -0.1188  2.5866
 2985TIP3    H230371   4.708   3.318  11.619  2.0608  3.0904  1.1335
 2986TIP3   OH230372   1.789   3.312  14.370  0.1701 -0.4304 -0.7021
 2986TIP3    H130373   1.697   3.292  14.357  0.2280 -0.4752 -1.0520
 2986TIP3    H230374   1.799   3.320  14.465 -0.4018  0.5774 -0.7186
 2987TIP3   OH230375   0.957   2.948  12.784 -0.9041 -0.0837  0.2620
 2987TIP3    H130376   0.980   2.937  12.876  1.0445 -0.8552 -0.2644
 2987TIP3    H230377   1.010   3.022  12.754 -0.3979 -0.7531 -0.5610
 2988TIP3   OH230378   2.624   3.029  16.500 -0.1547 -0.1628 -0.0136
 2988TIP3    H130379   2.604   3.114  16.459 -0.5834 -0.5730 -0.6796
 2988TIP3    H230380   2.649   3.051  16.589 -2.5528  0.5248  0.5811
 2989TIP3   OH230381   4.696   1.238  10.669 -0.0754  0.1330 -0.3332
 2989TIP3    H130382   4.652   1.248  10.584  0.7701  0.1964 -0.7724
 2989TIP3    H230383   4.743   1.320  10.682  0.8175 -0.3589 -0.3989
 2990TIP3   OH230384   1.760   4.586   6.421  0.1590  0.0021  0.5684
 2990TIP3    H130385   1.738   4.677   6.441 -0.1062  0.3844 -1.2451
 2990TIP3    H230386   1.677   4.539   6.427  0.0054  0.1923  0.0002
 2991TIP3   OH230387   2.340   4.376  14.240 -0.2643  0.7372  0.3843
 2991TIP3    H130388   2.244   4.382  14.243 -0.3814  0.2481 -1.5773
 2991TIP3    H230389   2.369   4.438  14.307 -1.9492  0.5945  1.3009
 2992TIP3   OH230390   2.266   0.125   5.601  0.5750 -0.0065  0.1421
 2992TIP3    H130391   2.176   0.095   5.612  0.2617  0.6795 -0.4597
 2992TIP3    H230392   2.316   0.072   5.663 -0.2390 -0.3886  0.4984
 2993TIP3   OH230393   4.968   2.266  14.430 -0.4726  0.6769 -0.1879
 2993TIP3    H130394   4.890   2.293  14.382 -0.6682  2.7689  1.1769
 2993TIP3    H230395   5.041   2.289  14.372 -0.7869  0.4532 -0.6822
 2994TIP3   OH230396   0.530   3.024  10.896 -0.1386 -0.1100  0.0342
 2994TIP3    H130397   0.544   2.950  10.956  1.2151  0.6553  0.7178
 2994TIP3    H230398   0.618   3.047  10.867 -0.5728  1.0173 -0.4342
 2995TIP3   OH230399   5.039   1.616   4.614  0.3479 -0.3501  0.4943
 2995TIP3    H130400   5.020   1.620   4.520 -1.2815 -2.4062  0.6449
 2995TIP3    H230401   4.999   1.695   4.651 -0.8211 -0.5219 -0.3310
 2996TIP3   OH230402   2.283   5.405   2.964  0.0498 -0.0154  0.1941
 2996TIP3    H130403   2.217   5.337   2.953 -0.9412  1.0303 -0.6282
 2996TIP3    H230404   2.265   5.442   3.051 -0.1748 -0.0209  0.1495
 2997TIP3   OH230405   4.019   3.409   0.176  0.1884  0.2404  0.9487
 2997TIP3    H130406   4.105   3.367   0.180  0.3861  0.5771  0.3195
 2997TIP3    H230407   3.996   3.424   0.268 -0.0724 -1.5682  1.1967
 2998TIP3   OH230408   5.646   3.314  13.095  0.2100  0.5534  0.2928
 2998TIP3    H130409   5.597   3.383  13.138  0.4448  1.0148 -0.1732
 2998TIP3    H230410   5.728   3.309  13.144 -0.1189  0.0705  0.8069
 2999TIP3   OH230411   5.755   5.860  12.746  0.1821  0.2267  0.2206
 2999TIP3    H130412   5.662   5.873  12.761  0.5223  0.4138  2.4389
 2999TIP3    H230413   5.765   5.765  12.741 -0.1409  0.2110 -0.1769
 3000TIP3   OH230414   3.910   6.757   0.239  0.1677  0.0033 -0.2866
 3000TIP3    H130415   3.874   6.739   0.326 -1.4559  1.0265 -0.6871
 3000TIP3    H230416   3.851   6.712   0.178 -0.4705  1.6731 -0.9704
 3001TIP3   OH230417   0.962   5.363   1.216  0.2077  0.2682  0.8613
 3001TIP3    H130418   0.905   5.379   1.141  1.4542  0.3064 -0.1225
 3001TIP3    H230419   0.975   5.269   1.218  1.5877  0.4065 -0.1010
 3002TIP3   OH230420   0.447   2.169  10.420 -0.2640 -0.1751  0.0781
 3002TIP3    H130421   0.416   2.249  10.462 -0.1012 -1.2218  2.3005
 3002TIP3    H230422   0.373   2.140  10.366 -0.8601  0.6538  0.4245
 3003TIP3   OH230423   3.851   2.139  17.012 -0.2708 -0.5144  0.0644
 3003TIP3    H130424   3.804   2.062  17.044 -1.1683 -0.2583 -0.6047
 3003TIP3    H230425   3.786   2.209  17.015  0.7267  0.3861  1.3038
 3004TIP3   OH230426   3.818   4.736  14.523 -0.2213 -0.0594 -0.5995
 3004TIP3    H130427   3.803   4.764  14.613  0.9296  0.0461 -0.4267
 3004TIP3    H230428   3.748   4.778  14.473 -0.1698  0.8617  0.0750
 3005TIP3   OH230429   2.442   5.548   4.397 -0.4924 -0.0725  0.1004
 3005TIP3    H130430   2.421   5.484   4.328 -1.7557 -0.5795  0.9077
 3005TIP3    H230431   2.482   5.622   4.350 -2.4183  0.1240 -1.3608
 3006TIP3   OH230432   2.037   6.219  14.874  0.1485 -0.6477  0.5057
 3006TIP3    H130433   2.130   6.221  14.899  0.3542  0.0534 -0.2867
 3006TIP3    H230434   2.028   6.140  14.821  0.3917 -0.4842  0.2189
 3007TIP3   OH230435   5.318   1.425  13.544 -0.5020 -0.2702 -0.1680
 3007TIP3    H130436   5.340   1.422  13.637 -0.9390  0.8091 -0.0184
 3007TIP3    H230437   5.336   1.336  13.512 -0.9587 -0.8256  1.0808
 3008TIP3   OH230438   5.725   4.435   6.089  0.3800  0.0942 -0.1775
 3008TIP3    H130439   5.687   4.417   6.174 -0.0957 -0.8088 -0.5710
 3008TIP3    H230440   5.797   4.372   6.081  0.4548  0.2077 -0.4135
 3009TIP3   OH230441   6.703   6.237  13.149 -0.0783 -0.1545  0.2530
 3009TIP3    H130442   6.684   6.188  13.069 -0.6543 -0.3983  0.5297
 3009TIP3    H230443   6.740   6.172  13.209  1.4813  0.2733 -0.2066
 3010TIP3   OH230444   1.592   0.503  14.873 -0.1832 -0.0703  0.5049
 3010TIP3    H130445   1.620   0.589  14.842 -1.8455 -0.0401 -1.1123
 3010TIP3    H230446   1.577   0.515  14.966  1.4628  0.8597  0.6887
 3011TIP3   OH230447   4.658   1.654   1.178  0.2941  0.8404 -0.1175
 3011TIP3    H130448   4.743   1.687   1.207 -0.4043  1.2208  1.5857
 3011TIP3    H230449   4.598   1.675   1.250 -0.6420 -2.0943  0.0785
 3012TIP3   OH230450   6.486   3.827   2.255 -1.0328 -0.6504 -0.0092
 3012TIP3    H130451   6.467   3.910   2.211 -2.3683 -0.8209  0.2011
 3012TIP3    H230452   6.570   3.842   2.300 -1.3148  0.6209  0.1378
 3013TIP3   OH230453   0.623   1.944   4.504 -0.4163  0.2978 -0.2021
 3013TIP3    H130454   0.646   2.028   4.463 -0.8898  1.3818  1.6067
 3013TIP3    H230455   0.546   1.914   4.457 -0.4265  1.0515 -0.6869
 3014TIP3   OH230456   3.307   4.677   6.616 -0.3086 -0.2532 -0.4057
 3014TIP3    H130457   3.387   4.626   6.626 -0.3598 -0.0966  1.1747
 3014TIP3    H230458   3.333   4.767   6.632 -0.7034 -0.1446 -0.3459
 3015TIP3   OH230459   5.259   5.467   5.348 -0.4763 -0.0788 -0.7115
 3015TIP3    H130460   5.294   5.456   5.437  0.6077  0.4972 -1.0393
 3015TIP3    H230461   5.212   5.550   5.352  0.9015  0.7614 -1.0310
 3016TIP3   OH230462   6.213   0.011  16.591 -0.2963 -0.3175  0.1172
 3016TIP3    H130463   6.306   0.035  16.587 -0.4696  0.4207  0.3344
 3016TIP3    H230464   6.187   0.005  16.499  0.4461 -2.5345  0.0098
 3017TIP3   OH230465   0.258   1.250   5.875 -0.0553 -0.1759  0.1721
 3017TIP3    H130466   0.230   1.171   5.922 -0.1729 -0.7275 -0.8061
 3017TIP3    H230467   0.179   1.302   5.867  0.0770  0.1856  1.0611
 3018TIP3   OH230468   0.414   6.605   5.028  0.0877 -0.3213  0.5795
 3018TIP3    H130469   0.448   6.548   4.959 -0.1352  0.5650 -0.3019
 3018TIP3    H230470   0.482   6.605   5.095  1.9684  1.4264 -1.1483
 3019TIP3   OH230471   4.698   2.335  17.088 -0.2184 -0.2385 -0.3889
 3019TIP3    H130472   4.731   2.346  17.177  1.1311  0.4111 -0.9463
 3019TIP3    H230473   4.603   2.334  17.097 -0.1578  1.5235  0.8774
 3020TIP3   OH230474   1.315   3.662   0.454 -0.4075 -0.1422  0.2007
 3020TIP3    H130475   1.394   3.707   0.425 -0.2140 -0.3201  0.4530
 3020TIP3    H230476   1.338   3.569   0.452 -1.0746 -0.2949 -1.1427
 3021TIP3   OH230477   0.237   4.449  13.914  0.0354 -1.0293 -0.0531
 3021TIP3    H130478   0.304   4.386  13.888 -0.8583 -1.8710 -0.4044
 3021TIP3    H230479   0.177   4.452  13.840  0.1433  0.3719 -0.1013
 3022TIP3   OH230480   6.323   0.188  11.632 -0.2310  0.0450 -0.9056
 3022TIP3    H130481   6.393   0.147  11.682 -1.1283  0.9208  1.1891
 3022TIP3    H230482   6.333   0.153  11.544  4.3851  1.9479 -1.4458
 3023TIP3   OH230483   1.305   5.784  16.231 -0.3614  0.0148 -0.5611
 3023TIP3    H130484   1.388   5.744  16.257 -0.1897  0.6883 -0.0336
 3023TIP3    H230485   1.241   5.750  16.294  0.0306  1.5466  0.7239
 3024TIP3   OH230486   3.925   2.466   6.121 -0.4174  0.5497  0.1791
 3024TIP3    H130487   4.003   2.435   6.167 -0.1036  2.1972  0.8231
 3024TIP3    H230488   3.852   2.441   6.177 -0.6323 -2.7132 -1.3182
 3025TIP3   OH230489   5.108   3.365   4.874 -0.5441 -0.6907  0.0166
 3025TIP3    H130490   5.178   3.360   4.940 -0.3929 -2.2777 -0.2334
 3025TIP3    H230491   5.048   3.295   4.898 -1.6683  0.1639 -0.2399
 3026TIP3   OH230492   6.750   3.848   2.050 -0.4069  0.2452  0.4313
 3026TIP3    H130493   6.798   3.858   2.133  0.1535  2.6275 -0.1102
 3026TIP3    H230494   6.818   3.848   1.983 -0.6311 -3.9878 -0.0657
 3027TIP3   OH230495   2.518   0.984   5.159  0.1630  0.1452  0.5761
 3027TIP3    H130496   2.469   1.000   5.079  0.5638  1.2611  0.5324
 3027TIP3    H230497   2.472   0.911   5.201 -0.9313  0.5105  0.0623
 3028TIP3   OH230498   6.330   0.259   0.049  0.4443 -0.0268 -0.5433
 3028TIP3    H130499   6.416   0.239   0.013  0.7386 -0.8500  0.5652
 3028TIP3    H230500   6.268   0.214  -0.009  1.0062 -3.0699  1.0081
 3029TIP3   OH230501   0.247   5.513  13.010  0.2096 -0.4913 -0.5640
 3029TIP3    H130502   0.340   5.500  13.027  0.0689  0.8023  1.4591
 3029TIP3    H230503   0.238   5.607  12.998 -0.8827 -0.5716 -0.4487
 3030TIP3   OH230504   3.814   4.611  10.695  0.3606 -1.0110  0.1537
 3030TIP3    H130505   3.894   4.561  10.710  0.4550 -0.6724  0.8133
 3030TIP3    H230506   3.786   4.638  10.782 -1.0673 -2.0203  0.0518
 3031TIP3   OH230507   2.394   1.478   3.708 -0.7217 -0.4827 -0.6510
 3031TIP3    H130508   2.407   1.568   3.680 -1.4842 -0.4357 -0.8708
 3031TIP3    H230509   2.473   1.432   3.678 -0.6837 -0.0518 -1.2219
 3032TIP3   OH230510   2.617   4.181   4.037  0.6965 -0.1515  0.4436
 3032TIP3    H130511   2.693   4.239   4.040  0.4888  0.2093 -0.6851
 3032TIP3    H230512   2.643   4.109   3.981 -0.1508  0.5747 -0.9566
 3033TIP3   OH230513   5.273   1.507   3.678  0.2993  0.3878 -0.1705
 3033TIP3    H130514   5.362   1.503   3.714 -0.1482  3.4318  1.5904
 3033TIP3    H230515   5.218   1.534   3.751 -1.4563  2.1588 -2.0175
 3034TIP3   OH230516   2.580   4.304  16.874 -0.1197 -0.8433  0.0052
 3034TIP3    H130517   2.617   4.363  16.940 -1.0480 -0.1265 -0.0902
 3034TIP3    H230518   2.618   4.218  16.894  1.7209 -0.1327 -0.2011
 3035TIP3   OH230519   2.980   1.463  15.911  0.1756 -0.2789 -0.8335
 3035TIP3    H130520   2.985   1.372  15.881 -0.2342 -1.2285  1.7347
 3035TIP3    H230521   2.890   1.489  15.892 -0.4584 -1.2934  0.6081
 3036TIP3   OH230522   2.932   4.017  12.440  0.0093 -0.1050 -0.2137
 3036TIP3    H130523   3.016   4.046  12.476 -0.3818  0.6949  0.0699
 3036TIP3    H230524   2.889   3.973  12.513  0.0097 -0.1534 -0.2427
 3037TIP3   OH230525   0.747   0.903   1.249 -0.4522  0.2620  0.2478
 3037TIP3    H130526   0.694   0.865   1.319 -0.8343  2.9214  1.5239
 3037TIP3    H230527   0.819   0.946   1.295  0.5497  0.1773 -1.1918
 3038TIP3   OH230528   4.136   1.936  16.576 -0.1012  0.1656 -0.0281
 3038TIP3    H130529   4.150   1.852  16.619  0.2108 -0.3354 -1.0516
 3038TIP3    H230530   4.045   1.934  16.546  0.5548 -0.8904 -2.1826
 3039TIP3   OH230531   0.941   6.083   0.925  0.2331 -0.4641 -0.0297
 3039TIP3    H130532   0.997   6.024   0.975 -0.1926 -0.5543  0.3490
 3039TIP3    H230533   0.997   6.157   0.902  0.3151 -0.1842  1.0139
 3040TIP3   OH230534   6.108   6.459  13.477  0.4247  0.0006 -0.1859
 3040TIP3    H130535   6.156   6.521  13.422  3.3924 -1.2972  0.7895
 3040TIP3    H230536   6.098   6.381  13.422  0.9589 -0.3336  0.1918
 3041TIP3   OH230537   3.523   5.977   5.699 -0.4106  0.3008  0.1274
 3041TIP3    H130538   3.567   5.948   5.779 -0.2222  0.9533  0.2675
 3041TIP3    H230539   3.450   6.030   5.730 -0.3809  0.4948 -0.1321
 3042TIP3   OH230540   1.638   1.717  15.227 -0.6092  0.1510 -0.8544
 3042TIP3    H130541   1.549   1.728  15.195 -0.9598 -0.8516 -0.2744
 3042TIP3    H230542   1.670   1.806  15.242 -0.8930  0.6026 -2.6724
 3043TIP3   OH230543   2.373   5.769  14.672  0.5139  0.2616  0.2652
 3043TIP3    H130544   2.298   5.712  14.688 -0.4133  0.7584 -1.9458
 3043TIP3    H230545   2.444   5.730  14.723 -0.4485 -2.0570 -0.0460
 3044TIP3   OH230546   0.090   4.735  14.322 -0.1512 -0.6396 -0.6622
 3044TIP3    H130547  -0.001   4.751  14.297 -0.5721 -0.6296  0.7909
 3044TIP3    H230548   0.139   4.741  14.240 -1.1709  1.4060 -1.1706
 3045TIP3   OH230549   6.425   2.441  13.516 -0.0237  0.6324 -0.8386
 3045TIP3    H130550   6.450   2.459  13.426  0.1758 -0.5849 -1.0440
 3045TIP3    H230551   6.429   2.346  13.524  0.0829  0.7212  0.4876
 3046TIP3   OH230552   5.886   1.907   1.591 -0.6885 -0.1324 -0.2884
 3046TIP3    H130553   5.944   1.867   1.526 -1.1200 -0.8957 -0.2158
 3046TIP3    H230554   5.937   1.980   1.627 -0.3159  0.0881 -1.2317
 3047TIP3   OH230555   4.587   0.207   4.129  0.0136 -0.3671 -0.3062
 3047TIP3    H130556   4.678   0.199   4.158  0.5553 -0.1342 -1.8363
 3047TIP3    H230557   4.558   0.291   4.164  0.0503 -0.8786  1.0032
 3048TIP3   OH230558   5.753   4.423   4.261 -0.3000 -0.1251 -0.4419
 3048TIP3    H130559   5.665   4.400   4.291 -0.7364 -0.4477 -1.8824
 3048TIP3    H230560   5.799   4.340   4.254 -0.4427 -0.1340 -1.3524
 3049TIP3   OH230561   6.352   4.508   2.570 -0.1308 -0.1808 -0.1609
 3049TIP3    H130562   6.371   4.552   2.653  1.7295 -1.4942  0.1709
 3049TIP3    H230563   6.319   4.422   2.595 -0.5191 -0.2192 -0.7886
 3050TIP3   OH230564   4.087   3.482  16.708 -0.1883 -0.2274 -0.0969
 3050TIP3    H130565   4.019   3.426  16.746  0.8249 -1.4222  0.0090
 3050TIP3    H230566   4.140   3.510  16.783 -0.5077  0.6592 -0.1839
 3051TIP3   OH230567   3.128   6.562   0.157 -0.0153 -0.8231  0.0332
 3051TIP3    H130568   3.120   6.536   0.065 -1.1072 -2.1522  0.4689
 3051TIP3    H230569   3.182   6.494   0.197 -2.1442 -2.0540  0.9917
 3052TIP3   OH230570   1.539   2.230   0.693  0.4900 -0.3096  0.1141
 3052TIP3    H130571   1.450   2.203   0.717  0.3576 -1.6361 -1.6393
 3052TIP3    H230572   1.535   2.241   0.598  2.1929 -0.3646  0.0163
 3053TIP3   OH230573   3.459   2.278   3.222 -0.7017 -1.1723 -0.1084
 3053TIP3    H130574   3.399   2.225   3.275 -2.0110  1.6536  1.5037
 3053TIP3    H230575   3.471   2.358   3.274  2.6420 -0.6170 -1.4966
 3054TIP3   OH230576   5.246   6.361  15.753  0.5457  0.3511  0.1648
 3054TIP3    H130577   5.165   6.337  15.708 -0.0702  0.4759  1.1944
 3054TIP3    H230578   5.311   6.368  15.683 -0.0301 -1.0196 -0.5390
 3055TIP3   OH230579   5.137   1.761  12.406  0.4474  0.3177  0.1292
 3055TIP3    H130580   5.176   1.831  12.458  0.1424  1.2786 -0.8710
 3055TIP3    H230581   5.043   1.781  12.406  0.1861 -0.8513  0.9095
 3056TIP3   OH230582   1.942   2.558   1.388 -0.2632  0.1775  0.3415
 3056TIP3    H130583   1.949   2.622   1.317 -1.0006  1.0351  1.0059
 3056TIP3    H230584   1.879   2.598   1.449  0.0428 -0.7249  1.2666
 3057TIP3   OH230585   1.947   2.448   4.223 -0.0960  0.1408  0.2643
 3057TIP3    H130586   2.007   2.517   4.196 -1.4660  0.8329 -1.1708
 3057TIP3    H230587   1.876   2.451   4.159  0.2938 -3.3253 -0.5480
 3058TIP3   OH230588   3.967   3.431   5.310  0.1179  0.0386 -0.1412
 3058TIP3    H130589   3.980   3.339   5.290  0.8665 -0.5536  2.5881
 3058TIP3    H230590   3.872   3.442   5.313 -0.0089 -1.1272  1.2055
 3059TIP3   OH230591   1.676   6.649   0.628 -0.2125 -0.5763 -0.2456
 3059TIP3    H130592   1.671   6.707   0.704  0.2466 -1.5895  0.5873
 3059TIP3    H230593   1.690   6.708   0.554  1.6729  0.2963  0.7329
 3060TIP3   OH230594   6.000   0.882  11.207  0.7170  0.2601  0.2591
 3060TIP3    H130595   6.050   0.827  11.268 -0.4665 -1.3369 -0.1428
 3060TIP3    H230596   5.938   0.930  11.263  1.2416  0.6213  0.5368
 3061TIP3   OH230597   4.386   4.471  12.978 -0.5666  0.0033 -0.3659
 3061TIP3    H130598   4.426   4.430  12.901 -1.6574  1.4110 -1.7489
 3061TIP3    H230599   4.449   4.540  13.003 -0.8299  0.4353 -0.8634
 3062TIP3   OH230600   1.177   6.472  10.968 -0.4129  0.1417 -0.5489
 3062TIP3    H130601   1.163   6.451  11.061  1.4900  0.0458 -0.2481
 3062TIP3    H230602   1.211   6.391  10.930  0.1127  0.5787 -1.0193
 3063TIP3   OH230603   5.993   0.088   2.182  0.5520 -0.3746 -0.5719
 3063TIP3    H130604   5.970   0.174   2.146 -0.5680 -0.9149 -1.2040
 3063TIP3    H230605   5.989   0.029   2.107  0.9616 -1.0431 -0.0722
 3064TIP3   OH230606   2.643   6.043   4.519 -0.0260  0.4950 -0.2227
 3064TIP3    H130607   2.627   5.949   4.532 -1.4126  0.7563  0.0637
 3064TIP3    H230608   2.731   6.047   4.482 -0.6334 -1.0511 -1.9785
 3065TIP3   OH230609   2.612   3.531  11.905 -0.1693 -0.0689 -0.1361
 3065TIP3    H130610   2.527   3.511  11.944  0.1080 -1.7887 -0.3207
 3065TIP3    H230611   2.675   3.483  11.959  0.7775  1.7127  0.4073
 3066TIP3   OH230612   1.538   6.124  14.007  0.0985  0.0018  0.2122
 3066TIP3    H130613   1.506   6.043  13.967  3.3629 -1.8789  1.0573
 3066TIP3    H230614   1.550   6.183  13.933 -0.2760 -1.0518 -0.7332
 3067TIP3   OH230615   2.249   1.566  13.263 -0.3298 -0.0725 -1.2652
 3067TIP3    H130616   2.214   1.637  13.209  2.1455  1.6346 -0.8176
 3067TIP3    H230617   2.243   1.599  13.353  0.3492 -0.6634 -0.9957
 3068TIP3   OH230618   4.952   5.411  10.987  0.4336  0.2525  0.1472
 3068TIP3    H130619   4.953   5.476  11.057 -2.8806  0.6491 -0.0337
 3068TIP3    H230620   4.926   5.329  11.030  2.5676 -0.5752  0.0144
 3069TIP3   OH230621   4.572   1.854  14.094  0.1607 -0.7605  0.1328
 3069TIP3    H130622   4.544   1.770  14.130 -0.1486 -1.4431 -1.6028
 3069TIP3    H230623   4.496   1.911  14.104  0.6079 -0.4456  1.9708
 3070TIP3   OH230624   5.809   0.426  10.352  0.2097  0.5656  0.5042
 3070TIP3    H130625   5.775   0.349  10.306  0.6697  1.8332 -2.1229
 3070TIP3    H230626   5.895   0.398  10.384  0.6321  0.0955 -0.9408
 3071TIP3   OH230627   2.327   2.139  16.032 -0.5830  0.1820 -0.0261
 3071TIP3    H130628   2.331   2.188  15.949 -2.2793  1.3241  0.5062
 3071TIP3    H230629   2.355   2.203  16.098 -1.0945 -0.1279  0.4889
 3072TIP3   OH230630   2.818   2.495   4.258  0.0227  0.4170 -0.2649
 3072TIP3    H130631   2.819   2.400   4.274  0.3718  0.1965 -1.5207
 3072TIP3    H230632   2.764   2.530   4.329 -1.4598 -0.9034 -0.6803
 3073TIP3   OH230633   1.326   0.919  12.950  0.2254 -0.4547 -0.4729
 3073TIP3    H130634   1.324   0.952  13.040  0.6696 -3.6201  0.8281
 3073TIP3    H230635   1.419   0.908  12.931  0.1398  0.2996 -1.4144
 3074TIP3   OH230636   0.456   6.085  13.533  0.5480 -0.3360 -0.1659
 3074TIP3    H130637   0.430   6.056  13.445  2.6300  0.8484 -1.2539
 3074TIP3    H230638   0.529   6.028  13.556  1.1130  0.4577  0.0376
 3075TIP3   OH230639   1.020   0.617  16.288  0.0918 -0.6860  0.0775
 3075TIP3    H130640   1.059   0.643  16.371  2.4580  0.1980 -1.1935
 3075TIP3    H230641   0.943   0.673  16.278  0.0119 -0.5208  1.4487
 3076TIP3   OH230642   2.730   3.849  14.788  0.0742  0.0774  0.5501
 3076TIP3    H130643   2.737   3.931  14.837 -1.4682 -0.6416  2.0872
 3076TIP3    H230644   2.665   3.866  14.721 -0.0902  0.1819  0.7352
 3077TIP3   OH230645   5.765   4.276   5.540  0.3764  0.1674  0.6270
 3077TIP3    H130646   5.794   4.263   5.631 -0.9565 -2.5864  0.7514
 3077TIP3    H230647   5.691   4.217   5.529 -1.2126  2.3437 -1.5464
 3078TIP3   OH230648   6.567   1.684   1.928 -0.1797  0.1041  0.6572
 3078TIP3    H130649   6.489   1.740   1.934  0.2950  0.6857  1.7168
 3078TIP3    H230650   6.633   1.739   1.885 -0.2709 -0.3110 -0.0344
 3079TIP3   OH230651   3.728   0.421   3.008 -0.2030  0.0630 -0.1055
 3079TIP3    H130652   3.782   0.448   2.933  0.3433 -1.4254 -0.2817
 3079TIP3    H230653   3.751   0.482   3.077 -1.3317  2.0128 -1.3649
 3080TIP3   OH230654   3.750   6.490   4.675  1.0693 -0.0057  0.0326
 3080TIP3    H130655   3.791   6.504   4.589 -0.1497 -0.3395 -0.6170
 3080TIP3    H230656   3.824   6.484   4.735  1.9309  0.9376 -0.8812
 3081TIP3   OH230657   0.147   1.213  13.496  0.3927  0.1763  0.5724
 3081TIP3    H130658   0.230   1.167  13.484 -0.1922 -1.6657  2.8721
 3081TIP3    H230659   0.144   1.234  13.589 -1.6714  0.2731  0.5329
 3082TIP3   OH230660   6.467   6.327  11.298  0.0988 -0.6044 -0.6937
 3082TIP3    H130661   6.490   6.237  11.322  1.9262 -0.4054 -1.4815
 3082TIP3    H230662   6.549   6.364  11.265 -1.0364  0.7639 -2.1379
 3083TIP3   OH230663   3.959   4.356   2.984  0.5767  0.5595 -0.0125
 3083TIP3    H130664   3.946   4.295   2.912  0.0770 -2.4683  2.3842
 3083TIP3    H230665   3.983   4.439   2.943  1.1983 -1.1969 -3.5368
 3084TIP3   OH230666   4.944   4.391  15.395 -0.2543 -0.6204  0.4491
 3084TIP3    H130667   4.851   4.412  15.394 -0.4951 -1.1559  3.4422
 3084TIP3    H230668   4.984   4.461  15.447  1.1533 -0.1763 -1.1064
 3085TIP3   OH230669   5.808   5.651  11.199 -0.3467  0.0401 -0.2797
 3085TIP3    H130670   5.812   5.745  11.179 -2.1351  0.2535  0.1963
 3085TIP3    H230671   5.819   5.646  11.294 -2.1166 -0.0141 -0.0361
 3086TIP3   OH230672   5.557   4.647  11.848 -0.2834  0.4630 -0.1688
 3086TIP3    H130673   5.463   4.660  11.842 -0.6850 -2.3394 -1.5098
 3086TIP3    H230674   5.567   4.567  11.899  1.4087  0.8392  0.1534
 3087TIP3   OH230675   0.414   3.309   0.748  0.0192 -0.2393 -0.3721
 3087TIP3    H130676   0.418   3.246   0.675  0.9106 -1.1013  0.3869
 3087TIP3    H230677   0.352   3.375   0.719 -1.9465 -2.1208 -0.6896
 3088TIP3   OH230678   3.644   5.966   0.686  0.2311  0.0249  0.0973
 3088TIP3    H130679   3.634   5.871   0.692  2.5356 -0.4005 -1.5889
 3088TIP3    H230680   3.578   5.992   0.622 -0.6778 -0.3486  0.8504
 3089TIP3   OH230681   2.751   2.042  15.289 -0.0788 -0.5959 -0.0979
 3089TIP3    H130682   2.797   2.114  15.245  0.4965 -0.4837  0.6692
 3089TIP3    H230683   2.805   2.023  15.365 -0.6164 -1.3626  0.0948
 3090TIP3   OH230684   2.398   6.108   1.760 -0.2105 -0.0697 -0.3869
 3090TIP3    H130685   2.364   6.050   1.692 -0.1860 -1.4147  0.7053
 3090TIP3    H230686   2.321   6.135   1.809 -0.0309 -0.7758  0.3041
 3091TIP3   OH230687   2.932   1.573  13.219  0.3458 -0.0182  0.1012
 3091TIP3    H130688   2.979   1.571  13.302  1.0153 -0.2651 -0.2689
 3091TIP3    H230689   2.865   1.505  13.228  0.3215  0.0559  0.4929
 3092TIP3   OH230690   5.827   5.427  13.949  0.4510 -0.3838  0.1940
 3092TIP3    H130691   5.817   5.505  13.895  0.1785 -0.5451  0.0070
 3092TIP3    H230692   5.773   5.361  13.906 -1.7148  0.1322  1.9445
 3093TIP3   OH230693   1.961   2.167  14.959 -0.8565  0.3047 -1.1973
 3093TIP3    H130694   1.877   2.214  14.960 -1.7505 -1.1925  0.5187
 3093TIP3    H230695   2.011   2.206  15.030 -2.2337 -2.1990  1.3519
 3094TIP3   OH230696   4.765   6.283  11.964 -0.1049 -0.4102 -0.9516
 3094TIP3    H130697   4.790   6.366  12.005  2.3546 -2.0885  1.2823
 3094TIP3    H230698   4.685   6.257  12.009 -0.2241  0.1858 -0.8151
 3095TIP3   OH230699   6.576   4.912   0.088 -0.5415  0.3594  0.2336
 3095TIP3    H130700   6.637   4.842   0.112 -0.5846 -0.6763 -2.3060
 3095TIP3    H230701   6.499   4.866   0.056 -0.6291  1.5439 -1.3685
 3096TIP3   OH230702   2.207   0.015  13.290 -0.1401 -0.1302  0.4675
 3096TIP3    H130703   2.183  -0.076  13.275 -0.6383  0.3487 -2.3065
 3096TIP3    H230704   2.130   0.054  13.333 -0.9072 -0.5317 -0.5003
 3097TIP3   OH230705   3.853   3.603   4.325 -0.2649  0.2672  0.1444
 3097TIP3    H130706   3.874   3.674   4.263 -0.4511 -0.0073 -0.2406
 3097TIP3    H230707   3.835   3.648   4.407 -1.0752  0.7404 -0.2693
 3098TIP3   OH230708   6.275   1.402   6.119  0.3837  0.1954  0.1365
 3098TIP3    H130709   6.353   1.367   6.163  0.4421  0.3855  0.1847
 3098TIP3    H230710   6.250   1.477   6.171 -1.8003 -1.7385  2.0970
 3099TIP3   OH230711   4.010   4.921   5.779 -0.0201  0.1738 -0.0104
 3099TIP3    H130712   4.077   4.940   5.844  0.5447  1.8368 -1.0253
 3099TIP3    H230713   4.043   4.844   5.732  0.2501 -0.1668  0.7280
 3100TIP3   OH230714   0.914   6.484   3.591  0.1342  0.2755 -0.2528
 3100TIP3    H130715   0.978   6.541   3.633 -0.9264  0.8625  0.6083
 3100TIP3    H230716   0.867   6.443   3.664 -0.6922  0.1014 -0.8697
 3101TIP3   OH230717   1.845   2.073  11.830  0.0660 -0.4549  0.1250
 3101TIP3    H130718   1.901   2.011  11.877  1.5897 -0.5686 -1.7420
 3101TIP3    H230719   1.761   2.026  11.821  0.1832 -0.9676  1.4324
 3102TIP3   OH230720   3.498   1.603  15.538  0.9155 -0.1287  0.4669
 3102TIP3    H130721   3.528   1.585  15.628  0.6837 -1.8741  0.2201
 3102TIP3    H230722   3.541   1.686  15.515  3.8279 -1.3992  0.9279
 3103TIP3   OH230723   0.644   6.029  16.862  0.2974 -0.2534 -0.5499
 3103TIP3    H130724   0.624   6.092  16.793 -0.2812 -1.2738 -1.3495
 3103TIP3    H230725   0.702   5.966  16.821  0.9465 -0.2087  0.2664
 3104TIP3   OH230726   1.800   0.335   5.056 -0.3460 -0.0027 -0.0199
 3104TIP3    H130727   1.710   0.349   5.026 -0.7406  2.3476  1.8815
 3104TIP3    H230728   1.790   0.295   5.142  0.2944  1.5279  0.8185
 3105TIP3   OH230729   6.443   5.754  10.923  0.1147 -0.1153  0.0032
 3105TIP3    H130730   6.530   5.751  10.883  1.6308 -0.7091  3.0585
 3105TIP3    H230731   6.440   5.678  10.980 -2.8014 -0.5691 -0.5947
 3106TIP3   OH230732   0.688   3.314  12.957 -0.4589  0.2572  0.3521
 3106TIP3    H130733   0.726   3.401  12.953 -0.5815  0.3022  0.1249
 3106TIP3    H230734   0.617   3.321  13.021 -0.3736  0.2864  0.4429
 3107TIP3   OH230735   1.425   1.739  16.817 -0.0224 -0.0729 -0.3546
 3107TIP3    H130736   1.488   1.693  16.873 -0.5658  0.9601  1.1715
 3107TIP3    H230737   1.475   1.809  16.776  0.0098  0.2038  0.1605
 3108TIP3   OH230738   2.646   5.748   4.541 -0.1770  0.4510 -0.2428
 3108TIP3    H130739   2.715   5.706   4.593  0.8565  1.4620 -0.7602
 3108TIP3    H230740   2.565   5.727   4.588  0.5593  0.0065  0.8830
 3109TIP3   OH230741   5.386   1.736  11.707  0.2952 -0.1437 -0.0161
 3109TIP3    H130742   5.330   1.778  11.772  1.2542 -0.8939  1.3289
 3109TIP3    H230743   5.367   1.782  11.625 -2.3718 -0.4629  0.3476
 3110TIP3   OH230744   6.673   6.037   5.549  0.7175  0.5687 -0.0583
 3110TIP3    H130745   6.606   6.056   5.614  0.5527 -1.1065  0.3206
 3110TIP3    H230746   6.723   5.965   5.587  0.7505 -0.3080 -1.6821
 3111TIP3   OH230747   5.398   1.259  16.518  0.0935  1.1029  0.3229
 3111TIP3    H130748   5.325   1.272  16.458 -0.3644  0.5544  0.7403
 3111TIP3    H230749   5.473   1.239  16.462 -0.6184 -0.7462 -0.0377
 3112TIP3   OH230750   4.497   6.092   2.712 -0.0943 -0.1432 -0.2586
 3112TIP3    H130751   4.550   6.077   2.790  0.0691 -1.7313 -0.6315
 3112TIP3    H230752   4.539   6.166   2.668  0.0024  0.5509  0.9786
 3113TIP3   OH230753   2.352   1.104   0.804 -0.0991 -0.2703  0.5067
 3113TIP3    H130754   2.423   1.041   0.815 -0.3291 -0.6641 -0.2320
 3113TIP3    H230755   2.396   1.187   0.784  0.2476  0.0335  2.3184
 3114TIP3   OH230756   2.226   2.276   3.485  0.2027  0.0335 -0.6285
 3114TIP3    H130757   2.283   2.298   3.559 -1.1874  2.4383 -0.1631
 3114TIP3    H230758   2.139   2.267   3.524 -0.1631 -1.1096 -1.6568
 3115TIP3   OH230759   2.914   0.187  15.654 -0.1202  0.1384 -0.3135
 3115TIP3    H130760   2.908   0.131  15.732 -1.9169  0.2105 -0.3767
 3115TIP3    H230761   2.833   0.172  15.607 -0.4093  2.3750 -0.6246
 3116TIP3   OH230762   3.758   1.634   5.650 -0.3920  0.6708  0.2237
 3116TIP3    H130763   3.697   1.637   5.723 -1.1462 -0.8945 -0.2753
 3116TIP3    H230764   3.799   1.548   5.657 -0.5606  0.4434 -1.2203
 3117TIP3   OH230765   5.077   1.426  11.395  0.2149  0.2435 -0.0440
 3117TIP3    H130766   5.021   1.359  11.435  1.0716 -1.4968 -1.6087
 3117TIP3    H230767   5.134   1.455  11.467  0.7744 -1.7607  0.3925
 3118TIP3   OH230768   2.703   2.654  12.742  0.1890 -0.6281 -0.3758
 3118TIP3    H130769   2.620   2.651  12.789  0.1761 -1.5264 -0.4516
 3118TIP3    H230770   2.678   2.665  12.650  0.1764 -0.2030 -0.3225
 3119TIP3   OH230771   2.669   3.903   4.130  0.4739 -0.1966 -0.0123
 3119TIP3    H130772   2.701   3.987   4.165 -1.8055  0.7764 -0.1080
 3119TIP3    H230773   2.666   3.917   4.035  1.8900 -1.0861 -0.2094
 3120TIP3   OH230774   3.075   4.058   3.532 -0.5085 -0.2411 -0.3373
 3120TIP3    H130775   3.033   4.000   3.468 -2.1473 -0.5344  0.9395
 3120TIP3    H230776   3.063   4.014   3.616  1.0626  0.4315  0.2741
 3121TIP3   OH230777   3.581   4.161   5.613  0.3178 -0.0328 -0.3597
 3121TIP3    H130778   3.552   4.105   5.540 -0.5634  0.0695 -0.1005
 3121TIP3    H230779   3.676   4.151   5.614  0.2399 -0.9531 -0.7883
 3122TIP3   OH230780   4.901   4.602  12.484  0.4509 -0.6133  0.1942
 3122TIP3    H130781   4.919   4.655  12.561 -0.5753  0.0245  0.0232
 3122TIP3    H230782   4.853   4.660  12.425 -2.1968 -2.1141  0.6651
 3123TIP3   OH230783   0.978   6.439  11.975 -0.7820  0.5784  0.3819
 3123TIP3    H130784   0.915   6.373  11.946 -0.1587  0.7120 -1.3995
 3123TIP3    H230785   0.934   6.484  12.047 -0.4544 -3.0088  3.0904
 3124TIP3   OH230786   6.158   0.666   1.192  0.3870 -0.1688 -0.5826
 3124TIP3    H130787   6.198   0.655   1.106  0.1723 -0.3244 -0.6649
 3124TIP3    H230788   6.231   0.661   1.254  0.2847 -3.0090 -0.5312
 3125TIP3   OH230789   2.485   4.994  11.517  0.1088  0.0575  0.5577
 3125TIP3    H130790   2.469   5.071  11.570  0.5304 -0.0534  0.8462
 3125TIP3    H230791   2.418   4.931  11.545 -1.0225  0.7226 -0.5268
 3126TIP3   OH230792   4.653   0.991   0.051 -0.3689  0.8348  0.0626
 3126TIP3    H130793   4.660   1.082   0.021 -0.0746  0.0324 -2.4856
 3126TIP3    H230794   4.654   0.939  -0.029  1.1086 -1.5455  1.5194
 3127TIP3   OH230795   6.369   6.083   5.674 -0.0734 -0.2410  0.5300
 3127TIP3    H130796   6.408   6.149   5.732  3.2489 -0.5540 -1.1458
 3127TIP3    H230797   6.281   6.069   5.711 -0.2688  3.6548  2.0852
 3128TIP3   OH230798   3.145   6.625  14.617 -0.0304 -0.2595  0.0815
 3128TIP3    H130799   3.110   6.702  14.573 -0.5876 -0.5027  0.0850
 3128TIP3    H230800   3.141   6.556  14.550  0.5347 -0.2686  0.0550
 3129TIP3   OH230801   1.370   0.374  15.703 -0.0604  0.6076 -0.0322
 3129TIP3    H130802   1.384   0.463  15.669 -2.5934  1.7744  1.6395
 3129TIP3    H230803   1.295   0.383  15.762  1.0260 -2.2425  1.9697
 3130TIP3   OH230804   4.777   2.123  11.617 -0.6191 -0.2024  0.1816
 3130TIP3    H130805   4.864   2.085  11.624 -0.0665  0.4526 -2.2091
 3130TIP3    H230806   4.733   2.071  11.550 -1.1009  1.0958 -0.5595
 3131TIP3   OH230807   5.684   3.835   1.567  0.4141  0.0794 -0.1283
 3131TIP3    H130808   5.732   3.903   1.615 -0.2186  0.8563 -0.5778
 3131TIP3    H230809   5.631   3.792   1.634  0.5910  0.2220  0.1072
 3132TIP3   OH230810   4.010   2.960   2.704 -0.5749 -0.3724 -0.5799
 3132TIP3    H130811   4.083   2.972   2.642 -0.1663 -0.0558 -0.0423
 3132TIP3    H230812   3.959   2.889   2.666 -0.4105 -0.0906 -1.3637
 3133TIP3   OH230813   1.832   2.927  14.845 -0.3708  0.7586  0.0743
 3133TIP3    H130814   1.866   3.002  14.894 -1.3257  1.3653 -0.1797
 3133TIP3    H230815   1.865   2.939  14.756 -0.7565  1.0225 -0.0314
 3134TIP3   OH230816   5.549   5.743  11.020 -0.2077 -0.6854  0.1671
 3134TIP3    H130817   5.541   5.648  11.017 -0.7769 -0.8075  2.8294
 3134TIP3    H230818   5.491   5.769  11.092  1.5769  1.4213  0.9642
 3135TIP3   OH230819   2.607   3.212  14.629 -0.2395  0.2033  0.5170
 3135TIP3    H130820   2.520   3.182  14.602  0.3448 -1.5827  0.4613
 3135TIP3    H230821   2.632   3.151  14.698  1.5609 -0.2589 -0.4825
 3136TIP3   OH230822   4.471   4.614   3.819  0.4429  0.0018 -0.0281
 3136TIP3    H130823   4.395   4.627   3.763  1.3230  2.2587 -0.7948
 3136TIP3    H230824   4.515   4.698   3.821  2.5067 -1.0097  1.0601
 3137TIP3   OH230825   2.210   6.039  12.899 -0.5296  0.1290 -0.3502
 3137TIP3    H130826   2.233   5.974  12.832  1.4357  0.6889 -0.2949
 3137TIP3    H230827   2.293   6.056  12.945 -1.7016  0.1175  1.9257
 3138TIP3   OH230828   5.405   5.700   4.387  0.4491 -0.0394  0.0082
 3138TIP3    H130829   5.459   5.745   4.322  1.0339  0.2726  0.6987
 3138TIP3    H230830   5.375   5.769   4.446  3.2811 -0.6891  2.4873
 3139TIP3   OH230831   4.204   5.502  17.032 -0.2349 -0.4164  0.3779
 3139TIP3    H130832   4.259   5.554  16.973  1.5954  0.7134  2.9159
 3139TIP3    H230833   4.146   5.566  17.074  0.1533 -0.7933  1.5332
 3140TIP3   OH230834   2.623   5.630   4.165  0.2940 -0.0929  0.3768
 3140TIP3    H130835   2.671   5.709   4.190 -0.5864  0.8333 -0.7408
 3140TIP3    H230836   2.536   5.662   4.143 -0.1940 -1.4531  0.2814
 3141TIP3   OH230837   4.098   1.605  11.989  0.4538 -0.1669  0.6263
 3141TIP3    H130838   4.095   1.581  11.896 -2.8832 -0.5402  0.7294
 3141TIP3    H230839   4.081   1.523  12.036  0.2015  0.3658  1.4862
 3142TIP3   OH230840   5.439   0.765   6.031  0.0993  0.3236 -0.2396
 3142TIP3    H130841   5.382   0.827   6.077  0.5896  0.7223 -0.1616
 3142TIP3    H230842   5.476   0.712   6.101 -0.2584 -0.0117 -0.3002
 3143TIP3   OH230843   4.612   6.723   5.139 -0.0081 -0.1762 -0.4722
 3143TIP3    H130844   4.594   6.633   5.111 -1.3549 -0.8674  2.3165
 3143TIP3    H230845   4.550   6.776   5.089 -0.5762 -1.0154 -0.6778
 3144TIP3   OH230846   0.552   5.141   1.239 -0.0519  0.5237 -0.1765
 3144TIP3    H130847   0.544   5.048   1.261  1.0691  0.3832 -0.2648
 3144TIP3    H230848   0.467   5.164   1.201  0.0508 -0.8027 -1.3117
 3145TIP3   OH230849   4.584   5.429  14.308 -0.5981 -0.0759 -0.2155
 3145TIP3    H130850   4.604   5.377  14.386 -0.7975 -0.3225 -0.3291
 3145TIP3    H230851   4.509   5.483  14.334 -0.5157  0.0144 -0.1628
 3146TIP3   OH230852   1.805   1.311   4.189  0.5859 -0.7515  0.7673
 3146TIP3    H130853   1.837   1.401   4.199  0.5354 -0.8021  1.4137
 3146TIP3    H230854   1.883   1.257   4.195  0.5198 -0.8019  1.2362
 3147TIP3   OH230855   0.876   2.387   1.805  0.3011 -0.4069  0.4965
 3147TIP3    H130856   0.966   2.374   1.833  1.0920 -0.3996 -1.8304
 3147TIP3    H230857   0.857   2.312   1.748  0.1434  1.3931 -1.9690
 3148TIP3   OH230858   6.564   5.838   2.244 -0.1468 -0.4734  0.8945
 3148TIP3    H130859   6.507   5.820   2.169  0.3442  0.7424  0.1950
 3148TIP3    H230860   6.570   5.755   2.290 -1.5193 -0.9198  0.3235
 3149TIP3   OH230861   5.686   5.756  11.935  0.1668  0.6944  0.1911
 3149TIP3    H130862   5.692   5.810  12.013  0.7602 -1.3361  1.6301
 3149TIP3    H230863   5.601   5.713  11.941  0.8815 -0.7290  0.6429
 3150TIP3   OH230864   4.032   0.600   4.399  0.4196  0.5881 -0.1037
 3150TIP3    H130865   4.074   0.612   4.314  1.5350 -1.8219  0.0293
 3150TIP3    H230866   4.024   0.505   4.409 -2.2149  0.8638  1.3096
 3151TIP3   OH230867   2.170   5.578  10.609  0.0863 -0.2700  0.4131
 3151TIP3    H130868   2.184   5.512  10.541 -1.6932  0.8196 -1.1263
 3151TIP3    H230869   2.220   5.654  10.579 -1.7557  0.6611 -0.4570
 3152TIP3   OH230870   1.993   6.308  12.037  0.0616  0.1107  0.2385
 3152TIP3    H130871   2.051   6.379  12.010 -1.4941  0.8956 -1.2380
 3152TIP3    H230872   2.022   6.233  11.985  0.3573  0.2330  0.2224
 3153TIP3   OH230873   6.720   3.911  14.489 -0.7881 -0.6367  0.3464
 3153TIP3    H130874   6.791   3.964  14.523 -0.1791 -1.2398  0.0379
 3153TIP3    H230875   6.641   3.963  14.505 -0.3332 -0.1576  1.0989
 3154TIP3   OH230876   0.713   6.138   3.652 -0.1397  0.5536 -0.2136
 3154TIP3    H130877   0.658   6.078   3.703  0.4099 -0.4706 -0.7938
 3154TIP3    H230878   0.797   6.136   3.696  0.0555  0.4194 -0.5862
 3155TIP3   OH230879   0.366   0.700   5.861 -0.0794  0.3144  0.3839
 3155TIP3    H130880   0.380   0.794   5.866  0.9782  0.1309  1.4518
 3155TIP3    H230881   0.307   0.680   5.934  2.0706 -0.2019  2.0818
 3156TIP3   OH230882   2.463   3.566  11.073  0.0008 -0.8099  0.4726
 3156TIP3    H130883   2.449   3.544  10.980 -0.8045  1.5115 -0.0051
 3156TIP3    H230884   2.419   3.495  11.120 -1.4569 -0.9305 -0.9532
 3157TIP3   OH230885   2.108   3.851   3.890  0.2479  0.4760  0.4832
 3157TIP3    H130886   2.182   3.790   3.896 -0.5915 -0.6216  0.1237
 3157TIP3    H230887   2.100   3.871   3.797 -0.1396  0.2797  0.4711
 3158TIP3   OH230888   5.529   6.695   4.914  0.1828 -0.4528  0.1303
 3158TIP3    H130889   5.583   6.635   4.862 -0.0638  0.8546 -1.7423
 3158TIP3    H230890   5.565   6.781   4.894 -1.1731  0.2437  0.6422
 3159TIP3   OH230891   0.176   4.164   0.966  0.6044  0.4882  0.4424
 3159TIP3    H130892   0.105   4.227   0.956  0.7769  0.7623  0.9639
 3159TIP3    H230893   0.204   4.146   0.876 -1.0372 -0.6787  0.1094
 3160TIP3   OH230894   0.538   1.914   4.977  0.5338 -0.4732  0.0627
 3160TIP3    H130895   0.500   1.981   5.033  2.8920  0.2014  0.9888
 3160TIP3    H230896   0.508   1.831   5.013  0.2021  0.0206  0.9397
 3161TIP3   OH230897   3.273   0.790  16.630 -0.1472 -0.0695 -0.3158
 3161TIP3    H130898   3.343   0.728  16.608  1.7351  0.7668  2.7071
 3161TIP3    H230899   3.248   0.767  16.720 -0.3502  2.6133  0.4004
 3162TIP3   OH230900   5.771   4.861   5.421 -0.2205 -0.7804 -0.2444
 3162TIP3    H130901   5.752   4.955   5.420  0.8610 -0.5497 -0.8687
 3162TIP3    H230902   5.685   4.819   5.417 -0.6812  0.1909 -0.9154
 3163TIP3   OH230903   2.012   6.262  15.199 -0.3400  0.4375  0.7106
 3163TIP3    H130904   1.976   6.211  15.271 -0.7213 -0.8966 -0.3843
 3163TIP3    H230905   1.971   6.348  15.208  0.7047  0.7804  2.8911
 3164TIP3   OH230906   5.351   6.209  11.774  0.4773 -0.8229 -0.3371
 3164TIP3    H130907   5.310   6.219  11.860  0.7233 -3.2167  0.1555
 3164TIP3    H230908   5.430   6.263  11.778  0.9292 -1.5416  1.2909
 3165TIP3   OH230909   6.143   5.004  15.810 -0.0461 -0.0152 -0.0089
 3165TIP3    H130910   6.116   5.052  15.732 -0.5882 -1.3346 -0.6661
 3165TIP3    H230911   6.085   5.035  15.879  0.3228  1.0357 -0.1503
 3166TIP3   OH230912   2.508   2.127  16.731 -0.3292  0.3709 -0.5622
 3166TIP3    H130913   2.560   2.158  16.805  0.8150  0.9763 -1.5787
 3166TIP3    H230914   2.441   2.194  16.720  0.3296  0.9920 -0.9031
 3167TIP3   OH230915   5.194   0.725  16.938  0.7323 -0.2718 -0.3749
 3167TIP3    H130916   5.195   0.729  16.843 -0.9858  2.1570 -0.3678
 3167TIP3    H230917   5.257   0.791  16.966 -0.1406  0.3651  0.1397
 3168TIP3   OH230918   0.478   2.973   5.737  0.1500 -0.0526  0.3670
 3168TIP3    H130919   0.503   2.934   5.820 -2.0167 -2.3064  0.0687
 3168TIP3    H230920   0.511   3.063   5.742  0.0898 -0.1081  3.6367
 3169TIP3   OH230921   1.309   4.085  16.978 -0.0016  0.2978 -0.2048
 3169TIP3    H130922   1.246   4.050  17.042  0.3578 -0.3767 -0.2014
 3169TIP3    H230923   1.395   4.059  17.013  0.1428 -2.1741 -2.0930
 3170TIP3   OH230924   6.796   2.521  12.552  0.1976  0.2491  0.6423
 3170TIP3    H130925   6.824   2.460  12.483  0.6646  0.0425  1.0021
 3170TIP3    H230926   6.860   2.507  12.623 -0.6129  0.0279  1.3497
 3171TIP3   OH230927   4.480   1.708   3.978 -0.6330 -0.0457  0.0338
 3171TIP3    H130928   4.555   1.730   3.922 -1.1029 -1.2633 -1.1210
 3171TIP3    H230929   4.466   1.786   4.031  0.3275  0.8738 -1.0176
 3172TIP3   OH230930   1.503   0.010   0.445 -0.0718 -0.1189 -0.7645
 3172TIP3    H130931   1.508   0.090   0.498  0.2962 -0.8133  0.2945
 3172TIP3    H230932   1.426   0.022   0.390  0.1379  1.0804 -0.8234
 3173TIP3   OH230933   5.179   5.496  15.722 -0.3005 -0.2313 -0.0777
 3173TIP3    H130934   5.142   5.573  15.678 -0.2517 -0.1005  0.1051
 3173TIP3    H230935   5.141   5.499  15.810  0.7389  0.3508  0.3764
 3174TIP3   OH230936   3.575   4.900  16.759 -0.1675  0.8119 -0.1546
 3174TIP3    H130937   3.536   4.823  16.801  2.2569  0.3273  1.4507
 3174TIP3    H230938   3.600   4.869  16.672 -0.7995  0.3331 -0.1778
 3175TIP3   OH230939   5.610   5.024   2.877  0.3421 -0.2354  0.2668
 3175TIP3    H130940   5.703   5.048   2.882  0.9081 -1.3842 -2.6159
 3175TIP3    H230941   5.592   4.979   2.960  3.2270 -2.5942 -0.2167
 3176TIP3   OH230942   2.271   2.640  14.161 -1.1405 -0.7007 -0.1191
 3176TIP3    H130943   2.270   2.623  14.255  0.3732 -2.7615 -0.3900
 3176TIP3    H230944   2.205   2.708  14.147 -1.0589 -0.0100  2.4738
 3177TIP3   OH230945   5.839   4.682   4.200 -0.0392 -0.2213 -0.2705
 3177TIP3    H130946   5.800   4.733   4.271  0.7824 -1.3308  1.0285
 3177TIP3    H230947   5.815   4.592   4.220  0.0168 -0.5392 -1.5603
 3178TIP3   OH230948   0.282   5.218  16.625  0.2029  0.1053  0.0360
 3178TIP3    H130949   0.315   5.308  16.624  0.0273  0.1677 -0.7581
 3178TIP3    H230950   0.234   5.211  16.707 -0.4354  0.9900 -0.2461
 3179TIP3   OH230951   0.757   5.810  16.680  0.3688 -0.2503 -0.3947
 3179TIP3    H130952   0.705   5.730  16.676  0.1240 -0.1034 -0.1975
 3179TIP3    H230953   0.845   5.780  16.700  0.2984 -0.4799 -0.4204
 3180TIP3   OH230954   5.890   2.216   3.690  0.4205  0.2259  0.0777
 3180TIP3    H130955   5.947   2.286   3.658  0.1347  0.2108 -0.4733
 3180TIP3    H230956   5.836   2.192   3.615 -0.2634  0.1855  0.5654
 3181TIP3   OH230957   1.785   5.430   2.462 -0.3638 -0.0783  0.1238
 3181TIP3    H130958   1.810   5.423   2.555  0.2024 -1.1462 -0.1028
 3181TIP3    H230959   1.864   5.463   2.419 -0.4873 -0.0178 -0.0552
 3182TIP3   OH230960   2.870   5.333   5.927 -0.8705  0.0302  0.6277
 3182TIP3    H130961   2.784   5.295   5.948 -0.6133 -0.4379  0.8432
 3182TIP3    H230962   2.896   5.377   6.008  0.2343 -1.9847  1.4340
 3183TIP3   OH230963   3.912   3.052   3.702  0.3325 -0.4789 -0.3733
 3183TIP3    H130964   3.944   3.010   3.782  0.6967  0.2998 -0.1006
 3183TIP3    H230965   3.936   3.144   3.712  0.0784 -0.3109 -1.2282
 3184TIP3   OH230966   2.429   2.601  16.762 -0.5625  0.0893  0.6633
 3184TIP3    H130967   2.406   2.518  16.721  1.8239 -0.0753 -0.5651
 3184TIP3    H230968   2.408   2.667  16.696 -0.3990  0.2380  0.7577
 3185TIP3   OH230969   2.860   0.612  14.740  0.3907 -0.2271 -0.0585
 3185TIP3    H130970   2.928   0.550  14.767  0.9896  0.8389  1.0129
 3185TIP3    H230971   2.897   0.658  14.665 -0.3846 -1.6825 -1.3802
 3186TIP3   OH230972   3.298   4.449   0.687 -0.5103  0.0983 -0.1852
 3186TIP3    H130973   3.375   4.506   0.684 -1.1342  1.0142  0.3404
 3186TIP3    H230974   3.325   4.368   0.644  0.3840  0.8302 -1.0350
 3187TIP3   OH230975   2.983   4.296   3.856  0.5089  0.2793  0.3121
 3187TIP3    H130976   3.017   4.208   3.840  0.3620  0.4784 -1.3335
 3187TIP3    H230977   3.029   4.326   3.934  1.2454 -0.9152  0.3602
 3188TIP3   OH230978   2.546   3.513   5.207  0.6190  0.4042  0.1970
 3188TIP3    H130979   2.522   3.485   5.119 -0.7910  1.9175  0.0382
 3188TIP3    H230980   2.463   3.519   5.254  1.4783 -2.2156  2.2920
 3189TIP3   OH230981   3.318   1.282  10.520  0.2803  0.5186 -0.2281
 3189TIP3    H130982   3.238   1.332  10.505 -0.4808 -0.1065  1.3931
 3189TIP3    H230983   3.357   1.323  10.597 -1.4570 -2.4432  2.5048
 3190TIP3   OH230984   1.036   6.483  14.910  0.3592  0.0572 -0.1972
 3190TIP3    H130985   1.010   6.574  14.899  0.8306  0.3115  0.7063
 3190TIP3    H230986   0.960   6.432  14.883 -0.0749  0.7352 -0.2499
 3191TIP3   OH230987   2.942   3.348   1.645  0.1849  0.2185  0.1259
 3191TIP3    H130988   2.974   3.364   1.733  1.2515 -1.3916  0.0758
 3191TIP3    H230989   2.921   3.435   1.611  1.3704  1.0327  1.3650
 3192TIP3   OH230990   6.024   6.512   3.936  0.2721  0.0053  0.1381
 3192TIP3    H130991   5.964   6.486   4.007 -0.6505  2.0918  0.1899
 3192TIP3    H230992   6.007   6.449   3.867  0.2377 -1.2887  1.2785
 3193TIP3   OH230993   4.923   6.343   0.361  0.0720 -0.9163 -0.6727
 3193TIP3    H130994   5.013   6.373   0.373 -0.4141 -0.0606  1.0555
 3193TIP3    H230995   4.918   6.262   0.410 -0.2670 -0.6221 -0.2155
 3194TIP3   OH230996   5.693   6.440  12.572 -0.4167  0.2585 -0.2509
 3194TIP3    H130997   5.659   6.498  12.640 -1.5430  0.1375 -0.6932
 3194TIP3    H230998   5.615   6.401  12.532  0.2408  0.0802 -1.3971
 3195TIP3   OH230999   6.625   2.309  12.096 -0.7838  0.5596 -0.3898
 3195TIP3    H131000   6.649   2.396  12.127  0.7729 -0.3219  1.0681
 3195TIP3    H231001   6.707   2.273  12.061 -0.7413 -1.1924  1.3186
 3196TIP3   OH231002   4.079   3.248  14.266 -0.1682 -0.3042 -0.7967
 3196TIP3    H131003   4.071   3.164  14.311 -1.3313 -0.1124 -0.6126
 3196TIP3    H231004   4.131   3.302  14.326 -2.4284  0.2355  0.8418
 3197TIP3   OH231005   1.041   2.474  16.859  0.0973  0.0858  0.6520
 3197TIP3    H131006   1.019   2.479  16.952 -1.9947  1.1482  0.1706
 3197TIP3    H231007   1.099   2.549  16.844 -2.1859  1.9795  0.5554
 3198TIP3   OH231008   0.944   1.782  11.624 -0.3506 -0.0519  0.2604
 3198TIP3    H131009   0.896   1.706  11.591 -1.9731  0.5307  1.1378
 3198TIP3    H231010   0.967   1.832  11.546 -0.4102 -0.7881 -0.2406
 3199TIP3   OH231011   4.755   4.998  13.387  0.3146 -0.7149  0.5670
 3199TIP3    H131012   4.756   4.908  13.419  1.8478 -1.1635 -0.6197
 3199TIP3    H231013   4.786   5.051  13.461 -1.0914 -1.0722  1.4358
 3200TIP3   OH231014   1.755   0.909  10.789  0.1100 -0.1173 -0.1411
 3200TIP3    H131015   1.804   0.965  10.728  1.4670 -0.9804  0.1094
 3200TIP3    H231016   1.670   0.898  10.747  0.4480  0.6328 -1.0881
 3201TIP3   OH231017   5.922   1.758  15.121 -0.1500  0.1648 -0.6097
 3201TIP3    H131018   5.993   1.725  15.175 -1.5714  0.3007  1.4413
 3201TIP3    H231019   5.929   1.853  15.127  0.9553  0.2570 -2.4841
 3202TIP3   OH231020   5.677   0.438  15.050 -0.1129 -0.0661 -0.0200
 3202TIP3    H131021   5.705   0.528  15.063 -0.2058 -0.0489  0.0657
 3202TIP3    H231022   5.757   0.387  15.054 -0.3248 -0.3329  3.0117
 3203TIP3   OH231023   1.125   3.653   4.412  0.3757  0.8330  0.5579
 3203TIP3    H131024   1.217   3.650   4.388  0.1546 -0.7810 -0.2745
 3203TIP3    H231025   1.119   3.598   4.490  0.0790  0.6513  0.4104
 3204TIP3   OH231026   2.902   4.015  13.953 -0.7198  0.3153  0.2488
 3204TIP3    H131027   2.903   3.963  14.034  0.4116 -0.3755 -0.1873
 3204TIP3    H231028   2.918   4.105  13.982 -0.5660  0.1100  0.8192
 3205TIP3   OH231029   4.109   2.238   5.323 -0.6858  0.6256  0.5033
 3205TIP3    H131030   4.152   2.177   5.263 -0.1408  0.8696  0.6422
 3205TIP3    H231031   4.140   2.212   5.410 -0.9572  0.6952  0.6237
 3206TIP3   OH231032   4.920   3.607  15.212 -0.6037  0.3836 -0.1435
 3206TIP3    H131033   4.945   3.695  15.183  1.3912 -0.2285 -0.3738
 3206TIP3    H231034   4.912   3.557  15.131 -1.0817  0.1645  0.0319
 3207TIP3   OH231035   1.363   4.217  16.695  0.2196 -0.4526  0.3539
 3207TIP3    H131036   1.428   4.272  16.651 -0.0080 -0.7928 -0.4253
 3207TIP3    H231037   1.413   4.171  16.762  0.4633  0.4919  0.8441
 3208TIP3   OH231038   1.584   3.462  12.204 -0.4619  0.5013 -0.0613
 3208TIP3    H131039   1.631   3.526  12.256 -2.8525  2.0719  0.3611
 3208TIP3    H231040   1.513   3.431  12.262 -1.3643  0.0113 -1.3731
 3209TIP3   OH231041   4.118   2.468  10.445 -0.0427 -0.4155 -0.6842
 3209TIP3    H131042   4.022   2.475  10.443 -0.3162  0.1173  4.0051
 3209TIP3    H231043   4.134   2.378  10.472  0.2765  0.8047  4.0476
 3210TIP3   OH231044   2.304   3.551  15.269  0.1427 -0.1183 -0.2307
 3210TIP3    H131045   2.257   3.631  15.244  0.6582  0.5980  1.0382
 3210TIP3    H231046   2.294   3.546  15.364  2.3829 -0.0861  0.0540
 3211TIP3   OH231047   3.657   6.306  13.539  0.7817 -0.1579 -0.5398
 3211TIP3    H131048   3.694   6.227  13.579 -1.6196 -1.2211 -0.2781
 3211TIP3    H231049   3.587   6.274  13.483 -0.3129  1.7957 -0.3714
 3212TIP3   OH231050   1.992   6.006   2.894 -0.6538  0.1479 -0.7937
 3212TIP3    H131051   1.958   5.916   2.898 -0.2046 -0.0794 -1.6598
 3212TIP3    H231052   2.031   6.021   2.980 -0.9337 -0.4085 -0.5655
 3213TIP3   OH231053   1.043   5.984  15.920 -0.1433  0.0212  0.1713
 3213TIP3    H131054   1.033   6.000  16.014  0.7005  0.7917  0.1465
 3213TIP3    H231055   1.024   6.069  15.879  2.4325  0.5143 -0.1232
 3214TIP3   OH231056   6.801   0.072  11.665  0.3484 -0.5348  0.0080
 3214TIP3    H131057   6.842   0.113  11.741 -0.0581 -0.1741  0.0400
 3214TIP3    H231058   6.763   0.145  11.615 -1.2833 -0.9130  0.6074
 3215TIP3   OH231059   4.892   0.673   2.874  0.2726  0.1625  0.1298
 3215TIP3    H131060   4.800   0.647   2.864  0.3241  0.2865 -0.7401
 3215TIP3    H231061   4.918   0.636   2.958 -0.1842 -1.0510 -0.2427
 3216TIP3   OH231062   3.298   0.404  11.190 -0.3144 -0.5345  0.3184
 3216TIP3    H131063   3.359   0.351  11.138  0.0507 -2.4350  2.5263
 3216TIP3    H231064   3.338   0.491  11.193  0.9023 -1.0382 -0.4797
 3217TIP3   OH231065   4.928   4.807  15.756 -0.0044 -0.3984  0.0980
 3217TIP3    H131066   4.894   4.736  15.809 -0.2280 -0.1537  0.2865
 3217TIP3    H231067   4.873   4.807  15.677 -0.8043  0.3378  0.6389
 3218TIP3   OH231068   0.035   4.632   3.356 -0.4806  0.1485  0.1828
 3218TIP3    H131069   0.107   4.679   3.313 -0.1369  0.5076  1.1181
 3218TIP3    H231070   0.002   4.572   3.290  0.5865  0.0953 -0.3178
 3219TIP3   OH231071   4.468   1.200   4.690  0.0640 -0.1221  0.0498
 3219TIP3    H131072   4.392   1.179   4.636  0.3424 -0.0013 -0.3857
 3219TIP3    H231073   4.533   1.234   4.629  0.5126 -0.3302  0.4086
 3220TIP3   OH231074   2.156   0.435   2.724 -0.4326 -0.0771 -0.0061
 3220TIP3    H131075   2.064   0.415   2.708 -0.4919 -0.1855  0.4501
 3220TIP3    H231076   2.203   0.394   2.651 -0.7718  0.3017 -0.4487
 3221TIP3   OH231077   6.043   1.988  14.981  0.4398 -0.6998  0.2843
 3221TIP3    H131078   6.005   2.047  14.916  1.7905 -1.7313 -1.5130
 3221TIP3    H231079   6.079   2.047  15.048 -0.2199  0.4211 -0.3169
 3222TIP3   OH231080   5.077   5.949  11.710  0.1038 -0.3463  0.0632
 3222TIP3    H131081   5.147   5.902  11.665 -0.1684 -0.2663 -0.4484
 3222TIP3    H231082   5.026   5.879  11.753 -0.0248 -0.4815 -0.3046
 3223TIP3   OH231083   4.876   2.034  14.836  1.0735 -0.1987  0.7281
 3223TIP3    H131084   4.867   1.949  14.792  0.1278 -0.9454  2.3018
 3223TIP3    H231085   4.822   2.094  14.784  0.9602 -0.7757  0.1739
 3224TIP3   OH231086   5.231   5.288   2.528 -0.3509 -0.6283  0.1494
 3224TIP3    H131087   5.218   5.382   2.531  0.3569 -0.4767 -0.9074
 3224TIP3    H231088   5.228   5.267   2.434 -0.1759 -1.6032  0.3514
 3225TIP3   OH231089   3.975   1.449  16.979 -0.4404 -0.0339  0.7029
 3225TIP3    H131090   4.052   1.428  16.928 -1.2922  1.1953 -1.1890
 3225TIP3    H231091   4.009   1.485  17.061  0.9601 -0.5508  0.3667
 3226TIP3   OH231092   1.857   6.564   3.496  0.0431 -0.2683 -0.1186
 3226TIP3    H131093   1.770   6.581   3.460  0.7555  1.7841 -1.0425
 3226TIP3    H231094   1.849   6.591   3.588 -0.1449  0.5946 -0.3719
 3227TIP3   OH231095   4.960   1.201  11.561  0.0532  0.2461  0.2033
 3227TIP3    H131096   5.039   1.164  11.522  1.3520  1.9706  1.0833
 3227TIP3    H231097   4.935   1.138  11.630 -0.0326 -0.8666 -0.8139
 3228TIP3   OH231098   0.485   2.514   6.227  0.7553  0.5855  0.3715
 3228TIP3    H131099   0.488   2.424   6.197 -0.2840  0.8860 -0.7379
 3228TIP3    H231100   0.564   2.526   6.279  1.4803 -0.6211 -0.4289
 3229TIP3   OH231101   4.609   3.314   1.562  0.2025 -0.2054  1.0104
 3229TIP3    H131102   4.546   3.346   1.497  1.3384 -0.9353 -0.5091
 3229TIP3    H231103   4.557   3.300   1.641 -1.2650  0.5076  0.2173
 3230TIP3   OH231104   2.697   1.545   5.799  0.1463  0.1870  0.1928
 3230TIP3    H131105   2.737   1.488   5.865 -0.2691 -1.4064 -0.8555
 3230TIP3    H231106   2.646   1.485   5.744 -0.2695  1.5879 -1.0065
 3231TIP3   OH231107   0.696   6.705  14.941 -0.1558 -0.2555  0.3698
 3231TIP3    H131108   0.640   6.775  14.910  0.3224 -0.4665 -1.0777
 3231TIP3    H231109   0.785   6.741  14.935 -0.0672 -0.1282  2.0566
 3232TIP3   OH231110   5.381   1.734   5.368 -0.0677  0.4392  0.4120
 3232TIP3    H131111   5.473   1.759   5.375 -0.3896  1.3680  1.7928
 3232TIP3    H231112   5.334   1.800   5.418 -1.8940  2.0167 -3.0126
 3233TIP3   OH231113   3.695   6.021   3.824 -0.4286 -0.5225  0.4446
 3233TIP3    H131114   3.768   6.083   3.827 -0.7459 -0.1674  1.8690
 3233TIP3    H231115   3.717   5.961   3.753 -0.5208  1.7034 -1.5935
 3234TIP3   OH231116   2.547   3.233  13.964 -0.2158  0.2309  0.4598
 3234TIP3    H131117   2.482   3.293  14.001  0.4908  0.2688  1.6916
 3234TIP3    H231118   2.581   3.184  14.039  0.4400 -0.5226 -0.2980
 3235TIP3   OH231119   1.613   5.050   2.993  0.2265 -0.0611  0.3435
 3235TIP3    H131120   1.526   5.083   3.012  1.1644  2.7589  0.1701
 3235TIP3    H231121   1.655   5.041   3.079  0.2381 -0.0004  0.3441
 3236TIP3   OH231122   2.228   4.359   0.489 -0.7025  0.6436  0.2456
 3236TIP3    H131123   2.265   4.375   0.402  0.0499  2.0955  0.7900
 3236TIP3    H231124   2.295   4.307   0.534 -0.4084  1.1677  0.4263
 3237TIP3   OH231125   1.792   6.142   6.094  0.7294  0.3789 -0.3740
 3237TIP3    H131126   1.767   6.068   6.038  0.3332 -3.3699  4.1421
 3237TIP3    H231127   1.713   6.161   6.145  1.6173  2.1935  0.4045
 3238TIP3   OH231128   3.505   0.821   1.679 -0.3175  0.2099  0.1655
 3238TIP3    H131129   3.503   0.743   1.735  0.3625  0.4008  0.4641
 3238TIP3    H231130   3.457   0.888   1.730  0.6638  0.5058  0.7195
 3239TIP3   OH231131   6.302   5.903  12.074 -0.4471  0.2301  0.3023
 3239TIP3    H131132   6.240   5.967  12.040  1.4613  1.6315 -0.7002
 3239TIP3    H231133   6.346   5.869  11.996  0.4386 -0.3279  1.0302
 3240TIP3   OH231134   4.178   3.586   1.159 -0.3061  0.6452 -0.1618
 3240TIP3    H131135   4.193   3.666   1.109  0.2303 -0.1103 -1.2473
 3240TIP3    H231136   4.211   3.606   1.247  2.2498  0.7960 -1.0786
 3241TIP3   OH231137   4.806   0.285   1.431  0.4457 -0.0993  0.2670
 3241TIP3    H131138   4.838   0.197   1.449 -1.2933 -0.9034 -0.3573
 3241TIP3    H231139   4.754   0.308   1.508  1.4079  0.6741  0.7117
 3242TIP3   OH231140   1.274   4.566   1.983  0.0417  0.2023 -0.5131
 3242TIP3    H131141   1.317   4.650   1.989 -2.0800  1.3857 -0.7305
 3242TIP3    H231142   1.245   4.560   1.891  0.9181 -1.2000 -0.7415
 3243TIP3   OH231143   0.318   2.492   5.686  0.8386  0.1819 -0.0273
 3243TIP3    H131144   0.245   2.542   5.724  0.0279 -0.1693 -1.0841
 3243TIP3    H231145   0.393   2.551   5.690  0.3056  0.8379  0.3404
 3244TIP3   OH231146   3.380   2.084   4.992 -0.2658 -0.4564 -0.8629
 3244TIP3    H131147   3.464   2.111   5.028 -1.3040  0.0349  1.3070
 3244TIP3    H231148   3.362   2.147   4.922  0.6041  0.1421 -0.5586
 3245TIP3   OH231149   2.912   1.853  10.926  0.4022 -0.0561 -0.5501
 3245TIP3    H131150   2.918   1.824  11.018  0.0702  0.2066 -0.4454
 3245TIP3    H231151   2.843   1.919  10.926  2.2339  1.9450 -0.4857
 3246TIP3   OH231152   0.099   2.018  15.069  0.5769 -0.2343  0.1275
 3246TIP3    H131153   0.176   1.981  15.112  0.7543 -0.9741 -0.8061
 3246TIP3    H231154   0.100   2.110  15.094  1.2257 -0.4331  0.8903
 3247TIP3   OH231155   6.625   5.490   1.187  0.0879  0.5834 -0.4456
 3247TIP3    H131156   6.568   5.540   1.245 -1.2405  0.4431 -1.5789
 3247TIP3    H231157   6.620   5.536   1.103 -1.6639 -1.7268 -1.7049
 3248TIP3   OH231158   0.453   4.555   2.229 -0.9383 -0.2053 -0.3124
 3248TIP3    H131159   0.431   4.623   2.165  1.0705 -0.0668 -0.9418
 3248TIP3    H231160   0.398   4.481   2.206 -0.9826  0.1971 -1.5826
 3249TIP3   OH231161   5.889   1.068  14.907  0.4767 -0.2275 -0.4260
 3249TIP3    H131162   5.809   1.120  14.905  1.2585  0.9784 -1.9460
 3249TIP3    H231163   5.935   1.097  14.986 -0.0048 -0.0294 -0.2185
 3250TIP3   OH231164   3.589   1.884   4.425  0.2320  0.3417 -0.4414
 3250TIP3    H131165   3.682   1.906   4.421  1.2912 -3.0805  1.5764
 3250TIP3    H231166   3.554   1.945   4.490  1.3322  0.8368 -0.2750
 3251TIP3   OH231167   5.819   3.369   0.796  0.0019  0.2483  0.0896
 3251TIP3    H131168   5.775   3.360   0.712  1.4321 -0.2696 -0.6230
 3251TIP3    H231169   5.749   3.394   0.857 -1.0122  0.8432 -1.2788
 3252TIP3   OH231170   2.959   4.115  11.985 -0.5555 -0.0381 -0.9207
 3252TIP3    H131171   2.949   4.053  12.057 -2.6208 -0.1356 -1.2350
 3252TIP3    H231172   2.962   4.201  12.027  0.4148 -0.2147 -0.6065
 3253TIP3   OH231173   6.159   1.302   4.503  0.0846 -0.3522 -0.2667
 3253TIP3    H131174   6.179   1.356   4.579  1.0208  1.1674 -1.5138
 3253TIP3    H231175   6.153   1.212   4.537 -0.7986  0.4255  1.7509
 3254TIP3   OH231176   0.625   0.298  11.600 -0.2791 -0.0745 -0.4467
 3254TIP3    H131177   0.628   0.376  11.544 -1.3194  0.5418  0.3262
 3254TIP3    H231178   0.549   0.249  11.568 -0.6777  0.1126  0.1983
 3255TIP3   OH231179   5.151   3.492   4.174  0.1043 -0.2172 -0.2921
 3255TIP3    H131180   5.232   3.521   4.215 -0.1333  0.1983 -0.1008
 3255TIP3    H231181   5.085   3.552   4.208 -0.8901 -2.4806  2.1055
 3256TIP3   OH231182   0.772   6.184  13.958  0.2640  0.1619  0.6235
 3256TIP3    H131183   0.783   6.099  14.001 -0.7688 -0.7012 -0.7498
 3256TIP3    H231184   0.689   6.218  13.992  0.4012  0.3708  0.7527
 3257TIP3   OH231185   3.980   2.232   4.615 -0.6083 -0.3037 -0.7557
 3257TIP3    H131186   3.986   2.142   4.584  0.1327 -0.4406 -0.2321
 3257TIP3    H231187   4.070   2.265   4.614 -0.9573  0.6895 -1.6719
 3258TIP3   OH231188   4.691   6.232   3.276 -0.1175  0.4029  0.1154
 3258TIP3    H131189   4.683   6.267   3.188 -2.2882  0.3114  0.2314
 3258TIP3    H231190   4.611   6.182   3.290  0.9770 -1.0852  1.5075
 3259TIP3   OH231191   4.648   5.273  13.951 -0.2530  0.1218  0.2912
 3259TIP3    H131192   4.703   5.334  14.000  1.5697  0.8981 -2.5264
 3259TIP3    H231193   4.681   5.186  13.974  0.2122  0.4328  0.8087
 3260TIP3   OH231194   3.927   3.221   3.429  0.3654  0.8093  0.2549
 3260TIP3    H131195   3.859   3.240   3.493  2.0948  0.7860  2.1979
 3260TIP3    H231196   3.960   3.307   3.402  2.0415  0.8196  2.1634
 3261TIP3   OH231197   5.867   6.174  14.464 -0.0851 -0.1838 -0.0004
 3261TIP3    H131198   5.787   6.199  14.511 -0.8229 -2.2840 -0.0464
 3261TIP3    H231199   5.922   6.133  14.531  0.3000 -0.1333 -0.2837
 3262TIP3   OH231200   3.414   6.783   2.620  0.4970 -0.3997 -0.0850
 3262TIP3    H131201   3.504   6.814   2.627 -0.4992  2.7482  0.3785
 3262TIP3    H231202   3.368   6.828   2.691 -2.3046  1.7497 -3.0134
 3263TIP3   OH231203   4.795   5.851   3.910 -0.5258 -0.2017 -0.6264
 3263TIP3    H131204   4.723   5.901   3.948  0.4354  0.9609 -0.2848
 3263TIP3    H231205   4.828   5.907   3.839 -0.7597 -1.2939 -1.6420
 3264TIP3   OH231206   0.096   1.133  15.576 -0.0691 -0.2002 -0.2870
 3264TIP3    H131207   0.152   1.210  15.565  1.1391 -1.1748 -1.2114
 3264TIP3    H231208   0.131   1.088  15.653  0.6817 -1.0065 -1.0837
 3265TIP3   OH231209   6.777   0.784   1.845 -0.3524  0.1371  0.0182
 3265TIP3    H131210   6.768   0.866   1.893 -1.1704  0.5053 -0.7439
 3265TIP3    H231211   6.838   0.803   1.774 -0.1570 -0.0552  0.1313
 3266TIP3   OH231212   4.874   5.728  15.792 -0.0896 -0.6431 -0.0206
 3266TIP3    H131213   4.820   5.793  15.747  1.2627  1.8973  1.7575
 3266TIP3    H231214   4.854   5.739  15.885  1.3332 -1.6674  0.4576
 3267TIP3   OH231215   4.398   5.656  13.393  0.0638  1.3204  0.5715
 3267TIP3    H131216   4.324   5.674  13.335 -0.3577 -0.0426  0.6554
 3267TIP3    H231217   4.459   5.727  13.377  0.3695  0.5245 -2.2002
 3268TIP3   OH231218   1.288   6.127   2.555 -0.0514  0.1882  0.0708
 3268TIP3    H131219   1.231   6.116   2.479  2.7312  0.7104 -2.2848
 3268TIP3    H231220   1.251   6.200   2.604 -2.3700 -0.6864 -0.2781
 3269TIP3   OH231221   4.348   3.257   5.630  0.1770  0.2739  0.0189
 3269TIP3    H131222   4.255   3.277   5.616  0.3023  0.2622 -0.8646
 3269TIP3    H231223   4.352   3.161   5.632  0.1109  0.2808  0.4697
 3270TIP3   OH231224   0.424   0.838   3.697 -0.2087  0.0207  0.5202
 3270TIP3    H131225   0.373   0.798   3.627  2.0766 -0.0802 -1.1952
 3270TIP3    H231226   0.443   0.926   3.666  1.6635 -0.3490  0.4832
 3271TIP3   OH231227   3.930   5.912   6.032  0.2269 -0.0259  0.5325
 3271TIP3    H131228   3.966   5.916   6.120  1.6801 -0.5738 -0.0111
 3271TIP3    H231229   3.913   5.819   6.017 -1.9047  0.2519  0.9375
 3272TIP3   OH231230   3.077   2.557  10.447  0.2381  0.1223 -0.0513
 3272TIP3    H131231   3.063   2.463  10.438  0.2235  0.0978  0.2240
 3272TIP3    H231232   3.025   2.596  10.376  1.4284 -0.1562 -1.1108
 3273TIP3   OH231233   6.749   2.378   1.054 -0.3248  0.4200 -0.1052
 3273TIP3    H131234   6.681   2.425   1.004  0.1234  1.5969  0.3481
 3273TIP3    H231235   6.820   2.441   1.061  0.0736 -0.1422  1.0424
 3274TIP3   OH231236   1.404   0.967  13.560  0.0977  0.8425 -0.6515
 3274TIP3    H131237   1.316   0.978  13.595 -0.0338  0.3954 -0.8408
 3274TIP3    H231238   1.402   1.012  13.475  0.3274  1.6561 -0.2307
 3275TIP3   OH231239   3.216   3.996   0.811  0.2636  0.3047 -0.1143
 3275TIP3    H131240   3.192   3.949   0.891 -0.4944  0.3256 -0.3228
 3275TIP3    H231241   3.190   4.087   0.827  1.8625  0.7105  0.3454
 3276TIP3   OH231242   4.256   4.226  15.348  0.1267  0.4548 -0.6035
 3276TIP3    H131243   4.246   4.161  15.279  1.0953 -2.1650  1.5373
 3276TIP3    H231244   4.322   4.287  15.314 -0.3181 -0.0047 -2.4129
 3277TIP3   OH231245   0.127   5.747   2.722 -0.0391  0.1148  0.4974
 3277TIP3    H131246   0.061   5.689   2.761 -0.5368 -1.9457 -2.9575
 3277TIP3    H231247   0.078   5.826   2.697 -0.5767 -0.2115  0.4989
 3278TIP3   OH231248   6.799   1.015   1.980  0.1502 -0.3846 -0.1182
 3278TIP3    H131249   6.882   1.056   1.954  0.0551  0.9419  1.4351
 3278TIP3    H231250   6.733   1.081   1.960 -0.0825  0.0667  1.8786
 3279TIP3   OH231251   0.353   1.702   3.855 -0.4152 -0.2045 -0.4266
 3279TIP3    H131252   0.307   1.618   3.859  1.7864 -1.4814  0.0037
 3279TIP3    H231253   0.408   1.703   3.933 -0.2804  1.5938 -0.5015
 3280TIP3   OH231254   4.240   0.135  14.952  0.2261  0.3147  0.5017
 3280TIP3    H131255   4.304   0.117  14.882 -1.5273 -0.1441 -1.0671
 3280TIP3    H231256   4.212   0.225  14.936 -1.4294 -0.3352 -0.5149
 3281TIP3   OH231257   2.278   2.832  12.305  0.3110 -0.7045  0.2876
 3281TIP3    H131258   2.279   2.736  12.305  0.5461 -0.7530 -1.9467
 3281TIP3    H231259   2.191   2.855  12.339  0.1200 -1.6965  0.5000
 3282TIP3   OH231260   2.812   5.432  13.108 -0.0473 -0.0454 -0.6898
 3282TIP3    H131261   2.902   5.431  13.140  0.4890  1.0129 -2.0805
 3282TIP3    H231262   2.759   5.435  13.188  1.0713 -1.9903  0.1836
 3283TIP3   OH231263   4.210   1.760  14.035 -0.0327  0.5415  0.4850
 3283TIP3    H131264   4.132   1.716  14.069 -0.9986  0.3325 -1.8017
 3283TIP3    H231265   4.204   1.849  14.069 -0.9713  0.3725  0.7907
 3284TIP3   OH231266   5.050   2.127  11.824  0.2290  0.1476  0.0994
 3284TIP3    H131267   5.033   2.035  11.805  3.6821 -0.8685  1.2108
 3284TIP3    H231268   5.091   2.127  11.910 -1.0580  2.9708  0.8524
 3285TIP3   OH231269   4.311   0.940   3.238  0.2393  0.4475  0.0268
 3285TIP3    H131270   4.284   0.994   3.165 -1.3678  1.3162  1.1877
 3285TIP3    H231271   4.303   0.997   3.315 -1.0971 -1.2674  1.2405
 3286TIP3   OH231272   0.313   3.622  11.537 -0.7262  0.0756  0.4093
 3286TIP3    H131273   0.341   3.621  11.445  0.6243 -2.0631  0.7849
 3286TIP3    H231274   0.253   3.548  11.545 -0.2090 -0.2574  1.4124
 3287TIP3   OH231275   5.347   3.984   4.189 -0.1911 -0.3991 -0.2655
 3287TIP3    H131276   5.323   3.955   4.277  0.6343  0.0763  0.1257
 3287TIP3    H231277   5.280   4.048   4.165 -0.1709 -0.2066  0.1937
 3288TIP3   OH231278   4.979   0.533   3.099 -0.3062 -0.1735  0.2363
 3288TIP3    H131279   5.040   0.462   3.075 -0.3781 -0.6280  1.3528
 3288TIP3    H231280   4.916   0.492   3.158 -0.0448  0.9297  1.3243
 3289TIP3   OH231281   5.788   6.059  16.033  0.4211  0.4446  0.5734
 3289TIP3    H131282   5.799   5.968  16.060  2.4583  0.6978  0.7535
 3289TIP3    H231283   5.769   6.054  15.939 -0.0058 -0.1751  0.6895
 3290TIP3   OH231284   1.618   2.085   4.550  0.0087 -0.2401  1.0011
 3290TIP3    H131285   1.615   2.086   4.454  0.7347 -0.7856  0.9677
 3290TIP3    H231286   1.527   2.070   4.576  0.0210 -1.5993  0.3589
 3291TIP3   OH231287   2.752   4.764   3.433 -0.0039 -0.7919  0.1548
 3291TIP3    H131288   2.731   4.836   3.373 -1.7179 -0.2366  1.3397
 3291TIP3    H231289   2.791   4.697   3.377 -0.1657  0.2914 -1.3209
 3292TIP3   OH231290   3.472   0.894   2.781 -0.2873  0.0766  0.1266
 3292TIP3    H131291   3.544   0.955   2.766 -0.1098  0.0201  0.7111
 3292TIP3    H231292   3.488   0.822   2.719 -0.7074  0.7906 -0.8316
 3293TIP3   OH231293   1.085   6.653   4.983 -0.3155  0.0223 -0.3620
 3293TIP3    H131294   1.041   6.571   4.960  0.1064  0.2557 -2.0627
 3293TIP3    H231295   1.176   6.640   4.957 -0.3254  1.1672 -1.0286
 3294TIP3   OH231296   0.570   5.833   4.712 -0.3359  0.0767 -0.5732
 3294TIP3    H131297   0.549   5.795   4.797 -0.8898 -0.0761 -0.7697
 3294TIP3    H231298   0.595   5.759   4.657  0.8490  0.2707 -0.3170
 3295TIP3   OH231299   6.498   2.477  11.446 -0.5241  0.1390  0.4729
 3295TIP3    H131300   6.439   2.460  11.519  0.8878 -1.5403  1.2729
 3295TIP3    H231301   6.559   2.543  11.479 -1.4640  1.3849 -0.1421
 3296TIP3   OH231302   1.224   2.627  14.441  0.4090 -0.3738  0.6681
 3296TIP3    H131303   1.253   2.539  14.465  0.4708 -0.6941 -0.4992
 3296TIP3    H231304   1.165   2.613  14.367 -2.9579  0.2266  3.0023
 3297TIP3   OH231305   6.081   1.356  16.367  0.3613 -0.2743  0.4914
 3297TIP3    H131306   6.008   1.354  16.305  0.9040 -2.5282 -0.1688
 3297TIP3    H231307   6.158   1.373  16.312  0.5499  0.3534  0.9403
 3298TIP3   OH231308   4.565   1.974  15.913 -0.2179  0.3929 -0.2581
 3298TIP3    H131309   4.522   1.888  15.915  2.1881 -0.9065  0.2091
 3298TIP3    H231310   4.503   2.033  15.956 -1.3291 -1.4599  0.8349
 3299TIP3   OH231311   1.515   0.485   2.924  0.5999  0.0510 -0.5171
 3299TIP3    H131312   1.549   0.573   2.939 -0.3694  0.1385  1.5913
 3299TIP3    H231313   1.424   0.497   2.900 -0.1473 -0.3341  1.7944
 3300TIP3   OH231314   6.204   0.488   5.938 -0.0740 -0.3456 -0.3453
 3300TIP3    H131315   6.211   0.566   5.994  0.6111 -1.1276  0.7027
 3300TIP3    H231316   6.289   0.444   5.948 -0.3856 -1.1428 -1.0603
 3301TIP3   OH231317   2.438   2.824   1.279 -0.3353  0.3151  0.1563
 3301TIP3    H131318   2.433   2.892   1.211  1.0014 -0.5410 -0.8379
 3301TIP3    H231319   2.493   2.862   1.347 -0.3270  0.5679  0.0097
 3302TIP3   OH231320   0.808   5.490   1.028 -0.0151 -0.3858  0.3638
 3302TIP3    H131321   0.717   5.513   1.047 -0.6928 -0.9411 -1.8500
 3302TIP3    H231322   0.851   5.575   1.013 -0.3906 -0.1538  0.5872
 3303TIP3   OH231323   6.081   1.578  17.050  0.4410  0.1820 -0.1324
 3303TIP3    H131324   6.022   1.584  17.125  0.2581  0.7593 -0.3130
 3303TIP3    H231325   6.026   1.601  16.975  0.8683  0.6239 -0.3171
 3304TIP3   OH231326   6.511   4.393  16.765 -0.3211 -0.8708  0.1562
 3304TIP3    H131327   6.425   4.433  16.748  0.7553  1.5602 -0.0408
 3304TIP3    H231328   6.494   4.299  16.767 -3.1472 -0.4303  1.1158
 3305TIP3   OH231329   6.450   0.803   0.328 -0.0393 -0.2103  0.0306
 3305TIP3    H131330   6.357   0.790   0.346 -0.1006  0.4835  0.2086
 3305TIP3    H231331   6.480   0.864   0.395  0.1093  1.0940 -1.1802
 3306TIP3   OH231332   0.906   2.709  15.984  0.1784  0.1699  0.2120
 3306TIP3    H131333   0.913   2.755  15.900 -1.5189 -1.0440 -0.6363
 3306TIP3    H231334   0.822   2.738  16.020  1.0928  1.0228  1.7350
 3307TIP3   OH231335   0.015   6.640   4.107 -0.2209  0.1700  0.2721
 3307TIP3    H131336   0.096   6.589   4.102  0.1946  0.9247 -1.0932
 3307TIP3    H231337   0.030   6.702   4.178  1.0079  1.2897 -0.9216
 3308TIP3   OH231338   0.041   2.171  11.531  0.3983  0.0040  0.3970
 3308TIP3    H131339  -0.041   2.127  11.509  0.6331  0.7112 -2.1949
 3308TIP3    H231340   0.059   2.144  11.621 -1.6370 -1.7491  0.3609
 3309TIP3   OH231341   3.738   2.159  11.941 -0.1365  0.3586 -0.0515
 3309TIP3    H131342   3.649   2.125  11.953  0.0031  0.4174  1.3458
 3309TIP3    H231343   3.747   2.227  12.007  0.3502  1.6389 -1.3808
 3310TIP3   OH231344   3.402   5.199  14.016  0.9293  0.4422  0.4367
 3310TIP3    H131345   3.411   5.154  14.100 -0.9501 -0.7048  0.0971
 3310TIP3    H231346   3.388   5.128  13.953  2.6247  1.2594 -0.9237
 3311TIP3   OH231347   6.296   1.419  12.172 -0.4836  0.6729  1.0448
 3311TIP3    H131348   6.224   1.405  12.110 -0.4214  0.4676  1.0158
 3311TIP3    H231349   6.308   1.513  12.175  1.8864  0.6253 -1.9983
 3312TIP3   OH231350   5.114   6.144   0.558  0.1735  0.3950  0.2415
 3312TIP3    H131351   5.156   6.078   0.503 -0.5558  0.3847 -0.3130
 3312TIP3    H231352   5.176   6.217   0.560 -1.2306  1.9000 -3.5629
 3313TIP3   OH231353   6.482   5.319   2.778  0.1065  0.0652 -0.0635
 3313TIP3    H131354   6.470   5.244   2.719 -0.5774 -0.5426  0.8145
 3313TIP3    H231355   6.475   5.281   2.866 -0.9551  1.2724  0.3908
 3314TIP3   OH231356   1.021   4.374   0.307 -0.1844  0.0898 -0.0180
 3314TIP3    H131357   1.009   4.427   0.386 -1.5155 -1.7498  1.0969
 3314TIP3    H231358   1.114   4.382   0.287  0.2556  0.3577  1.9297
 3315TIP3   OH231359   5.626   6.324  16.146 -0.2778  0.1680  0.1307
 3315TIP3    H131360   5.541   6.301  16.182  0.4329 -2.2243  0.4796
 3315TIP3    H231361   5.680   6.346  16.223  0.7562 -3.2683  0.5407
 3316TIP3   OH231362   0.810   1.409   3.056 -0.2180 -0.0466 -0.1502
 3316TIP3    H131363   0.859   1.333   3.024 -0.0294 -0.6387  1.4760
 3316TIP3    H231364   0.877   1.464   3.097 -0.6600 -0.0481  0.5844
 3317TIP3   OH231365   0.337   5.570   9.901 -0.4114 -0.6074  0.5756
 3317TIP3    H131366   0.400   5.498   9.912  0.3189  0.2095  2.1070
 3317TIP3    H231367   0.381   5.631   9.841 -0.2721 -0.6118  0.6722
 3318TIP3   OH231368   4.443   4.568  12.043 -0.3309  0.3630  0.0158
 3318TIP3    H131369   4.449   4.587  11.950 -0.3737  2.5916  0.4040
 3318TIP3    H231370   4.428   4.654  12.084 -1.6276 -0.6977  1.9560
 3319TIP3   OH231371   1.813   0.751   3.469  0.1847  0.0812  0.4945
 3319TIP3    H131372   1.846   0.687   3.406 -2.3524 -0.5461 -0.2906
 3319TIP3    H231373   1.831   0.836   3.428 -0.4918 -0.2904 -0.6278
 3320TIP3   OH231374   3.369   5.001   2.587 -0.0029  0.2681 -0.1725
 3320TIP3    H131375   3.325   4.919   2.612 -0.1449  0.1582 -0.7615
 3320TIP3    H231376   3.331   5.067   2.645  1.1654 -0.3115  1.3257
 3321TIP3   OH231377   3.852   2.539  13.140  0.0659 -0.5331  0.7157
 3321TIP3    H131378   3.929   2.588  13.169  0.5160 -0.6548 -0.2354
 3321TIP3    H231379   3.880   2.495  13.060 -0.7491 -1.2488  0.8113
 3322TIP3   OH231380   2.329   2.308  15.783  0.1616 -0.0395 -0.6293
 3322TIP3    H131381   2.401   2.365  15.811  0.9045 -1.2657  0.0519
 3322TIP3    H231382   2.335   2.308  15.687 -1.3330  2.8343 -0.8172
 3323TIP3   OH231383   3.337   4.205  12.930  0.0736 -0.0878  0.3567
 3323TIP3    H131384   3.375   4.260  12.862  2.2186 -0.4537  1.1656
 3323TIP3    H231385   3.279   4.264  12.979  0.5916  0.8776 -0.1520
 3324TIP3   OH231386   4.806   4.117  11.395 -0.5196  0.2656  0.5880
 3324TIP3    H131387   4.847   4.041  11.438 -1.5514 -0.6832 -0.0564
 3324TIP3    H231388   4.874   4.150  11.336 -0.1130 -0.2638  0.7502
 3325TIP3   OH231389   2.619   3.917  16.877 -0.6100  0.0347  0.5247
 3325TIP3    H131390   2.589   3.938  16.789 -1.4274  0.2629  0.8463
 3325TIP3    H231391   2.696   3.973  16.890 -0.1306 -0.4211 -0.2442
 3326TIP3   OH231392   6.166   2.041  12.633  0.3489 -0.2051 -0.5670
 3326TIP3    H131393   6.155   2.061  12.540 -1.3036  1.0497 -0.1614
 3326TIP3    H231394   6.261   2.035  12.646  0.5954 -0.4048 -2.3197
 3327TIP3   OH231395   6.565   1.823   3.407 -0.1814  0.6142  0.0945
 3327TIP3    H131396   6.472   1.823   3.428  0.0480  1.5097  1.2585
 3327TIP3    H231397   6.608   1.798   3.489  0.5633 -1.0630 -0.7710
 3328TIP3   OH231398   0.535   6.775  13.276 -0.2774 -0.6380 -0.1000
 3328TIP3    H131399   0.525   6.854  13.223 -2.0570 -0.8333 -0.1299
 3328TIP3    H231400   0.446   6.742  13.286  0.1500 -1.3174  1.9344
 3329TIP3   OH231401   4.462   5.648  14.031  0.1296  0.2930  0.7175
 3329TIP3    H131402   4.487   5.623  14.120 -1.5926 -1.2584  0.8311
 3329TIP3    H231403   4.379   5.603  14.016 -0.2229  1.4740 -1.2624
 3330TIP3   OH231404   5.266   2.544  11.042 -0.1947  0.5886  0.2899
 3330TIP3    H131405   5.245   2.634  11.067  1.3381  0.8853  0.6460
 3330TIP3    H231406   5.362   2.543  11.037 -0.1729 -1.1073  0.6152
 3331TIP3   OH231407   3.492   3.930   2.022 -0.2470  0.2186 -0.1029
 3331TIP3    H131408   3.492   3.906   2.115 -0.5141 -1.7954 -0.5767
 3331TIP3    H231409   3.412   3.981   2.010 -0.6795 -0.2928  0.5796
 3332TIP3   OH231410   2.477   2.304   4.700  0.0152 -0.3890  0.2133
 3332TIP3    H131411   2.550   2.354   4.736  0.1218 -0.4321  0.0532
 3332TIP3    H231412   2.483   2.218   4.743  0.1195 -0.4276  0.1190
 3333TIP3   OH231413   6.015   2.379   4.497  0.2335  0.2869  0.1620
 3333TIP3    H131414   6.080   2.449   4.498  0.3010  0.2607 -1.0436
 3333TIP3    H231415   6.060   2.303   4.460 -0.6397  0.4785 -1.4064
 3334TIP3   OH231416   3.399   2.335   1.296  0.0933  0.1847 -0.3808
 3334TIP3    H131417   3.383   2.323   1.202 -0.1837  1.7692 -0.5729
 3334TIP3    H231418   3.312   2.335   1.335 -0.2115  3.4540 -0.7157
 3335TIP3   OH231419   0.339   2.123  10.932 -0.1478 -0.3217 -0.4316
 3335TIP3    H131420   0.281   2.196  10.912  1.1269  0.8528  0.0433
 3335TIP3    H231421   0.377   2.144  11.017  0.5729 -1.3200 -0.4872
 3336TIP3   OH231422   4.587   5.351   4.542 -0.1515 -0.7433 -0.1820
 3336TIP3    H131423   4.682   5.346   4.553  0.0686  0.5393 -1.3168
 3336TIP3    H231424   4.570   5.306   4.459 -0.4321 -0.2334 -0.4064
 3337TIP3   OH231425   0.402   3.524  12.008  0.0017 -0.8088  0.0136
 3337TIP3    H131426   0.469   3.585  12.041 -0.1160 -0.2871 -0.6740
 3337TIP3    H231427   0.450   3.443  11.992  0.0209 -1.1444  1.6243
 3338TIP3   OH231428   3.969   6.052   2.584  0.8491 -0.6011  0.0282
 3338TIP3    H131429   3.964   6.135   2.536  0.0780 -1.2089 -0.9849
 3338TIP3    H231430   4.062   6.040   2.601  1.0323  0.1677 -0.3822
 3339TIP3   OH231431   5.742   6.006   2.041  0.4226  0.3801 -0.3083
 3339TIP3    H131432   5.812   5.944   2.021  0.0386  0.4045 -1.8296
 3339TIP3    H231433   5.740   6.010   2.137  1.3073 -0.9572 -0.2129
 3340TIP3   OH231434   4.303   6.597   6.542 -0.1989 -0.2092  0.0689
 3340TIP3    H131435   4.310   6.685   6.503  0.5968 -0.6301 -0.7867
 3340TIP3    H231436   4.377   6.592   6.603 -0.4055 -0.1924  0.3233
 3341TIP3   OH231437   1.520   0.624   4.033  0.4694 -0.1234  0.3993
 3341TIP3    H131438   1.565   0.708   4.023 -1.1416  0.6553 -0.7058
 3341TIP3    H231439   1.570   0.564   3.978  0.7284  0.4863 -0.0412
 3342TIP3   OH231440   2.544   4.629   1.528 -0.0889  0.0220 -0.3939
 3342TIP3    H131441   2.569   4.717   1.499  1.7968  0.4377  2.1148
 3342TIP3    H231442   2.627   4.582   1.535 -0.6040 -0.6426  2.1010
 3343TIP3   OH231443   2.331   4.360   4.950  0.2628  0.0015 -0.0583
 3343TIP3    H131444   2.323   4.397   4.862 -2.0974 -1.0002 -0.3176
 3343TIP3    H231445   2.407   4.301   4.944  1.4600  1.5345 -0.7800
 3344TIP3   OH231446   2.184   6.607  10.273 -0.2473  0.2820 -0.1704
 3344TIP3    H131447   2.217   6.667  10.206 -0.1230 -0.9295 -1.2304
 3344TIP3    H231448   2.088   6.613  10.266 -0.2378  0.5929 -0.0442
 3345TIP3   OH231449   6.460   2.409   4.020 -0.0915 -0.3829 -0.0291
 3345TIP3    H131450   6.408   2.400   3.940  0.7587  0.7851 -0.7583
 3345TIP3    H231451   6.525   2.340   4.014 -1.2975 -1.6341  0.7195
 3346TIP3   OH231452   4.162   4.331  12.632  0.0724 -0.7458 -0.3400
 3346TIP3    H131453   4.125   4.372  12.711  0.9257  0.1268 -0.3714
 3346TIP3    H231454   4.239   4.284  12.663  0.6841 -0.0126 -0.6927
 3347TIP3   OH231455   1.807   1.903   1.630 -0.0426  0.0519 -0.4558
 3347TIP3    H131456   1.880   1.854   1.668 -0.4484 -0.0576  0.2185
 3347TIP3    H231457   1.835   1.995   1.634 -0.9645  0.3305  2.3803
 3348TIP3   OH231458   5.034   0.534   4.548  0.2322 -0.1399 -0.5416
 3348TIP3    H131459   4.996   0.548   4.634 -0.2124  0.5458 -0.8400
 3348TIP3    H231460   5.127   0.516   4.565  0.7661  2.6777 -0.0505
 3349TIP3   OH231461   6.238   1.823   0.793 -0.9414 -0.0103  0.1354
 3349TIP3    H131462   6.254   1.881   0.866 -0.9840 -0.8083  0.7949
 3349TIP3    H231463   6.229   1.881   0.717 -0.4198  0.7873  0.6748
 3350TIP3   OH231464   4.091   4.820   1.490 -0.2906 -0.4445  0.1607
 3350TIP3    H131465   4.013   4.828   1.435  0.5999  2.2671 -0.9070
 3350TIP3    H231466   4.064   4.765   1.563 -3.0663 -0.0031 -0.4233
 3351TIP3   OH231467   2.688   3.613  13.407 -0.1653 -0.6094 -0.4611
 3351TIP3    H131468   2.728   3.700  13.410 -1.1330 -0.1434 -0.6898
 3351TIP3    H231469   2.684   3.585  13.498  1.0301 -0.8348 -0.4666
 3352TIP3   OH231470   4.702   4.002  15.223 -0.1584 -0.1525  0.3262
 3352TIP3    H131471   4.650   4.031  15.148  0.6818 -0.4191 -0.3715
 3352TIP3    H231472   4.638   3.960  15.281 -0.7796 -0.1855 -0.3680
 3353TIP3   OH231473   4.052   5.952   4.885 -0.2145 -0.4272  0.4938
 3353TIP3    H131474   3.976   5.914   4.929 -0.0068 -2.0527 -0.4506
 3353TIP3    H231475   4.110   5.877   4.869 -0.2388  0.0727 -2.4178
 3354TIP3   OH231476   1.142   3.232  12.942 -0.0474  0.2919  1.0823
 3354TIP3    H131477   1.100   3.262  13.022 -1.8899 -1.9189  1.0397
 3354TIP3    H231478   1.214   3.177  12.971  0.4159  0.9385  1.1794
 3355TIP3   OH231479   6.295   6.075  16.358  0.4668 -0.7945  0.6620
 3355TIP3    H131480   6.243   6.037  16.287  2.4375 -1.9005 -0.2658
 3355TIP3    H231481   6.243   6.148  16.389  0.2320  0.8458 -3.0823
 3356TIP3   OH231482   5.085   4.254  11.981  0.0466 -0.1571 -0.3333
 3356TIP3    H131483   5.088   4.271  11.887 -0.1417  0.7683 -0.1818
 3356TIP3    H231484   5.171   4.282  12.013 -1.1684  3.1968  0.3238
 3357TIP3   OH231485   6.242   4.013  16.656 -0.4567  0.0452  0.7046
 3357TIP3    H131486   6.278   3.945  16.600 -0.4583  1.7106 -1.4358
 3357TIP3    H231487   6.185   4.064  16.599  0.4852  2.5762  1.8688
 3358TIP3   OH231488   2.043   3.383  15.142  0.7262 -1.1071 -0.1480
 3358TIP3    H131489   2.022   3.466  15.185  0.7901 -1.1221 -0.0874
 3358TIP3    H231490   2.061   3.322  15.214 -1.8898 -1.9114 -0.0398
 3359TIP3   OH231491   1.543   5.983  16.063  0.5333  0.1523 -0.2403
 3359TIP3    H131492   1.553   5.888  16.054 -0.4483  0.0590 -0.4287
 3359TIP3    H231493   1.508   6.012  15.979  0.5942  0.6529 -0.1012
 3360TIP3   OH231494   4.049   2.757   0.224 -0.2226 -0.3963  0.0183
 3360TIP3    H131495   4.027   2.841   0.266  1.5823  0.7645 -1.1871
 3360TIP3    H231496   4.006   2.760   0.139  1.2647  0.1471 -0.7503
 3361TIP3   OH231497   5.141   1.378  13.194  0.4292  0.0908 -0.0885
 3361TIP3    H131498   5.117   1.463  13.231 -0.4639  0.9051 -2.3577
 3361TIP3    H231499   5.228   1.391  13.158 -0.0782  0.3830 -1.2707
 3362TIP3   OH231500   5.932   3.724   4.105 -0.2416 -0.0017 -0.4303
 3362TIP3    H131501   6.024   3.714   4.081  0.0122 -2.1805  1.2286
 3362TIP3    H231502   5.908   3.641   4.146 -2.6486  0.9255  0.2074
 3363TIP3   OH231503   6.753   0.210   0.877 -0.2365  0.6559 -0.1726
 3363TIP3    H131504   6.668   0.178   0.846 -0.1625  0.1367  0.1575
 3363TIP3    H231505   6.817   0.149   0.840 -0.2383 -0.8915  2.1449
 3364TIP3   OH231506   3.619   1.477   1.317  0.6335 -0.5598 -0.3260
 3364TIP3    H131507   3.570   1.397   1.297 -0.0550 -0.5402  1.1229
 3364TIP3    H231508   3.553   1.539   1.345  1.2010  0.4411 -1.1407
 3365TIP3   OH231509   5.370   1.274   5.213  0.4554  0.3431 -0.3594
 3365TIP3    H131510   5.409   1.355   5.245 -0.4821  0.5832  0.2306
 3365TIP3    H231511   5.407   1.205   5.268 -0.1216  0.6000  0.3689
 3366TIP3   OH231512   2.187   6.491   1.837 -0.2417 -0.4276 -0.5648
 3366TIP3    H131513   2.253   6.458   1.775  0.8463  2.1301 -0.8601
 3366TIP3    H231514   2.208   6.446   1.919  1.3271 -0.3304 -0.8728
 3367TIP3   OH231515   0.206   2.979   2.853 -0.1372 -0.1236 -0.1357
 3367TIP3    H131516   0.301   2.966   2.861 -0.0447  1.1032  1.2200
 3367TIP3    H231517   0.186   2.953   2.763  1.3953 -0.8988 -0.2908
 3368TIP3   OH231518   5.472   3.643  16.067  0.3348 -0.0176 -0.0847
 3368TIP3    H131519   5.515   3.659  15.983 -0.0655  1.5014 -0.0371
 3368TIP3    H231520   5.493   3.720  16.119 -0.8980 -0.0995  0.5771
 3369TIP3   OH231521   0.519   0.938  14.825  0.2372 -0.2609  0.1000
 3369TIP3    H131522   0.496   0.973  14.739  0.8645  0.6282  0.2844
 3369TIP3    H231523   0.435   0.907  14.861 -0.2745  0.6875 -0.2367
 3370TIP3   OH231524   1.798   1.224   3.472 -0.0608 -0.3955  0.3824
 3370TIP3    H131525   1.770   1.286   3.538  3.0067 -0.3605  1.8398
 3370TIP3    H231526   1.802   1.275   3.391  0.5742  0.8391  1.1557
 3371TIP3   OH231527   3.020   1.586   3.108  0.0106 -0.1295 -0.4492
 3371TIP3    H131528   2.996   1.533   3.033  0.2810 -2.1912  0.8508
 3371TIP3    H231529   3.033   1.523   3.179  1.3158  1.6021  0.9361
 3372TIP3   OH231530   1.744   1.130   5.813 -0.3575  0.9907 -0.1699
 3372TIP3    H131531   1.734   1.158   5.903  0.2752 -1.0942  0.6235
 3372TIP3    H231532   1.827   1.169   5.785  1.4401 -1.3472  1.5025
 3373TIP3   OH231533   6.700   2.549  14.983  0.6942  0.3896 -0.1374
 3373TIP3    H131534   6.644   2.601  15.041 -0.8229 -2.0856  0.8152
 3373TIP3    H231535   6.640   2.514  14.917  1.7510  0.2593 -1.0472
 3374TIP3   OH231536   5.683   3.645   5.750  0.3145  0.2222 -0.0222
 3374TIP3    H131537   5.603   3.676   5.792 -0.3815  0.0420 -1.1831
 3374TIP3    H231538   5.730   3.724   5.726  0.4198  0.3290  0.5141
 3375TIP3   OH231539   2.032   2.979  16.030 -0.5428 -0.3069  0.3121
 3375TIP3    H131540   2.037   2.890  15.994  1.0762 -0.4915  0.9484
 3375TIP3    H231541   1.988   2.968  16.114  0.2266 -0.6089  0.6826
 3376TIP3   OH231542   2.441   3.936  16.449 -0.0614 -0.2181 -0.3635
 3376TIP3    H131543   2.384   3.895  16.514  2.4280 -2.0704  0.8106
 3376TIP3    H231544   2.514   3.971  16.500  1.0728 -0.0950 -2.0102
 3377TIP3   OH231545   4.837   0.285  11.870  0.0557 -0.2049  0.3328
 3377TIP3    H131546   4.826   0.350  11.801 -0.1429 -0.6742 -0.0820
 3377TIP3    H231547   4.866   0.205  11.825 -0.1137 -0.5272  0.7793
 3378TIP3   OH231548   2.370   2.096  14.176 -0.3253 -0.3399  0.0299
 3378TIP3    H131549   2.447   2.125  14.127 -0.4322 -0.4606 -0.2146
 3378TIP3    H231550   2.355   2.164  14.241 -0.1270 -0.2206 -0.0484
 3379TIP3   OH231551   5.203   0.035   4.333 -0.2691 -0.3051  0.0945
 3379TIP3    H131552   5.208  -0.048   4.286  1.3775 -0.4809  0.5257
 3379TIP3    H231553   5.206   0.011   4.425 -0.0649  0.2217  0.2313
 3380TIP3   OH231554   5.383   3.444  14.375 -0.2241  0.3477  0.3704
 3380TIP3    H131555   5.385   3.540  14.367  0.3071  0.3523  0.5134
 3380TIP3    H231556   5.345   3.414  14.293 -1.5684  0.7392  0.8340
 3381TIP3   OH231557   6.451   5.386  11.315  0.8925  0.3347 -0.3051
 3381TIP3    H131558   6.424   5.374  11.406  2.1998  0.9887  0.1884
 3381TIP3    H231559   6.427   5.304  11.272  1.1734 -0.3727  0.8549
 3382TIP3   OH231560   6.018   6.788   4.125  0.5819 -0.1994  0.1024
 3382TIP3    H131561   5.968   6.759   4.049  0.1934  0.7103  0.0041
 3382TIP3    H231562   6.010   6.716   4.188  2.3386 -1.7553 -1.3216
 3383TIP3   OH231563   6.168   0.930   3.707 -0.1061 -0.3298  0.2569
 3383TIP3    H131564   6.090   0.976   3.739 -0.6861 -0.6538 -0.6354
 3383TIP3    H231565   6.239   0.959   3.764 -0.8751  0.0131  1.0540
 3384TIP3   OH231566   2.609   5.457   6.238  0.7687  0.3082  0.5947
 3384TIP3    H131567   2.619   5.400   6.162  0.8313 -1.4221  1.8460
 3384TIP3    H231568   2.680   5.521   6.229 -0.0048  0.9389 -1.4415
 3385TIP3   OH231569   2.265   0.870  16.442 -0.2797  0.2091  0.0527
 3385TIP3    H131570   2.330   0.889  16.373 -0.2413 -0.7818 -0.1994
 3385TIP3    H231571   2.227   0.955  16.463 -2.0116  0.2895 -2.8867
 3386TIP3   OH231572   6.397   1.954  15.506 -0.3071 -0.0235 -0.3758
 3386TIP3    H131573   6.398   1.945  15.601 -2.9649  1.2921 -0.1318
 3386TIP3    H231574   6.478   2.000  15.485  1.7266 -2.7567  0.8613
 3387TIP3   OH231575   5.899   5.970  16.866  0.1454 -0.0531 -0.0041
 3387TIP3    H131576   5.885   6.016  16.949 -1.2784  0.2006 -0.3610
 3387TIP3    H231577   5.897   5.878  16.889  1.1918  0.0257  0.4449
 3388TIP3   OH231578   1.472   5.759   3.914 -0.5752  0.7467  0.0641
 3388TIP3    H131579   1.395   5.815   3.906  0.4069  2.1637  0.2522
 3388TIP3    H231580   1.519   5.792   3.990  0.7632  0.5984 -0.6626
 3389TIP3   OH231581   1.209   6.458  12.756  0.2135  0.1552 -0.2415
 3389TIP3    H131582   1.147   6.489  12.691  1.4570  0.1025 -1.4964
 3389TIP3    H231583   1.259   6.535  12.781 -1.1396  0.4785  1.7552
 3390TIP3   OH231584   0.538   5.629  13.609 -0.1700 -0.1912 -0.3434
 3390TIP3    H131585   0.590   5.701  13.573 -0.6904 -0.8340 -2.5897
 3390TIP3    H231586   0.449   5.663  13.612 -0.1465 -0.1798  0.2623
 3391TIP3   OH231587   4.169   5.580  11.709  0.1075  0.3933 -0.2895
 3391TIP3    H131588   4.147   5.620  11.793  1.9116 -0.7940  0.8208
 3391TIP3    H231589   4.207   5.652  11.658  2.3558  0.4206  1.2922
 3392TIP3   OH231590   3.035   5.057   4.997 -0.1320 -0.3310 -0.0676
 3392TIP3    H131591   2.990   4.987   4.950  0.3760 -0.8004  0.1403
 3392TIP3    H231592   3.123   5.059   4.958  0.5618 -1.2374  1.3554
 3393TIP3   OH231593   3.055   1.892  16.752 -0.0853  0.3704  0.2449
 3393TIP3    H131594   3.052   1.974  16.801 -1.4357 -0.6922  2.0994
 3393TIP3    H231595   2.968   1.884  16.713  0.6612  0.7139 -1.5881
 3394TIP3   OH231596   6.491   6.396   0.349  0.5943 -0.5748  0.1041
 3394TIP3    H131597   6.405   6.413   0.310  0.9331 -0.6911 -0.7211
 3394TIP3    H231598   6.496   6.301   0.355  1.1435 -0.6328 -1.0015
 3395TIP3   OH231599   5.397   0.067  16.061  0.0880 -0.1235  0.0165
 3395TIP3    H131600   5.459   0.115  16.007  1.7662 -0.1662  1.8202
 3395TIP3    H231601   5.360   0.133  16.119 -1.4615 -0.1407 -0.8724
 3396TIP3   OH231602   3.334   5.430  11.843 -0.5166 -0.3913 -0.4806
 3396TIP3    H131603   3.350   5.384  11.760  1.3102 -0.2605 -0.2461
 3396TIP3    H231604   3.368   5.518  11.828  0.5818 -0.5975  0.6289
 3397TIP3   OH231605   2.990   2.421  15.299 -0.7005  0.3065  0.0109
 3397TIP3    H131606   3.077   2.391  15.325 -1.2959 -0.3492  1.3597
 3397TIP3    H231607   2.985   2.512  15.330 -1.3412 -0.4120  2.2287
 3398TIP3   OH231608   5.114   4.817   3.266  0.0076 -0.2260  0.1480
 3398TIP3    H131609   5.167   4.840   3.342  0.6134  0.5844 -0.4998
 3398TIP3    H231610   5.055   4.891   3.253 -0.3159 -0.5012  0.0209
 3399TIP3   OH231611   4.578   4.517   4.756 -0.3246  0.7300  0.8558
 3399TIP3    H131612   4.671   4.516   4.778 -0.1611  2.2904  0.3366
 3399TIP3    H231613   4.568   4.450   4.688  0.3927  0.5251  0.9453
 3400TIP3   OH231614   1.890   4.556   2.462  0.2295  0.3707  0.4556
 3400TIP3    H131615   1.896   4.494   2.535  0.8248 -0.6102 -0.3908
 3400TIP3    H231616   1.978   4.559   2.425 -0.6810 -1.7539 -2.2379
 3401TIP3   OH231617   0.166   0.511   4.031 -0.1947  0.2121  0.2762
 3401TIP3    H131618   0.096   0.460   4.070 -0.5594  1.6597  1.6258
 3401TIP3    H231619   0.222   0.446   3.987 -1.0545 -1.2267  1.2269
 3402TIP3   OH231620   6.617   0.568  14.574  0.5928  0.0638 -0.2309
 3402TIP3    H131621   6.637   0.474  14.566  2.4199  0.2103  1.7867
 3402TIP3    H231622   6.578   0.577  14.661  0.3092  1.1823 -0.4583
 3403TIP3   OH231623   3.137   5.624   3.691 -0.1998  0.4036 -0.0201
 3403TIP3    H131624   3.055   5.674   3.685 -3.0002 -3.4631  1.8284
 3403TIP3    H231625   3.137   5.569   3.612  0.2736 -0.0458  0.2876
 3404TIP3   OH231626   3.015   1.683  16.927 -0.2930 -0.1626 -0.2425
 3404TIP3    H131627   2.927   1.658  16.901 -0.3827  0.2636 -0.3590
 3404TIP3    H231628   3.040   1.751  16.864 -0.3898  0.6493  0.5745
 3405TIP3   OH231629   3.828   4.667   0.596 -0.0818  0.3067  0.6391
 3405TIP3    H131630   3.808   4.746   0.646 -0.3586 -0.8232  2.4056
 3405TIP3    H231631   3.810   4.691   0.505 -0.5135  2.1422  1.1630
 3406TIP3   OH231632   5.211   0.607  14.768  0.3819  0.3259 -0.0376
 3406TIP3    H131633   5.259   0.528  14.743 -0.9761  0.0071 -1.8663
 3406TIP3    H231634   5.132   0.575  14.811  0.1763  0.7185 -0.1160
 3407TIP3   OH231635   0.926   1.172   2.522 -0.8660  0.2494  0.0527
 3407TIP3    H131636   0.928   1.258   2.481 -0.0536  0.2863  0.1630
 3407TIP3    H231637   0.846   1.172   2.574  0.1737  1.7246  1.7321
 3408TIP3   OH231638   1.989   0.990   1.819  0.0245  0.1045 -0.1630
 3408TIP3    H131639   2.024   0.976   1.907  0.1775  0.0086 -0.2380
 3408TIP3    H231640   1.910   1.041   1.832 -0.4514 -0.6818  0.1035
 3409TIP3   OH231641   4.777   5.353   2.655  0.4137  0.5690  0.4698
 3409TIP3    H131642   4.820   5.290   2.712 -0.6288 -2.1852 -1.5742
 3409TIP3    H231643   4.846   5.383   2.596  0.2200 -1.9415 -1.1948
 3410TIP3   OH231644   2.200   4.069   4.084 -0.1240 -0.3170  0.2732
 3410TIP3    H131645   2.119   4.106   4.118 -0.3386 -1.4339  1.0447
 3410TIP3    H231646   2.263   4.140   4.087 -0.5982  0.0627  1.4207
 3411TIP3   OH231647   1.874   3.125   1.435 -0.0994 -0.4055  0.3683
 3411TIP3    H131648   1.870   3.096   1.526  1.0600 -0.0322  0.5601
 3411TIP3    H231649   1.829   3.210   1.435  0.3785 -0.1449  0.7208
 3412TIP3   OH231650   0.895   6.419   4.123 -0.5267 -0.5422 -0.2478
 3412TIP3    H131651   0.857   6.489   4.070  0.5195  2.5781  2.7034
 3412TIP3    H231652   0.819   6.377   4.164 -1.1449  1.0312  0.3169
 3413TIP3   OH231653   2.372   0.481   4.861 -0.1688 -0.3461  0.3697
 3413TIP3    H131654   2.404   0.472   4.951 -0.4001 -1.0993  0.3788
 3413TIP3    H231655   2.438   0.536   4.818 -0.4664  0.7058  1.1975
 3414TIP3   OH231656   0.946   6.438   1.770 -0.5984 -1.2501 -0.0008
 3414TIP3    H131657   1.021   6.437   1.830 -0.3447  0.5281 -0.2303
 3414TIP3    H231658   0.978   6.394   1.691  0.0950 -0.8710  0.0566
 3415TIP3   OH231659   4.990   2.635   0.404 -0.2248  0.3792  0.0826
 3415TIP3    H131660   4.969   2.557   0.455  3.6456 -1.0248 -0.1108
 3415TIP3    H231661   4.946   2.621   0.320  0.4321 -1.7274  0.0215
 3416TIP3   OH231662   3.016   5.199   3.518  0.3419 -0.7287 -0.9114
 3416TIP3    H131663   2.946   5.135   3.509  0.0941 -0.6703  0.4600
 3416TIP3    H231664   2.982   5.265   3.578  1.6010 -0.7658 -0.1194
 3417TIP3   OH231665   2.443   2.373   3.381 -0.1972  0.1754 -0.2398
 3417TIP3    H131666   2.350   2.352   3.382 -1.2672  4.0603 -0.4816
 3417TIP3    H231667   2.478   2.325   3.307 -2.1597 -0.8254 -0.5859
 3418TIP3   OH231668   4.973   3.693   5.704 -0.2074  0.1668  0.4396
 3418TIP3    H131669   5.061   3.731   5.707  0.2295 -0.5599 -1.5130
 3418TIP3    H231670   4.951   3.691   5.610 -2.2955  0.2890  0.8808
 3419TIP3   OH231671   2.337   3.363   4.991  0.1698  0.2551 -0.1555
 3419TIP3    H131672   2.426   3.358   5.026 -0.7603  1.3562  2.6246
 3419TIP3    H231673   2.304   3.273   4.998  0.3893  0.2355  0.8241
 3420TIP3   OH231674   3.372   1.668   1.123  0.0524  0.0082  0.2901
 3420TIP3    H131675   3.417   1.722   1.058 -0.6590 -1.2154 -1.3135
 3420TIP3    H231676   3.323   1.605   1.071 -1.8750 -0.0149  2.0060
 3421TIP3   OH231677   6.322   0.868   2.242 -0.4347  0.2878  0.0164
 3421TIP3    H131678   6.290   0.778   2.245 -1.6165  0.5665 -2.1980
 3421TIP3    H231679   6.281   0.911   2.317 -0.2898 -0.8679  0.7806
 3422TIP3   OH231680   3.712   1.968   4.096  0.1493  0.0889 -0.2842
 3422TIP3    H131681   3.625   1.931   4.111 -0.4637  1.0725 -1.2766
 3422TIP3    H231682   3.697   2.062   4.087  1.3401  0.2885 -0.3143
 3423TIP3   OH231683   6.583   2.091  11.550 -0.1380 -0.2344  0.3368
 3423TIP3    H131684   6.582   2.140  11.632 -0.3374  1.6940 -0.7731
 3423TIP3    H231685   6.500   2.044  11.549  0.4361 -1.3913  1.8269
 3424TIP3   OH231686   0.351   6.758  16.701  0.3284  0.4500  0.2625
 3424TIP3    H131687   0.405   6.765  16.623  0.1609 -0.0154  0.0991
 3424TIP3    H231688   0.284   6.826  16.691 -1.6526 -1.5831 -1.5783
 3425TIP3   OH231689   1.148   2.113  14.753  0.8157  0.1479 -0.1146
 3425TIP3    H131690   1.078   2.058  14.789  1.2772 -0.6825 -0.4575
 3425TIP3    H231691   1.196   2.145  14.830  0.1413  0.6248  0.1152
 3426TIP3   OH231692   1.782   0.235  15.864 -0.8523  0.3344  0.4374
 3426TIP3    H131693   1.823   0.252  15.949  0.6506  1.3518 -0.4584
 3426TIP3    H231694   1.832   0.161  15.828 -2.0220 -0.6493  0.7598
 3427TIP3   OH231695   1.890   5.223  14.061 -0.5575 -0.0652 -0.1448
 3427TIP3    H131696   1.894   5.186  13.972  0.8017 -0.9766  0.2691
 3427TIP3    H231697   1.963   5.284  14.065 -1.8856  1.6173 -0.3134
 3428TIP3   OH231698   1.144   4.528  14.066 -0.6395  0.6192 -0.4958
 3428TIP3    H131699   1.143   4.450  14.011 -1.8377 -0.1911  0.6229
 3428TIP3    H231700   1.174   4.598  14.008  0.4330 -0.6525 -1.5240
 3429TIP3   OH231701   4.487   2.040   2.823  0.4092  0.0614  0.8205
 3429TIP3    H131702   4.414   2.089   2.861  0.2625 -0.0634  0.6966
 3429TIP3    H231703   4.529   2.102   2.763 -0.8887 -0.5173 -0.7650
 3430TIP3   OH231704   6.627   5.049  13.483  0.5792  0.0068  0.3808
 3430TIP3    H131705   6.664   4.972  13.527  1.8729  1.0557  1.2284
 3430TIP3    H231706   6.670   5.123  13.526 -0.7301  1.2088 -0.3234
 3431TIP3   OH231707   5.013   2.153   1.754 -0.2654  0.6784 -0.0500
 3431TIP3    H131708   4.944   2.154   1.820 -0.7723  1.4575 -0.5609
 3431TIP3    H231709   4.980   2.094   1.686  0.0633  0.2082  0.1966
 3432TIP3   OH231710   5.611   4.407   1.012 -0.0114 -0.1566 -0.3524
 3432TIP3    H131711   5.549   4.452   1.069  0.1764 -2.0686  1.4670
 3432TIP3    H231712   5.691   4.460   1.018  0.0165 -0.3159  1.2458
 3433TIP3   OH231713   0.506   3.374   2.400  0.4434  0.1434 -0.0716
 3433TIP3    H131714   0.426   3.425   2.392  0.4771  0.1776 -0.1932
 3433TIP3    H231715   0.494   3.300   2.340 -0.5256 -1.2054  1.6652
 3434TIP3   OH231716   5.242   2.142  12.382 -0.2917 -0.5788 -0.3040
 3434TIP3    H131717   5.179   2.105  12.320 -1.6652  0.3916  0.4563
 3434TIP3    H231718   5.253   2.075  12.449 -3.3503  0.5224  1.4768
 3435TIP3   OH231719   3.421   0.573   4.341 -1.1688 -0.2899 -0.1220
 3435TIP3    H131720   3.443   0.514   4.413 -1.4073  0.6016  0.7195
 3435TIP3    H231721   3.440   0.524   4.262  0.9121 -0.6732  0.5429
 3436TIP3   OH231722   5.339   1.902  13.421 -0.0860  0.8331 -0.3213
 3436TIP3    H131723   5.377   1.982  13.386 -1.1958  2.2235  1.4961
 3436TIP3    H231724   5.339   1.914  13.516 -0.1214 -1.4217  0.0382
 3437TIP3   OH231725   2.968   5.955  10.266  0.4990  0.1476 -0.1210
 3437TIP3    H131726   2.910   5.891  10.223 -1.1751  0.8039  1.0236
 3437TIP3    H231727   3.053   5.942  10.225 -0.3354 -1.2259 -1.5423
 3438TIP3   OH231728   0.902   0.559   3.194  0.2363 -0.3058 -0.2425
 3438TIP3    H131729   0.878   0.539   3.284  0.7477 -1.1739 -0.2895
 3438TIP3    H231730   0.902   0.655   3.190  1.3875 -0.2146  1.0178
 3439TIP3   OH231731   3.208   0.196  14.776 -0.1785  0.2931  0.3047
 3439TIP3    H131732   3.223   0.139  14.701  1.7431 -0.3121  1.0899
 3439TIP3    H231733   3.163   0.141  14.840 -1.6506  0.7567 -0.2958
 3440TIP3   OH231734   2.733   4.528  13.336  0.3313  0.0689 -0.1398
 3440TIP3    H131735   2.659   4.503  13.391 -0.4157  2.3496  0.0133
 3440TIP3    H231736   2.692   4.560  13.255  1.2620 -0.1895 -0.7326
 3441TIP3   OH231737   6.384   2.907  12.653  0.1628  0.3212  0.3084
 3441TIP3    H131738   6.369   2.884  12.561 -1.7077 -0.7628  0.8360
 3441TIP3    H231739   6.419   2.996  12.650 -0.0596  0.3898 -1.4442
 3442TIP3   OH231740   4.147   0.107   5.034 -0.5454 -0.2958  0.2773
 3442TIP3    H131741   4.109   0.191   5.010  0.8214  0.4326  0.5501
 3442TIP3    H231742   4.093   0.042   4.990 -0.7250  0.8014 -1.1777
 3443TIP3   OH231743   4.848   6.790  13.854 -0.2279  0.6516  0.5273
 3443TIP3    H131744   4.823   6.741  13.932 -0.7750  0.0288 -0.0339
 3443TIP3    H231745   4.770   6.839  13.831 -0.8186 -0.9118 -0.9404
 3444TIP3   OH231746   3.054   2.813   5.496  0.0273  0.0419  0.7632
 3444TIP3    H131747   3.012   2.899   5.487  1.9455  1.0245  0.6593
 3444TIP3    H231748   3.084   2.811   5.587 -2.2829 -1.6929  1.5971
 3445TIP3   OH231749   2.162   1.308   3.273 -0.5234 -0.1756  0.3803
 3445TIP3    H131750   2.252   1.302   3.243 -0.2103 -1.2417  1.4681
 3445TIP3    H231751   2.168   1.330   3.366 -1.4317  1.1859  0.1553
 3446TIP3   OH231752   2.590   6.007   5.186 -0.1193  0.1509 -0.2819
 3446TIP3    H131753   2.586   5.972   5.097 -0.0408  0.0199 -0.2355
 3446TIP3    H231754   2.629   6.094   5.176 -0.6874  0.3862 -0.4405
 3447TIP3   OH231755   3.307   3.197  16.940  0.3496 -0.4592 -0.8708
 3447TIP3    H131756   3.389   3.151  16.920  0.0024 -2.9616  2.5788
 3447TIP3    H231757   3.331   3.264  17.003 -0.3082 -2.1050  1.2353
 3448TIP3   OH231758   6.097   2.483   5.230 -0.3510 -0.5627  0.0802
 3448TIP3    H131759   6.134   2.571   5.236  1.6341 -1.1748 -1.7041
 3448TIP3    H231760   6.065   2.464   5.318  2.8882  0.3971  1.5947
 3449TIP3   OH231761   6.489   6.684  17.048  0.1857 -0.4891 -0.4915
 3449TIP3    H131762   6.569   6.637  17.025  0.7893  0.5282 -0.5255
 3449TIP3    H231763   6.419   6.630  17.013  0.9287 -0.6755 -1.7498
 3450TIP3   OH231764   5.525   0.369   1.918  0.2079 -0.3302 -0.1242
 3450TIP3    H131765   5.478   0.452   1.927 -2.1457 -1.7428  1.8451
 3450TIP3    H231766   5.486   0.326   1.843  0.0655 -0.4663  0.0268
 3451TIP3   OH231767   3.372   1.276   2.908  0.7714  0.0347 -0.4165
 3451TIP3    H131768   3.403   1.302   2.994 -0.4560  0.0158  0.0476
 3451TIP3    H231769   3.418   1.333   2.847  1.1994  0.4528  0.2993
 3452TIP3   OH231770   5.022   4.681  16.740  0.1776  0.4994 -0.3910
 3452TIP3    H131771   4.934   4.645  16.743  0.0684  0.7947  0.0996
 3452TIP3    H231772   5.074   4.613  16.697  0.0057 -0.3161  0.6530
 3453TIP3   OH231773   5.356   3.487   1.609  0.5340  0.3322  0.0237
 3453TIP3    H131774   5.322   3.432   1.539 -2.0413  2.6413 -0.6988
 3453TIP3    H231775   5.286   3.491   1.674  1.3879  1.2614  0.9512
 3454TIP3   OH231776   0.132   4.711  13.527 -0.0323  0.2763 -0.1753
 3454TIP3    H131777   0.174   4.785  13.482 -2.1633  0.6605 -1.6894
 3454TIP3    H231778   0.120   4.646  13.458  0.5345 -0.9430  0.8431
 3455TIP3   OH231779   1.812   6.395  13.516 -0.2182 -0.5961  0.3577
 3455TIP3    H131780   1.763   6.462  13.469 -1.3688 -1.1977  0.6838
 3455TIP3    H231781   1.757   6.317  13.513  0.5064 -1.1624  1.1306
 3456TIP3   OH231782   4.679   1.838  12.984 -0.6834 -0.2319 -0.3390
 3456TIP3    H131783   4.584   1.828  12.992 -0.7766 -0.6426 -1.7012
 3456TIP3    H231784   4.693   1.930  12.962 -0.5904  0.3186  1.7908
 3457TIP3   OH231785   2.683   4.113   4.685 -0.2795  0.0455  0.1372
 3457TIP3    H131786   2.759   4.162   4.716  0.1235 -0.9139  0.7216
 3457TIP3    H231787   2.693   4.026   4.723 -1.8651 -0.0001  0.5456
 3458TIP3   OH231788   4.184   0.377  15.893  0.1561  0.7218 -0.7658
 3458TIP3    H131789   4.128   0.300  15.888  0.6686  0.2366  0.6245
 3458TIP3    H231790   4.126   0.448  15.920 -0.1956  0.7048 -1.4577
 3459TIP3   OH231791   0.453   3.296   3.799 -0.4929 -0.1302 -0.1609
 3459TIP3    H131792   0.451   3.327   3.890  0.3044  0.5636 -0.3602
 3459TIP3    H231793   0.510   3.359   3.754 -1.7708  0.1956 -1.4019
 3460TIP3   OH231794   1.198   5.573  12.613 -0.1503  0.0331  0.1760
 3460TIP3    H131795   1.278   5.527  12.639 -0.5497 -1.3649 -0.9624
 3460TIP3    H231796   1.131   5.505  12.609 -1.5037  1.2225  1.3972
 3461TIP3   OH231797   1.097   0.702  10.802 -0.3819  0.1587 -0.1328
 3461TIP3    H131798   1.087   0.768  10.871  0.1726 -1.1277  1.2377
 3461TIP3    H231799   1.190   0.679  10.803 -0.4602 -0.2498 -0.9699
 3462TIP3   OH231800   5.897   3.161   1.842  0.1854 -0.3630 -0.3150
 3462TIP3    H131801   5.825   3.140   1.782 -0.2819  0.1441  0.0612
 3462TIP3    H231802   5.867   3.238   1.890  1.3333  0.3768 -0.7377
 3463TIP3   OH231803   1.863   5.279   0.985 -0.1296  0.3906  0.4677
 3463TIP3    H131804   1.951   5.273   0.947  0.3335  2.2456  1.1841
 3463TIP3    H231805   1.823   5.353   0.940 -1.1203 -0.0384  0.6193
 3464TIP3   OH231806   3.248   0.998  14.098 -0.1693  1.0263  0.6445
 3464TIP3    H131807   3.263   0.909  14.064 -3.0193 -0.0384  1.7913
 3464TIP3    H231808   3.286   1.056  14.032 -0.4941 -1.0138 -1.4849
 3465TIP3   OH231809   5.470   0.975   5.213 -0.5443  0.2753 -0.2731
 3465TIP3    H131810   5.429   0.988   5.128 -2.2669  1.4751  0.6836
 3465TIP3    H231811   5.447   0.885   5.238 -2.4114  0.8174  0.1014
 3466TIP3   OH231812   0.472   1.637  15.707  0.3141 -0.1011  0.9788
 3466TIP3    H131813   0.531   1.596  15.644 -0.5704 -0.3260  0.2814
 3466TIP3    H231814   0.445   1.565  15.765 -0.2037 -0.2518  0.5608
 3467TIP3   OH231815   2.706   1.710  10.378  0.0519 -0.3834  0.1176
 3467TIP3    H131816   2.649   1.639  10.347  1.2819 -0.8061 -1.2745
 3467TIP3    H231817   2.794   1.671  10.379  0.8352  1.2406 -1.1636
 3468TIP3   OH231818   4.732   4.376   5.237  0.1123 -0.0849 -0.2140
 3468TIP3    H131819   4.739   4.431   5.159  0.6767 -0.5032 -0.4669
 3468TIP3    H231820   4.684   4.299   5.208  0.5533 -0.3633 -0.2235
 3469TIP3   OH231821   6.357   1.177   0.785  0.2567 -0.0945  0.0250
 3469TIP3    H131822   6.370   1.104   0.725 -0.4275 -1.0198  0.9742
 3469TIP3    H231823   6.270   1.209   0.765  0.6332  0.6041 -0.5261
 3470TIP3   OH231824   1.677   0.832   4.990 -0.2660 -0.1454  0.2266
 3470TIP3    H131825   1.613   0.903   4.988 -0.4608 -0.3283 -1.2503
 3470TIP3    H231826   1.743   0.857   4.926 -0.2911 -1.2293 -0.2463
 3471TIP3   OH231827   4.988   3.016   5.166  0.4389 -0.0760 -0.5449
 3471TIP3    H131828   5.079   3.003   5.193 -0.0918  1.8417  2.7641
 3471TIP3    H231829   4.991   3.087   5.103  1.3228 -1.0441 -1.6305
 3472TIP3   OH231830   5.664   6.236   4.690 -0.1243 -0.0537 -0.4775
 3472TIP3    H131831   5.749   6.215   4.729 -1.2363  0.5678  2.5049
 3472TIP3    H231832   5.672   6.328   4.664  0.1511 -0.0206 -0.2774
 3473TIP3   OH231833   0.722   3.370   1.833 -0.2902 -0.0258  0.5368
 3473TIP3    H131834   0.783   3.327   1.892  0.2257  1.0728  0.8118
 3473TIP3    H231835   0.757   3.458   1.820 -0.7900  0.0038 -0.8149
 3474TIP3   OH231836   5.633   6.382  14.874 -0.1221 -0.3880  0.0144
 3474TIP3    H131837   5.638   6.477  14.882  0.0378 -0.2210 -1.7256
 3474TIP3    H231838   5.702   6.350  14.933  0.7423  0.6334 -0.4060
 3475TIP3   OH231839   2.067   0.057   2.196  0.1075  0.2165 -0.5672
 3475TIP3    H131840   2.116   0.007   2.262 -0.5859 -0.2013 -0.3596
 3475TIP3    H231841   2.133   0.114   2.155  0.5500  0.4716  0.4747
 3476TIP3   OH231842   1.231   5.149  11.269  0.8213  0.5520 -0.6141
 3476TIP3    H131843   1.256   5.060  11.293  2.6472  0.6455 -1.9883
 3476TIP3    H231844   1.143   5.160  11.306  1.0533 -1.3750  0.6164
 3477TIP3   OH231845   0.126   0.051   1.259 -0.3359 -0.5953 -0.1344
 3477TIP3    H131846   0.209   0.076   1.300 -0.0820  0.9155 -1.4444
 3477TIP3    H231847   0.062   0.112   1.295 -0.6440 -1.0089  0.0171
 3478TIP3   OH231848   4.469   6.752   5.863  0.0312  0.2312  0.0051
 3478TIP3    H131849   4.463   6.846   5.842  1.1472  0.2415 -0.3297
 3478TIP3    H231850   4.493   6.711   5.781  0.1812 -0.2745  0.3009
 3479TIP3   OH231851   3.326   6.702   2.059  0.7637 -0.1619  0.1374
 3479TIP3    H131852   3.290   6.626   2.014  2.7868 -0.9340 -0.2685
 3479TIP3    H231853   3.315   6.774   1.997  0.2851 -0.4395 -0.1136
 3480TIP3   OH231854   1.487   1.526   4.126  0.0088 -0.2768  0.2089
 3480TIP3    H131855   1.520   1.562   4.209 -0.5753 -0.5009  0.5444
 3480TIP3    H231856   1.396   1.501   4.145  0.4766 -2.2274  0.0927
 3481TIP3   OH231857   3.647   2.230   4.154  0.0605 -0.4354  0.4227
 3481TIP3    H131858   3.655   2.202   4.245  0.2705 -0.0506  0.5233
 3481TIP3    H231859   3.618   2.321   4.160  2.4130  0.3947  0.1494
 3482TIP3   OH231860   2.250   2.920   0.747 -0.3321 -0.4048  0.3039
 3482TIP3    H131861   2.262   2.834   0.788  0.1137 -0.7013 -0.4324
 3482TIP3    H231862   2.206   2.972   0.814 -3.7896 -2.1622 -0.3929
 3483TIP3   OH231863   0.107   0.733  15.338  0.0849  0.3398  0.0578
 3483TIP3    H131864   0.166   0.748  15.412  0.9606 -0.4787 -0.4441
 3483TIP3    H231865   0.026   0.700  15.377 -0.3324  2.1400  0.8128
 3484TIP3   OH231866   5.369   3.206   2.483  0.2626 -0.2682  0.0050
 3484TIP3    H131867   5.294   3.266   2.490 -0.0085 -0.6901  0.9971
 3484TIP3    H231868   5.334   3.130   2.435 -0.4059 -1.0928  1.6914
 3485TIP3   OH231869   0.205   5.603  12.628  0.2996  0.1547  0.2977
 3485TIP3    H131870   0.274   5.661  12.661 -0.0790 -0.5257  2.4123
 3485TIP3    H231871   0.125   5.635  12.670 -0.2313 -0.7194 -0.0305
 3486TIP3   OH231872   4.238   6.396   4.282 -0.0442  0.4454 -0.4763
 3486TIP3    H131873   4.313   6.352   4.322  0.8976  2.2051 -0.2321
 3486TIP3    H231874   4.161   6.350   4.317  0.8778 -0.7704  0.0046
 3487TIP3   OH231875   0.748   0.841  14.498  0.2808  0.0532 -0.6072
 3487TIP3    H131876   0.716   0.854  14.588  0.4880 -1.1949 -0.3320
 3487TIP3    H231877   0.672   0.862  14.443 -0.4387 -0.9542 -0.0411
 3488TIP3   OH231878   3.903   4.559  12.294 -0.3356 -0.1061  0.9232
 3488TIP3    H131879   3.988   4.573  12.334 -0.1980 -0.6216  0.8273
 3488TIP3    H231880   3.850   4.518  12.363 -0.7081  0.7967  1.1826
 3489TIP3   OH231881   2.060   4.753  13.368  0.8957  0.0019  0.2693
 3489TIP3    H131882   2.098   4.665  13.366  1.4045  0.2046  0.9187
 3489TIP3    H231883   2.029   4.765  13.458  0.9668  0.5469  0.2253
 3490TIP3   OH231884   3.447   2.345   0.521  0.0341 -0.0791 -0.0120
 3490TIP3    H131885   3.402   2.414   0.570  0.1278  0.3277 -0.4872
 3490TIP3    H231886   3.538   2.351   0.548  0.3274  0.9700 -1.1310
 3491TIP3   OH231887   6.135   3.794   1.392  0.1453  0.4012 -0.5932
 3491TIP3    H131888   6.091   3.806   1.477  2.6102 -0.6689  0.9444
 3491TIP3    H231889   6.188   3.873   1.382 -0.0327  0.4598 -1.0700
 3492TIP3   OH231890   1.870   5.368  11.169 -0.2774  0.6385 -0.2817
 3492TIP3    H131891   1.828   5.374  11.083  3.0705  0.3106 -2.1131
 3492TIP3    H231892   1.882   5.459  11.197  1.5612  0.9419 -1.8493
 3493TIP3   OH231893   1.111   4.333  12.775 -0.2601 -0.3422  0.5890
 3493TIP3    H131894   1.109   4.279  12.696  2.4510  1.3537 -0.8118
 3493TIP3    H231895   1.082   4.275  12.844 -0.4246 -2.6599 -1.2896
 3494TIP3   OH231896   0.917   4.008   5.583  0.8157 -0.0120  0.2342
 3494TIP3    H131897   0.945   4.097   5.605 -0.5340  0.9766 -1.7966
 3494TIP3    H231898   0.988   3.973   5.529  0.2846  0.7768 -1.0193
 3495TIP3   OH231899   0.032   6.366   4.704 -0.6529 -0.2439 -0.0199
 3495TIP3    H131900   0.121   6.349   4.733 -0.6526 -2.3272 -1.0696
 3495TIP3    H231901  -0.020   6.364   4.784 -0.0027 -0.8533  0.3942
 3496TIP3   OH231902   4.166   5.508  11.352 -0.3406  0.0842 -0.2355
 3496TIP3    H131903   4.207   5.538  11.272 -0.0911 -0.8883 -0.4876
 3496TIP3    H231904   4.237   5.465  11.401 -0.4777  0.6973  0.5290
 3497TIP3   OH231905   5.445   0.242   1.078  0.0587 -0.3454 -0.5998
 3497TIP3    H131906   5.420   0.225   1.169  3.2551  0.3815  0.5631
 3497TIP3    H231907   5.421   0.162   1.031  1.6940 -2.3715  1.7200
 3498TIP3   OH231908   6.556   4.226   1.456 -0.4189  0.4664 -0.1517
 3498TIP3    H131909   6.648   4.244   1.438 -0.1501 -1.2227 -0.5670
 3498TIP3    H231910   6.552   4.213   1.551  0.1366 -1.2714 -0.3369
 3499TIP3   OH231911   4.856   1.283  13.590  0.2772  0.1733 -0.4483
 3499TIP3    H131912   4.787   1.235  13.636  2.1381 -0.4426  1.9384
 3499TIP3    H231913   4.856   1.370  13.632  3.0277 -0.8870  2.1355
 3500TIP3   OH231914   5.733   0.432  11.010 -0.1890 -0.3779  0.3553
 3500TIP3    H131915   5.729   0.338  11.027  0.7290 -0.4173  0.4320
 3500TIP3    H231916   5.666   0.448  10.944  0.4099 -1.2813 -0.5004
 3501TIP3   OH231917   4.426   4.056  15.058  0.9349  0.2079  0.1457
 3501TIP3    H131918   4.332   4.056  15.073  0.8417 -2.2849 -0.0383
 3501TIP3    H231919   4.436   4.077  14.965  0.6084  0.7854  0.2354
 3502TIP3   OH231920   4.937   4.775  15.002  0.7031 -0.1501 -0.0941
 3502TIP3    H131921   4.949   4.680  14.995 -3.4892 -0.8093 -0.7967
 3502TIP3    H231922   4.917   4.804  14.913  0.2043  1.0500  0.3818
 3503TIP3   OH231923   0.345   1.337   0.325  0.7994 -0.5141 -0.0094
 3503TIP3    H131924   0.379   1.330   0.236  1.4145 -0.7570  0.2425
 3503TIP3    H231925   0.302   1.253   0.341 -0.2668 -0.0843 -0.4523
 3504TIP3   OH231926   4.851   6.076   5.309 -0.2641  0.1714 -0.4896
 3504TIP3    H131927   4.773   6.130   5.317  0.7385  1.6599 -0.4616
 3504TIP3    H231928   4.912   6.128   5.256  1.1695 -0.4204  0.5075
 3505TIP3   OH231929   2.206   1.032   2.047 -0.4479  0.7668 -0.2861
 3505TIP3    H131930   2.271   1.049   1.979 -0.1014 -1.4561 -0.6016
 3505TIP3    H231931   2.251   0.973   2.109 -1.2278  1.5775  1.1017
 3506TIP3   OH231932   1.272   3.216  14.456 -0.6692  0.0878  0.6069
 3506TIP3    H131933   1.216   3.204  14.533  1.5926 -0.8265  2.2459
 3506TIP3    H231934   1.212   3.212  14.382 -2.7019 -1.5196  2.1905
 3507TIP3   OH231935   5.710   1.826  11.960  0.0418  0.2543  0.0560
 3507TIP3    H131936   5.803   1.803  11.961  0.5144  1.9519 -0.6597
 3507TIP3    H231937   5.673   1.772  11.890  1.0722  1.4468 -1.4795
 3508TIP3   OH231938   2.080   1.268  11.141  0.5933  0.1706 -0.9834
 3508TIP3    H131939   2.022   1.197  11.169  1.2495 -0.7182 -1.8409
 3508TIP3    H231940   2.021   1.330  11.097  0.0548  0.0599 -0.4369
 3509TIP3   OH231941   5.771   6.576  15.887 -0.9261  0.3010 -0.2733
 3509TIP3    H131942   5.722   6.624  15.954 -1.4007 -0.5757  0.0206
 3509TIP3    H231943   5.795   6.493  15.930 -0.6779  0.0020 -0.9770
 3510TIP3   OH231944   0.248   2.802   0.997 -0.9907 -0.2153  0.1878
 3510TIP3    H131945   0.329   2.845   1.024 -1.8003  1.9873 -0.6967
 3510TIP3    H231946   0.236   2.829   0.906 -1.6960 -2.1903 -0.3580
 3511TIP3   OH231947   5.179   5.562  15.342 -0.0045  0.3613 -0.4721
 3511TIP3    H131948   5.137   5.476  15.335  0.3832  0.1089  0.1761
 3511TIP3    H231949   5.115   5.617  15.385 -0.6740  0.7041 -1.8587
 3512TIP3   OH231950   1.005   1.843   4.049 -0.3943  0.3377  0.1037
 3512TIP3    H131951   1.037   1.753   4.057  0.7293  0.7025 -0.1704
 3512TIP3    H231952   0.963   1.860   4.134 -0.9412 -0.5610  0.0257
 3513TIP3   OH231953   4.172   1.234   5.614 -1.1165  0.9361  0.2303
 3513TIP3    H131954   4.177   1.305   5.677 -0.3343  0.9509  0.1569
 3513TIP3    H231955   4.197   1.156   5.663 -2.3287  0.6279  0.4083
 3514TIP3   OH231956   5.763   1.990   2.106  0.0982  0.0521 -0.1736
 3514TIP3    H131957   5.777   1.966   2.014  1.3458  1.6694 -0.4640
 3514TIP3    H231958   5.846   2.028   2.133 -0.4964  0.2821  1.4147
 3515TIP3   OH231959   5.699   5.431   1.862  0.2353 -0.1377 -0.3480
 3515TIP3    H131960   5.758   5.379   1.807  0.7791 -0.5803  0.6283
 3515TIP3    H231961   5.658   5.367   1.921 -0.0984  0.3637 -0.0259
 3516TIP3   OH231962   1.266   1.744  14.239  0.2797  0.0716  0.9132
 3516TIP3    H131963   1.267   1.664  14.291 -0.9917  0.5653  1.7567
 3516TIP3    H231964   1.316   1.723  14.161 -1.0362 -1.9403  0.5501
 3517TIP3   OH231965   2.534   6.246  10.418 -0.3515 -0.1429  0.7223
 3517TIP3    H131966   2.589   6.172  10.392  1.4978  0.9969  1.1643
 3517TIP3    H231967   2.573   6.321  10.373 -1.8661  0.6586  0.6864
 3518TIP3   OH231968   0.355   0.542  10.537 -0.2128  0.2846  0.2589
 3518TIP3    H131969   0.394   0.463  10.498 -0.6628  0.3707 -0.3840
 3518TIP3    H231970   0.428   0.584  10.583 -0.2600 -1.2205  1.8264
 3519TIP3   OH231971   4.103   4.662   2.032 -0.3013 -0.4408 -0.0252
 3519TIP3    H131972   4.173   4.727   2.042 -0.8051 -0.0195  0.9116
 3519TIP3    H231973   4.029   4.712   1.997 -0.2276 -0.8290 -0.7531
 3520TIP3   OH231974   3.956   3.265   1.847  0.2304 -0.2816 -0.6689
 3520TIP3    H131975   3.929   3.345   1.892  2.4511  0.1266  0.0730
 3520TIP3    H231976   3.944   3.196   1.913 -2.3834 -0.7684 -1.5408
 3521TIP3   OH231977   3.275   5.420  13.099  0.0174  0.2748 -0.3139
 3521TIP3    H131978   3.193   5.404  13.146  1.1527  0.6057  1.9275
 3521TIP3    H231979   3.308   5.502  13.136  1.5408 -0.0370 -0.9060
 3522TIP3   OH231980   4.113   4.899   2.886 -0.2407  0.5615  0.2525
 3522TIP3    H131981   4.202   4.923   2.859 -0.3387 -1.0606 -1.7593
 3522TIP3    H231982   4.056   4.943   2.822 -0.8581  0.7939  0.9391
 3523TIP3   OH231983   1.164   2.743  15.223 -0.4933 -0.2630 -0.2023
 3523TIP3    H131984   1.212   2.744  15.306  0.4167  0.4262 -0.7130
 3523TIP3    H231985   1.080   2.702  15.244 -0.0453 -0.6521  0.9234
 3524TIP3   OH231986   4.492   1.066   4.160 -0.4100 -0.7144 -0.0184
 3524TIP3    H131987   4.430   1.003   4.122 -2.3333  1.5759 -0.9197
 3524TIP3    H231988   4.505   1.131   4.091 -1.1140  1.6325  1.9290
 3525TIP3   OH231989   0.775   2.968   6.259  0.2518  0.0182 -0.4719
 3525TIP3    H131990   0.738   2.995   6.342 -0.6995 -2.6290  0.0675
 3525TIP3    H231991   0.862   2.934   6.281 -0.5035 -1.9013 -0.2771
 3526TIP3   OH231992   1.148   2.676  12.209  0.3613 -0.3748 -0.2412
 3526TIP3    H131993   1.160   2.769  12.193  1.7306 -0.2105  1.4592
 3526TIP3    H231994   1.156   2.635  12.123  2.1071  0.8811 -0.7303
 3527TIP3   OH231995   6.258   3.747   2.590  0.3620  0.1927  0.1798
 3527TIP3    H131996   6.299   3.664   2.616  0.0686 -0.4936 -1.4339
 3527TIP3    H231997   6.165   3.729   2.587  0.4330 -0.3064 -2.8185
 3528TIP3   OH231998   1.149   2.125   0.518 -0.2117  0.1701 -0.2465
 3528TIP3    H131999   1.130   2.057   0.582  1.3603  0.2843  0.3901
 3528TIP3    H232000   1.066   2.171   0.506 -1.0286 -1.1469  0.1413
 3529TIP3   OH232001   3.925   1.847   2.475  0.0659  0.0738 -0.0067
 3529TIP3    H132002   4.016   1.867   2.495 -0.1556 -1.1315  2.5761
 3529TIP3    H232003   3.913   1.877   2.384  2.8670  0.6584 -0.2645
 3530TIP3   OH232004   1.675   1.408  16.707 -0.6873  0.1113  0.2471
 3530TIP3    H132005   1.746   1.361  16.751  0.3087  1.2509 -0.0749
 3530TIP3    H232006   1.599   1.395  16.764 -0.4837 -1.9148  0.1257
 3531TIP3   OH232007   6.471   2.770   1.996 -0.2205 -0.1706 -0.4598
 3531TIP3    H132008   6.477   2.687   1.948  1.6116 -1.5472  1.9267
 3531TIP3    H232009   6.442   2.744   2.084 -1.9135  2.0527 -0.2831
 3532TIP3   OH232010   1.654   1.799   1.035  1.0009  0.0579 -0.3140
 3532TIP3    H132011   1.599   1.810   1.113  0.5360 -3.6224  0.0580
 3532TIP3    H232012   1.651   1.884   0.991 -0.9206  1.4672  2.2636
 3533TIP3   OH232013   0.743   5.026   5.079 -0.5155 -0.0552 -0.0688
 3533TIP3    H132014   0.708   5.096   5.134  1.7032  1.2598 -0.1944
 3533TIP3    H232015   0.753   4.951   5.139 -1.4115  0.2448  0.4642
 3534TIP3   OH232016   2.352   4.531  16.510 -0.6598  0.2196  0.3155
 3534TIP3    H132017   2.351   4.440  16.479  2.6175 -0.2714  1.3043
 3534TIP3    H232018   2.386   4.581  16.435 -0.4119  0.2861  0.4723
 3535TIP3   OH232019   3.150   2.563  14.550 -0.1395 -0.3780  0.4762
 3535TIP3    H132020   3.231   2.512  14.548  1.1429  1.5602  0.1735
 3535TIP3    H232021   3.129   2.571  14.643  0.4985 -0.2201  0.6133
 3536TIP3   OH232022   6.791   1.046  14.413  0.0229  0.3674 -0.0773
 3536TIP3    H132023   6.825   0.972  14.464 -0.0084  0.4836  0.1117
 3536TIP3    H232024   6.834   1.123  14.450  0.0412  0.4471 -0.2627
 3537TIP3   OH232025   3.299   5.977  13.283  1.1029 -0.1192  1.0539
 3537TIP3    H132026   3.274   6.066  13.305 -1.0617 -0.7771  1.5164
 3537TIP3    H232027   3.383   5.985  13.237  0.4812  2.1971  0.2393
 3538TIP3   OH232028   3.795   3.228  11.869  0.0892  0.6427  0.5148
 3538TIP3    H132029   3.725   3.285  11.902  0.7085  0.2068  2.7323
 3538TIP3    H232030   3.843   3.201  11.947  0.9969 -1.3932 -0.6655
 3539TIP3   OH232031   4.446   5.548   3.617 -0.5278  0.7914 -0.2098
 3539TIP3    H132032   4.416   5.457   3.617  0.2214  0.5215  1.0374
 3539TIP3    H232033   4.506   5.554   3.691 -0.7205  2.3644 -0.1436
 3540TIP3   OH232034   1.949   3.872  14.439  0.0883  0.3190 -0.1041
 3540TIP3    H132035   1.979   3.928  14.510  1.0824  0.9769 -1.0095
 3540TIP3    H232036   2.009   3.798  14.439 -0.4794 -0.1495  0.3182
 3541TIP3   OH232037   4.216   3.429   1.418 -0.4949 -0.3517  0.0603
 3541TIP3    H132038   4.192   3.356   1.362  0.3506  0.2766 -1.1687
 3541TIP3    H232039   4.169   3.414   1.500 -1.2391 -1.6366 -0.5880
 3542TIP3   OH232040   6.500   5.998   0.843  0.4130  0.0559  0.4991
 3542TIP3    H132041   6.444   5.943   0.788 -0.7089 -0.5930  2.2139
 3542TIP3    H232042   6.583   6.002   0.796 -0.0414 -1.6586 -0.5314
 3543TIP3   OH232043   6.649   6.720  14.172 -0.1176  0.2448  0.2708
 3543TIP3    H132044   6.691   6.647  14.126 -1.0511  0.5585 -1.1592
 3543TIP3    H232045   6.573   6.680  14.214  0.6169 -0.0018  1.4004
 3544TIP3   OH232046   5.293   3.354  11.104 -0.4631 -0.2783  0.3013
 3544TIP3    H132047   5.288   3.398  11.189 -0.8314 -1.6641  1.0365
 3544TIP3    H232048   5.377   3.380  11.068  0.1678 -0.4844  1.5796
 3545TIP3   OH232049   5.428   0.789  15.840  0.0873 -0.2340 -0.6670
 3545TIP3    H132050   5.495   0.855  15.825  0.1806 -0.3844 -0.9167
 3545TIP3    H232051   5.364   0.832  15.897 -1.6138  1.2346 -3.4590
 3546TIP3   OH232052   4.669   4.206   4.579 -0.3795  0.0831 -0.0747
 3546TIP3    H132053   4.594   4.243   4.625 -0.1895  0.6909 -0.2554
 3546TIP3    H232054   4.716   4.281   4.543  1.7406 -0.0571  2.1685
 3547TIP3   OH232055   5.892   1.377  15.913  0.1388 -0.6897  0.2560
 3547TIP3    H132056   5.948   1.429  15.972 -1.0235  0.1477  0.6584
 3547TIP3    H232057   5.870   1.299  15.964  1.0860 -1.1349  0.0155
 3548TIP3   OH232058   1.553   4.559  15.784  0.3830 -0.8098  0.2571
 3548TIP3    H132059   1.558   4.465  15.805  0.0545 -1.3629 -1.9166
 3548TIP3    H232060   1.607   4.569  15.706  2.8392  1.4232  2.0551
 3549TIP3   OH232061   5.206   2.502  16.497  0.6021  0.4340 -0.0721
 3549TIP3    H132062   5.163   2.579  16.534  2.1456  1.9148 -1.1865
 3549TIP3    H232063   5.223   2.526  16.406  0.6759 -1.4414 -0.5806
 3550TIP3   OH232064   1.795   1.886  14.438  0.1679  0.8944 -0.0580
 3550TIP3    H132065   1.875   1.858  14.395  0.2123  0.4648  0.2956
 3550TIP3    H232066   1.790   1.980  14.422 -0.3942  0.5752 -1.9205
 3551TIP3   OH232067   6.231   0.169   3.821  0.4603 -0.0245  0.3720
 3551TIP3    H132068   6.285   0.232   3.773  0.1908 -0.7895 -0.9796
 3551TIP3    H232069   6.226   0.205   3.910  2.1244  0.7247  0.2108
 3552TIP3   OH232070   1.847   1.474   5.865 -0.1148 -0.5146  0.4846
 3552TIP3    H132071   1.808   1.401   5.913 -0.5427 -2.3737 -2.4435
 3552TIP3    H232072   1.906   1.433   5.802 -1.6898  1.4405 -2.5115
 3553TIP3   OH232073   2.307   1.754  14.423 -0.7729  0.0387 -0.5854
 3553TIP3    H132074   2.321   1.823  14.488 -0.1294  0.3940 -1.0941
 3553TIP3    H232075   2.246   1.792  14.360 -1.8136 -0.4912  0.0775
 3554TIP3   OH232076   6.515   6.437   2.656 -0.3692  0.1663  0.3109
 3554TIP3    H132077   6.574   6.407   2.726 -0.8971 -0.7725  0.3681
 3554TIP3    H232078   6.458   6.501   2.699 -0.6841 -0.3953  0.7589
 3555TIP3   OH232079   6.100   3.408   4.888  0.2965  1.0174 -0.0528
 3555TIP3    H132080   6.121   3.320   4.918  0.8249  1.1079 -0.1446
 3555TIP3    H232081   6.023   3.397   4.833  0.4544  0.5854 -0.1910
 3556TIP3   OH232082   5.717   0.289   1.299 -0.3381  0.5976 -0.2236
 3556TIP3    H132083   5.663   0.266   1.224 -0.2928 -1.4442  0.3107
 3556TIP3    H232084   5.807   0.288   1.267 -0.2826 -0.7277 -0.0738
 3557TIP3   OH232085   1.517   1.393   5.975 -0.0269 -0.4778  0.1745
 3557TIP3    H132086   1.590   1.337   5.999  0.4792  0.2793  0.4252
 3557TIP3    H232087   1.465   1.401   6.055  0.0207 -0.4197  0.2001
 3558TIP3   OH232088   6.689   3.682  13.727  0.1171  0.1241  0.0010
 3558TIP3    H132089   6.658   3.772  13.732  1.0596  0.4923 -0.5048
 3558TIP3    H232090   6.751   3.682  13.654  0.5296 -0.8044  0.3361
 3559TIP3   OH232091   5.323   2.853   5.286 -0.2479  0.0600  0.1427
 3559TIP3    H132092   5.333   2.925   5.224 -0.5578  1.1090  1.2846
 3559TIP3    H232093   5.412   2.832   5.313 -0.2716  2.0053  1.9858
 3560TIP3   OH232094   0.814   2.553  16.679  0.2679  0.1288  0.0272
 3560TIP3    H132095   0.869   2.561  16.757  0.8337  0.5474 -0.4066
 3560TIP3    H232096   0.863   2.494  16.621  0.7629  1.2544 -0.7606
 3561TIP3   OH232097   4.042   2.347  12.234  0.3285 -0.1568 -0.4737
 3561TIP3    H132098   4.020   2.332  12.142 -1.0974 -1.6508  0.0646
 3561TIP3    H232099   3.976   2.409  12.264  0.3808 -0.1954 -0.2827
 3562TIP3   OH232100   5.978   3.221   2.118 -0.1593 -0.2484 -0.2507
 3562TIP3    H132101   6.028   3.178   2.047  3.5586 -0.1385  2.0076
 3562TIP3    H232102   5.975   3.155   2.187 -0.1305  0.9375  0.9122
 3563TIP3   OH232103   5.994   2.304  15.374  0.3166  0.3975 -0.0028
 3563TIP3    H132104   5.938   2.376  15.344 -0.5230 -0.4227 -0.4451
 3563TIP3    H232105   6.054   2.345  15.436  0.2804  1.6115 -0.7343
 3564TIP3   OH232106   0.174   4.856   5.094  0.2913  0.1322 -0.0713
 3564TIP3    H132107   0.092   4.897   5.068 -0.9237 -2.9116 -1.4600
 3564TIP3    H232108   0.153   4.807   5.174  1.0322  0.1118  0.1250
 3565TIP3   OH232109   3.167   4.374  10.721 -0.0650 -0.2106  0.4112
 3565TIP3    H132110   3.073   4.358  10.711  0.0801 -0.2722 -1.2353
 3565TIP3    H232111   3.178   4.466  10.699  0.3430 -0.4133 -0.2859
 3566TIP3   OH232112   5.072   0.536  11.583 -0.1295  0.4629 -0.4682
 3566TIP3    H132113   5.069   0.620  11.538  2.3515  1.3528  0.8337
 3566TIP3    H232114   5.129   0.551  11.658  0.2323 -2.3335 -0.0703
 3567TIP3   OH232115   1.802   0.310   3.847  0.1621  0.4889 -0.3840
 3567TIP3    H132116   1.817   0.291   3.939  0.5926  2.2996 -0.0517
 3567TIP3    H232117   1.872   0.263   3.801  0.1929 -0.0794  0.2319
 3568TIP3   OH232118   3.811   2.276   5.925  0.3073  0.6699  0.2799
 3568TIP3    H132119   3.835   2.351   5.978 -0.9778  1.5851 -0.3796
 3568TIP3    H232120   3.728   2.301   5.884  0.6060 -0.5053 -1.1317
 3569TIP3   OH232121   3.935   0.369   2.128 -0.1501 -0.3739 -0.3942
 3569TIP3    H132122   3.849   0.409   2.135 -0.2409 -0.6524  0.0958
 3569TIP3    H232123   3.972   0.375   2.216 -0.1512 -1.3250 -0.3181
 3570TIP3   OH232124   1.772   2.192  15.411 -0.7803  0.3066  0.3983
 3570TIP3    H132125   1.733   2.151  15.489 -1.8530 -0.4000 -0.4859
 3570TIP3    H232126   1.699   2.205  15.351  0.0462  0.7498 -0.5528
 3571TIP3   OH232127   3.095   2.175  15.760  0.3841 -0.1266 -0.3114
 3571TIP3    H132128   3.142   2.122  15.823 -2.2761 -0.9799  1.1049
 3571TIP3    H232129   3.130   2.264  15.772  1.8742 -0.7695  0.3307
 3572TIP3   OH232130   6.069   2.858  16.859 -1.0326  0.5836 -0.1144
 3572TIP3    H132131   6.043   2.927  16.799 -0.6080 -0.9673 -2.2066
 3572TIP3    H232132   6.043   2.777  16.816  0.6740 -0.6985  1.0746
 3573TIP3   OH232133   1.926   5.658  10.831 -0.3689  0.1033  0.2603
 3573TIP3    H132134   1.948   5.751  10.844  3.4999 -0.5859 -0.1853
 3573TIP3    H232135   1.849   5.660  10.773  0.6219  3.0817 -1.2002
 3574TIP3   OH232136   2.372   0.995   2.583 -0.0386 -0.4465  0.2238
 3574TIP3    H132137   2.441   0.929   2.576  1.3752  0.8914  0.9282
 3574TIP3    H232138   2.326   0.972   2.663 -1.4039 -2.1899 -0.9821
 3575TIP3   OH232139   1.343   4.168  11.722  0.3831 -0.3782 -0.3316
 3575TIP3    H132140   1.327   4.163  11.816 -2.7865  2.1774 -0.5878
 3575TIP3    H232141   1.262   4.138  11.681  0.2997  1.9490 -2.1141
 3576TIP3   OH232142   6.608   0.122  12.934 -0.0518  0.3039  0.2962
 3576TIP3    H132143   6.562   0.049  12.975  0.1951 -0.9958 -1.6479
 3576TIP3    H232144   6.653   0.166  13.007 -0.9766 -0.8866  1.6279
 3577TIP3   OH232145   5.552   5.147   2.483 -0.2756 -0.0983  0.1373
 3577TIP3    H132146   5.617   5.115   2.546 -0.5620  0.0729  0.5242
 3577TIP3    H232147   5.588   5.230   2.452  1.0655 -1.2991 -1.7735
 3578TIP3   OH232148   6.272   4.255  11.981 -0.0341 -0.0871  0.7757
 3578TIP3    H132149   6.280   4.348  11.958  0.4855 -0.0996  0.8983
 3578TIP3    H232150   6.361   4.228  12.003  0.4868 -1.4862 -2.4918
 3579TIP3   OH232151   5.071   2.798   5.461 -0.4275  0.3277 -0.1012
 3579TIP3    H132152   5.080   2.707   5.490 -2.6772 -0.3000 -1.0696
 3579TIP3    H232153   5.127   2.805   5.384  0.8876  0.2257  0.8204
 3580TIP3   OH232154   4.259   1.413  12.698 -0.2995  0.1815 -0.0081
 3580TIP3    H132155   4.249   1.491  12.645 -0.1254 -0.6983 -1.3752
 3580TIP3    H232156   4.310   1.442  12.774  0.6178  1.1817 -0.9695
 3581TIP3   OH232157   3.739   0.729   1.563 -0.4181 -0.4237 -0.2662
 3581TIP3    H132158   3.704   0.656   1.512 -1.9189  0.7857 -1.0877
 3581TIP3    H232159   3.662   0.781   1.586  0.4842  0.3207  1.2474
 3582TIP3   OH232160   3.995   0.493  13.227 -0.2312 -0.6252 -0.4011
 3582TIP3    H132161   3.906   0.469  13.202 -0.6242  1.2746 -0.9832
 3582TIP3    H232162   4.033   0.530  13.148 -0.0019  1.4299  0.6121
 3583TIP3   OH232163   4.850   4.777   5.507 -0.1988  0.7913  0.4890
 3583TIP3    H132164   4.760   4.751   5.525 -0.3665  0.7203 -0.4151
 3583TIP3    H232165   4.885   4.801   5.593 -0.8562  0.1498  0.9559
 3584TIP3   OH232166   2.956   0.795   1.355 -0.2795 -0.1945  0.7770
 3584TIP3    H132167   2.928   0.707   1.381  0.1365 -0.3487  0.7191
 3584TIP3    H232168   2.895   0.821   1.287 -0.0397 -0.6869  0.3656
 3585TIP3   OH232169   5.311   3.796   0.468  0.4341  0.3211  0.1016
 3585TIP3    H132170   5.320   3.711   0.511  1.4915  0.0990 -0.5360
 3585TIP3    H232171   5.252   3.845   0.525 -0.9500 -1.1414  0.0183
 3586TIP3   OH232172   0.780   3.375   1.164 -0.2697  0.0339  0.1020
 3586TIP3    H132173   0.763   3.332   1.248 -0.6042 -0.9248 -0.4290
 3586TIP3    H232174   0.851   3.324   1.125 -1.1207 -0.5018 -0.8332
 3587TIP3   OH232175   6.406   0.799  14.180 -0.1760 -0.2560  0.3216
 3587TIP3    H132176   6.476   0.735  14.188 -0.4750 -1.0596 -2.3940
 3587TIP3    H232177   6.325   0.749  14.194 -0.4341 -0.7107 -2.1911
 3588TIP3   OH232178   4.170   4.066  11.481 -0.0970 -0.2227 -0.4263
 3588TIP3    H132179   4.165   4.130  11.552 -0.4037 -0.0618 -0.5894
 3588TIP3    H232180   4.204   3.987  11.522 -0.7523 -0.2861  0.0120
 3589TIP3   OH232181   6.044   0.744  15.831  0.0433  0.7031  0.8611
 3589TIP3    H132182   5.993   0.677  15.785 -0.0515  1.4107 -0.0917
 3589TIP3    H232183   6.135   0.723  15.811 -0.0157  1.3464 -0.1728
 3590TIP3   OH232184   0.454   2.333  16.271  0.0899  0.1503 -0.3555
 3590TIP3    H132185   0.429   2.423  16.289  0.7147  0.3567 -0.5044
 3590TIP3    H232186   0.374   2.282  16.288 -0.0829  0.6452  0.3852
 3591TIP3   OH232187   3.626   5.551  11.916  0.0157  0.2380  0.3923
 3591TIP3    H132188   3.718   5.557  11.940  0.1372 -3.2354  1.3556
 3591TIP3    H232189   3.598   5.466  11.949 -2.4260 -0.7280 -3.4591
 3592TIP3   OH232190   0.749   4.085  13.276  0.6916  0.2107  0.0985
 3592TIP3    H132191   0.827   4.139  13.262 -0.2926  1.6553 -0.0217
 3592TIP3    H232192   0.683   4.147  13.307 -1.0934 -0.5087 -2.0403
 3593TIP3   OH232193   4.937   1.565  16.130  0.2588  0.2770  0.5458
 3593TIP3    H132194   4.886   1.617  16.192  0.8860 -2.4468  3.6322
 3593TIP3    H232195   5.026   1.600  16.137  0.4264 -0.3041  1.6703
 3594TIP3   OH232196   6.404   6.742  13.023 -0.1224 -0.1252 -0.1443
 3594TIP3    H132197   6.393   6.757  13.116 -0.8198 -2.7067  0.2727
 3594TIP3    H232198   6.335   6.793  12.981 -1.9284 -1.4705  1.0538
 3595TIP3   OH232199   1.322   4.606   2.864 -0.3004 -0.2605  0.1454
 3595TIP3    H132200   1.239   4.638   2.899  0.1994  0.6563  0.5346
 3595TIP3    H232201   1.297   4.549   2.790 -1.2708 -0.2470  0.4468
 3596TIP3   OH232202   3.375   1.913   0.654 -0.1838  0.2149 -0.1740
 3596TIP3    H132203   3.293   1.926   0.606 -0.8552  0.0774  0.9008
 3596TIP3    H232204   3.427   1.856   0.598 -1.2768 -0.6093 -0.3730
 3597TIP3   OH232205   1.130   3.065   0.925 -0.3643  0.6801 -0.1998
 3597TIP3    H132206   1.116   3.097   0.835 -1.6016 -0.8879 -0.5978
 3597TIP3    H232207   1.059   3.003   0.940  0.1749  0.4664  1.6702
 3598TIP3   OH232208   3.552   3.456   6.182 -0.2694 -0.2002  0.1644
 3598TIP3    H132209   3.497   3.418   6.250 -2.2976  2.7398  0.3716
 3598TIP3    H232210   3.551   3.392   6.111 -0.2959 -2.1515  1.8293
 3599TIP3   OH232211   0.580   5.633  12.466  0.4927  0.0028 -0.2012
 3599TIP3    H132212   0.565   5.725  12.444  1.4013  0.0972 -0.4523
 3599TIP3    H232213   0.514   5.585  12.415  0.5361  0.4576 -0.6921
 3600TIP3   OH232214   5.847   0.374   3.012  0.7953 -0.5591 -0.1335
 3600TIP3    H132215   5.842   0.329   3.096 -0.0109 -0.7704 -0.2916
 3600TIP3    H232216   5.885   0.309   2.953  0.5372 -0.7044 -0.1386
 3601TIP3   OH232217   1.426   5.334   1.470  0.1595 -0.9216  0.0723
 3601TIP3    H132218   1.352   5.274   1.479  0.6375 -1.3108  1.7631
 3601TIP3    H232219   1.452   5.354   1.560  0.7029  0.9872 -0.4657
 3602TIP3   OH232220   1.148   4.299  15.095 -0.1335 -0.2759  0.5375
 3602TIP3    H132221   1.170   4.355  15.169 -1.0944 -0.4296  0.9664
 3602TIP3    H232222   1.063   4.260  15.119 -0.1083 -0.9020 -0.3169
 3603TIP3   OH232223   0.982   6.566   2.489 -0.4422  0.2736  0.1400
 3603TIP3    H132224   1.029   6.585   2.408 -2.0887 -0.2679 -0.9930
 3603TIP3    H232225   0.997   6.644   2.544  2.5012 -0.2630  0.2770
 3604TIP3   OH232226   3.855   1.927  13.527  0.1370  0.1284 -0.0315
 3604TIP3    H132227   3.892   1.853  13.478 -1.7972 -1.4052  0.6842
 3604TIP3    H232228   3.909   2.001  13.502  3.3042 -1.8008  0.5105
 3605TIP3   OH232229   6.613   4.323  16.052 -0.0172  0.1055 -0.3388
 3605TIP3    H132230   6.668   4.380  16.105  1.2161  0.9052 -2.3932
 3605TIP3    H232231   6.637   4.234  16.080  1.7074  0.4685 -0.5947
 3606TIP3   OH232232   6.594   0.413  10.713  0.1998 -0.4811  0.2777
 3606TIP3    H132233   6.559   0.324  10.722  2.8861 -1.4502  3.0819
 3606TIP3    H232234   6.687   0.400  10.695  0.9406  1.6573  2.0767
 3607TIP3   OH232235   4.809   0.074  15.197 -0.1093 -0.2966 -0.6452
 3607TIP3    H132236   4.831   0.143  15.260 -2.1240  0.0551 -0.2369
 3607TIP3    H232237   4.866   0.091  15.122  0.3790  1.0002 -0.0209
 3608TIP3   OH232238   3.460   0.624   2.160 -0.8044  0.2264 -0.4492
 3608TIP3    H132239   3.379   0.643   2.112 -0.5424  0.0498 -0.9664
 3608TIP3    H232240   3.435   0.632   2.252 -1.1607  1.1820 -0.6145
 3609TIP3   OH232241   6.737   2.798  16.475  0.6277  0.0664 -0.1936
 3609TIP3    H132242   6.657   2.760  16.510  0.5707  0.9106  0.6085
 3609TIP3    H232243   6.710   2.840  16.393  0.4159 -0.3401 -0.3376
 3610TIP3   OH232244   2.831   2.980   4.929  0.2392 -0.2581  0.0758
 3610TIP3    H132245   2.744   2.966   4.892 -0.1857  0.2002  0.8713
 3610TIP3    H232246   2.891   2.963   4.856 -0.5442  0.0482 -0.6602
 3611TIP3   OH232247   5.961   1.697  11.935 -0.5294 -0.4061  0.5430
 3611TIP3    H132248   5.924   1.617  11.972  1.6470 -0.6605  2.4224
 3611TIP3    H232249   6.042   1.667  11.892  0.8270  0.8155  2.1104
 3612TIP3   OH232250   4.353   5.557   0.684  0.4421 -0.3979 -0.1776
 3612TIP3    H132251   4.392   5.508   0.612 -2.5437 -1.4509 -1.2227
 3612TIP3    H232252   4.294   5.495   0.727  0.1884  0.9418  1.5551
 3613TIP3   OH232253   2.978   6.626  14.167  0.0672 -0.4228 -0.7744
 3613TIP3    H132254   3.058   6.667  14.132 -0.0330 -0.6133 -1.2346
 3613TIP3    H232255   2.934   6.697  14.214 -0.2363  0.0952 -1.7901
 3614TIP3   OH232256   3.369   1.073  11.388  0.5572  0.4083 -0.3217
 3614TIP3    H132257   3.396   1.163  11.409 -0.5762  1.4872 -3.0012
 3614TIP3    H232258   3.278   1.068  11.417  1.2283 -0.6765  1.7874
 3615TIP3   OH232259   0.590   0.774   6.541 -0.4991 -0.5952  0.3200
 3615TIP3    H132260   0.602   0.865   6.513 -1.3141 -0.8187 -0.8163
 3615TIP3    H232261   0.504   0.773   6.583 -0.3114 -0.7714  0.7136
 3616TIP3   OH232262   6.509   6.653  16.583 -0.2365 -0.0825 -0.0603
 3616TIP3    H132263   6.548   6.703  16.655  0.2906 -1.2269  0.4660
 3616TIP3    H232264   6.514   6.712  16.508  0.3625  0.6632  0.5452
 3617TIP3   OH232265   4.256   6.703   5.502  0.0671  0.5284 -0.2837
 3617TIP3    H132266   4.290   6.722   5.415 -1.1107  0.0395 -0.8580
 3617TIP3    H232267   4.335   6.690   5.556  0.7998 -0.4570 -1.5445
 3618TIP3   OH232268   0.923   2.680   1.662  0.4574  0.0579  0.3694
 3618TIP3    H132269   0.904   2.593   1.698  1.0030  0.3303  1.3738
 3618TIP3    H232270   0.844   2.730   1.678  0.9516  0.4031  2.0051
 3619TIP3   OH232271   2.959   5.113  13.188 -0.5151 -0.1758  0.5209
 3619TIP3    H132272   2.887   5.075  13.138  0.4742 -2.2119  0.5211
 3619TIP3    H232273   3.037   5.068  13.155  0.3452 -0.5829  2.9145
 3620TIP3   OH232274   2.018   1.248   5.812 -0.3226 -0.3567 -0.4606
 3620TIP3    H132275   2.063   1.167   5.836  0.9265  0.4862  0.1567
 3620TIP3    H232276   2.087   1.313   5.808 -1.6044  1.2814  1.7450
 3621TIP3   OH232277   5.925   0.339   5.501  0.0066 -0.1226  0.3333
 3621TIP3    H132278   5.878   0.256   5.494  0.8259 -0.5816  0.1573
 3621TIP3    H232279   6.008   0.324   5.456  0.9497  0.1984  1.8957
 3622TIP3   OH232280   4.442   5.590   4.985  0.3813  0.1784 -0.4755
 3622TIP3    H132281   4.392   5.646   4.926 -0.6623 -0.3231 -0.0902
 3622TIP3    H232282   4.459   5.645   5.062 -1.5521 -0.2882  0.3612
 3623TIP3   OH232283   1.054   0.440   6.174  0.1707 -0.6381 -0.5867
 3623TIP3    H132284   1.052   0.523   6.127  0.7391 -0.5630 -0.4820
 3623TIP3    H232285   1.026   0.461   6.263  2.3610 -0.1454  0.0441
 3624TIP3   OH232286   5.942   6.433   2.439  0.1441  0.3303  0.0229
 3624TIP3    H132287   6.036   6.435   2.453  0.3588 -0.1758 -1.2067
 3624TIP3    H232288   5.927   6.498   2.371 -0.4055  0.4749  0.2806
 3625TIP3   OH232289   2.235   0.269  13.849 -0.3266 -0.3705 -0.0523
 3625TIP3    H132290   2.277   0.247  13.932 -0.8528  0.5366  0.4607
 3625TIP3    H232291   2.181   0.345  13.868 -0.6580 -0.3057 -1.1705
 3626TIP3   OH232292   1.983   4.225  11.277  0.3213 -0.0343 -0.5293
 3626TIP3    H132293   2.038   4.292  11.236 -1.7133  1.2296 -1.3421
 3626TIP3    H232294   1.950   4.173  11.203  1.3793 -1.5767  0.0457
 3627TIP3   OH232295   4.151   6.000   3.282  0.3920 -0.3153 -0.5774
 3627TIP3    H132296   4.106   5.916   3.275  1.3004 -0.9090  0.3510
 3627TIP3    H232297   4.102   6.048   3.349  0.3217 -0.4161 -0.5568
 3628TIP3   OH232298   6.269   3.767  14.801 -0.8066 -0.0425 -0.0345
 3628TIP3    H132299   6.303   3.799  14.884 -1.0372 -1.8421  0.7918
 3628TIP3    H232300   6.283   3.673  14.803 -0.6075 -0.1152 -2.1570
 3629TIP3   OH232301   3.195   0.440  11.972  0.1219 -0.3805  0.4624
 3629TIP3    H132302   3.286   0.471  11.976  0.1770 -0.4958  4.5260
 3629TIP3    H232303   3.144   0.512  12.009 -1.0371 -1.4402  0.9820
 3630TIP3   OH232304   2.228   6.419   3.939  0.9308  0.0736 -0.1490
 3630TIP3    H132305   2.139   6.454   3.944  0.9911  0.1285  0.6764
 3630TIP3    H232306   2.283   6.486   3.979  1.0566 -0.8746  1.3731
 3631TIP3   OH232307   3.819   3.511   0.027  0.2776 -0.5410  0.1578
 3631TIP3    H132308   3.904   3.493   0.067  1.3677  0.7731 -1.4536
 3631TIP3    H232309   3.779   3.425   0.014  0.5328 -1.0921  2.5679
 3632TIP3   OH232310   5.290   1.560  16.218  0.4125 -0.3579  0.1878
 3632TIP3    H132311   5.243   1.636  16.254  1.7164 -0.2083  1.6887
 3632TIP3    H232312   5.323   1.591  16.133 -0.9746 -0.0097 -0.2422
 3633TIP3   OH232313   2.249   0.732  14.513 -0.2200  0.5914  0.0519
 3633TIP3    H132314   2.276   0.717  14.604  1.2884 -1.2338 -0.6154
 3633TIP3    H232315   2.190   0.659  14.494  0.1763  0.4630 -0.6950
 3634TIP3   OH232316   5.921   3.193   5.800 -0.1229 -0.6805  0.1674
 3634TIP3    H132317   5.844   3.142   5.823 -0.2879 -0.5762 -0.1512
 3634TIP3    H232318   5.983   3.176   5.871 -0.6068 -0.4006  0.6662
 3635TIP3   OH232319   4.104   1.654   1.570  0.3061  0.7067  0.3560
 3635TIP3    H132320   4.025   1.644   1.516 -0.4834 -0.8020  1.7090
 3635TIP3    H232321   4.144   1.567   1.571  0.4569  0.7643  1.9393
 3636TIP3   OH232322   4.829   6.700   4.812  0.0106  0.0279  0.0597
 3636TIP3    H132323   4.779   6.623   4.840  2.1325 -1.4510  0.0098
 3636TIP3    H232324   4.800   6.770   4.870  0.2590 -1.5938  2.2462
 3637TIP3   OH232325   6.421   4.729   3.049  0.3637 -0.2175  0.0835
 3637TIP3    H132326   6.353   4.785   3.086  0.6335  0.8813 -1.0417
 3637TIP3    H232327   6.411   4.736   2.954  1.8706 -0.2390 -0.1142
 3638TIP3   OH232328   1.053   5.621   3.179 -0.8246 -0.5095  0.6108
 3638TIP3    H132329   1.099   5.690   3.131 -2.0285 -0.0346  0.1137
 3638TIP3    H232330   1.115   5.547   3.178  0.1509  0.2873  0.4548
 3639TIP3   OH232331   4.518   3.745  13.401  0.1569  0.0213  0.1111
 3639TIP3    H132332   4.538   3.687  13.328 -2.2978  1.6103 -1.9911
 3639TIP3    H232333   4.432   3.717  13.432  0.0766  0.9086  0.7489
 3640TIP3   OH232334   4.374   5.173   1.719  0.0937 -0.6505 -0.0681
 3640TIP3    H132335   4.281   5.174   1.741 -0.7484 -0.2311 -3.1516
 3640TIP3    H232336   4.418   5.160   1.803 -2.6895 -0.3656  1.5795
 3641TIP3   OH232337   0.124   5.109   5.288 -0.1258  0.0942  0.3905
 3641TIP3    H132338   0.047   5.163   5.311  0.8897  1.5550  0.5289
 3641TIP3    H232339   0.144   5.062   5.369 -2.2812 -2.2147 -0.2983
 3642TIP3   OH232340   3.325   0.806  14.406  0.4960  0.1429  0.2284
 3642TIP3    H132341   3.390   0.813  14.335  0.4628 -0.8573  0.0914
 3642TIP3    H232342   3.325   0.713  14.430 -1.8984 -0.1774 -0.7261
 3643TIP3   OH232343   3.059   2.789  14.240 -0.4027 -0.9492 -0.0047
 3643TIP3    H132344   3.149   2.776  14.211  0.0896  0.3911  0.8220
 3643TIP3    H232345   3.064   2.787  14.335 -1.5069 -2.2715  0.0559
 3644TIP3   OH232346   5.899   6.119  14.206 -0.1532 -0.3198  0.7251
 3644TIP3    H132347   5.890   6.132  14.301 -2.1122  0.9367  0.4253
 3644TIP3    H232348   5.829   6.059  14.183 -0.9216  0.8687 -0.1668
 3645TIP3   OH232349   6.146   6.436   4.199  0.1005  0.4719 -0.0474
 3645TIP3    H132350   6.199   6.364   4.165 -1.0190  0.1393 -1.1543
 3645TIP3    H232351   6.110   6.478   4.121 -1.8408  0.2460  0.6776
 3646TIP3   OH232352   3.600   2.715   0.238 -1.0765 -0.5961  0.1961
 3646TIP3    H132353   3.639   2.708   0.151 -1.2865  0.4019  0.0071
 3646TIP3    H232354   3.669   2.755   0.292  0.0428 -3.5594  1.1961
 3647TIP3   OH232355   0.996   0.966  14.260  0.3265 -0.3031  0.1135
 3647TIP3    H132356   0.916   0.928  14.224  0.0246  1.8872 -1.7456
 3647TIP3    H232357   1.067   0.916  14.219 -0.0506  1.0402 -2.3742
 3648TIP3   OH232358   0.693   4.107  13.788  0.1009  0.3188 -0.0296
 3648TIP3    H132359   0.672   4.200  13.788  0.4720  0.4161 -1.0689
 3648TIP3    H232360   0.677   4.078  13.878 -0.3381  1.3076  0.2170
 3649TIP3   OH232361   3.695   3.037  16.347 -0.1583  0.1647 -0.2368
 3649TIP3    H132362   3.637   3.047  16.271 -2.2874  2.2956  1.4892
 3649TIP3    H232363   3.679   2.949  16.379 -2.8894  0.7859  0.3816
 3650TIP3   OH232364   4.590   4.054   1.483 -0.1248 -0.4182 -0.2419
 3650TIP3    H132365   4.560   4.109   1.555 -0.6632 -0.5844 -0.3382
 3650TIP3    H232366   4.686   4.061   1.486 -0.2104  1.6505 -1.1326
 3651TIP3   OH232367   3.204   0.406   1.788  0.1626 -0.1987  0.3496
 3651TIP3    H132368   3.130   0.455   1.822 -0.1126 -2.6907  3.9358
 3651TIP3    H232369   3.264   0.398   1.863  1.5474 -2.6823 -0.8986
 3652TIP3   OH232370   0.312   6.111  14.590  0.0673  0.3042 -0.1179
 3652TIP3    H132371   0.309   6.017  14.607  0.3199  0.4398  0.7390
 3652TIP3    H232372   0.390   6.123  14.537 -0.3540 -0.0520 -0.8336
 3653TIP3   OH232373   3.910   0.093  10.791  0.3716 -0.3235  0.1552
 3653TIP3    H132374   3.920   0.077  10.697 -0.7779  3.6703 -0.8300
 3653TIP3    H232375   3.985   0.148  10.814  0.8260 -1.5390  1.7408
 3654TIP3   OH232376   4.038   6.158  13.508 -0.1702  0.3266 -0.1750
 3654TIP3    H132377   4.051   6.248  13.479 -2.7785  0.4250 -1.2967
 3654TIP3    H232378   4.106   6.145  13.574  1.5213  2.4378 -1.3482
 3655TIP3   OH232379   0.373   0.983   5.891  0.5761  0.0101 -0.2902
 3655TIP3    H132380   0.312   1.012   5.959 -0.6241 -0.7299 -1.0010
 3655TIP3    H232381   0.445   0.942   5.940 -0.1824 -0.3730  0.5493
 3656TIP3   OH232382   1.280   3.205  10.932  0.4209  0.1399  0.7683
 3656TIP3    H132383   1.365   3.247  10.921  0.2860  0.1504 -0.4184
 3656TIP3    H232384   1.299   3.120  10.972  1.1090 -0.2938 -0.4460
 3657TIP3   OH232385   3.428   1.966  14.877  0.1716 -0.2949  0.1618
 3657TIP3    H132386   3.367   1.923  14.817 -0.6225  0.3294  0.5143
 3657TIP3    H232387   3.452   2.047  14.832 -0.2134  0.0443  0.5696
 3658TIP3   OH232388   1.039   0.826   5.556  0.7312 -0.4196 -0.3744
 3658TIP3    H132389   1.002   0.770   5.625 -0.5917  0.0680 -0.6510
 3658TIP3    H232390   1.000   0.912   5.572  2.0169  0.2180 -0.5123
 3659TIP3   OH232391   4.820   5.271   0.120 -0.0834  0.3674  0.2142
 3659TIP3    H132392   4.799   5.351   0.071  0.8775  0.1104 -0.6543
 3659TIP3    H232393   4.842   5.207   0.052  1.6278  0.0968  0.9905
 3660TIP3   OH232394   3.153   4.339  14.276  0.7351 -0.3937  0.2614
 3660TIP3    H132395   3.081   4.288  14.240 -0.1903  1.1348 -0.1573
 3660TIP3    H232396   3.166   4.304  14.364 -0.8711 -0.3783  0.5309
 3661TIP3   OH232397   3.728   5.256  13.504 -0.0287  0.2367 -0.1732
 3661TIP3    H132398   3.745   5.308  13.426 -1.9763  2.5629  0.8334
 3661TIP3    H232399   3.772   5.303  13.575 -1.2662  0.1734  0.6712
 3662TIP3   OH232400   3.167   4.287  15.629  0.0587 -0.2012 -0.0552
 3662TIP3    H132401   3.244   4.309  15.577  0.7785  0.2362  1.1546
 3662TIP3    H232402   3.178   4.337  15.710  0.0497 -2.4118  1.4033
 3663TIP3   OH232403   4.829   4.852   4.264 -0.0689  0.7130 -0.1123
 3663TIP3    H132404   4.910   4.802   4.254 -0.7622 -0.6682  0.7688
 3663TIP3    H232405   4.815   4.892   4.178  2.0880  1.9045  0.0151
 3664TIP3   OH232406   4.488   2.073   4.383 -0.3236 -0.2809 -0.0716
 3664TIP3    H132407   4.403   2.114   4.398  1.1010  3.3542 -0.8949
 3664TIP3    H232408   4.544   2.107   4.453  1.0270 -0.7225 -0.8973
 3665TIP3   OH232409   4.797   2.655   2.289  0.3721  0.6942  0.1385
 3665TIP3    H132410   4.862   2.677   2.222  1.6303 -0.7201  0.8507
 3665TIP3    H232411   4.824   2.705   2.366  1.1842 -0.5587  0.7015
 3666TIP3   OH232412   0.368   4.589   5.126 -0.4610 -0.2902 -0.3436
 3666TIP3    H132413   0.357   4.682   5.143  0.8883 -0.5100  2.2351
 3666TIP3    H232414   0.325   4.545   5.199  2.3327 -1.5106  0.7180
 3667TIP3   OH232415   4.948   4.682   5.253 -0.1857 -0.3268 -0.2979
 3667TIP3    H132416   4.910   4.724   5.330 -1.9192 -1.7987 -0.2599
 3667TIP3    H232417   5.024   4.735   5.231 -0.7426  1.2294  1.2874
 3668TIP3   OH232418   4.796   1.542  16.435 -0.5166 -0.3871 -0.1518
 3668TIP3    H132419   4.856   1.537  16.509 -0.1887 -0.6231 -0.4340
 3668TIP3    H232420   4.827   1.617  16.383 -0.8079 -0.1569 -0.0019
 3669TIP3   OH232421   4.446   3.471   5.478  0.6698 -0.6905  0.1892
 3669TIP3    H132422   4.411   3.394   5.522 -0.1810  0.0547  0.8452
 3669TIP3    H232423   4.373   3.506   5.427  0.8148  0.1393  0.5313
 3670TIP3   OH232424   6.170   5.773   1.490 -0.7863  0.5618  0.6197
 3670TIP3    H132425   6.191   5.733   1.405 -0.6122 -1.2529  1.4629
 3670TIP3    H232426   6.090   5.728   1.518 -1.1835  1.5682  1.1638
 3671TIP3   OH232427   3.211   3.872   1.757 -0.3862 -0.5219 -0.0417
 3671TIP3    H132428   3.285   3.907   1.707 -1.1659  2.2753  0.5467
 3671TIP3    H232429   3.143   3.857   1.692 -0.6792  1.0325 -0.1291
 3672TIP3   OH232430   3.741   6.143  11.646  0.2641 -0.2155  0.0355
 3672TIP3    H132431   3.775   6.223  11.685 -1.2879 -0.0444  1.1191
 3672TIP3    H232432   3.817   6.086  11.638  1.3051  1.1634 -0.3087
 3673TIP3   OH232433   5.800   3.449   1.671 -0.0793  0.1336  0.2026
 3673TIP3    H132434   5.878   3.439   1.725  1.0726  0.6894 -1.2818
 3673TIP3    H232435   5.729   3.413   1.724  1.2048 -0.5449  1.5302
 3674TIP3   OH232436   3.722   2.865  12.988  0.3124 -0.4817  0.2684
 3674TIP3    H132437   3.650   2.844  13.048 -0.9710 -1.6523 -1.5811
 3674TIP3    H232438   3.705   2.955  12.961  0.1602 -0.3970  0.6301
 3675TIP3   OH232439   6.105   5.254   0.164  0.2696 -0.1307 -0.3238
 3675TIP3    H132440   6.016   5.219   0.166  0.7773 -1.4466  0.3377
 3675TIP3    H232441   6.153   5.201   0.227  0.6817  3.0290  2.2639
 3676TIP3   OH232442   1.605   4.404  10.608  0.0896  0.0836 -0.0924
 3676TIP3    H132443   1.607   4.498  10.626  1.2993 -0.2241  1.6519
 3676TIP3    H232444   1.512   4.381  10.611 -0.1654  1.0890  0.1828
 3677TIP3   OH232445   3.225   5.077   4.731 -0.1415  0.4985 -0.5905
 3677TIP3    H132446   3.281   5.000   4.724 -1.3483 -0.4205 -0.4499
 3677TIP3    H232447   3.244   5.113   4.818 -0.9763 -0.8144  0.1703
 3678TIP3   OH232448   0.876   6.618  16.631 -0.3519 -0.1827 -0.0641
 3678TIP3    H132449   0.893   6.603  16.538  3.0407 -0.0574  0.4399
 3678TIP3    H232450   0.845   6.709  16.634  0.7832  0.2640 -0.9722
 3679TIP3   OH232451   5.706   4.648  15.307  0.3538 -0.2839 -0.3500
 3679TIP3    H132452   5.649   4.642  15.384  0.0730 -2.7013 -0.6611
 3679TIP3    H232453   5.793   4.665  15.344  0.0355 -0.2981  0.4322
 3680TIP3   OH232454   4.711   2.004  16.807 -0.3441 -0.4872 -0.0906
 3680TIP3    H132455   4.670   2.081  16.768  1.8873  0.2824 -1.1156
 3680TIP3    H232456   4.805   2.024  16.806  0.5799 -4.1149 -2.5166
 3681TIP3   OH232457   1.424   0.724   4.854  0.1751 -0.0358  0.1899
 3681TIP3    H132458   1.515   0.750   4.869  0.0493  0.6248 -0.1612
 3681TIP3    H232459   1.421   0.700   4.762  0.0460 -0.2856  0.2590
 3682TIP3   OH232460   5.626   2.570   3.408 -0.0380  0.0522  0.2391
 3682TIP3    H132461   5.582   2.652   3.430  0.2105  0.5411 -0.9995
 3682TIP3    H232462   5.557   2.504   3.407 -0.5366  0.5687 -0.3950
 3683TIP3   OH232463   5.113   5.249   3.715 -0.7710  0.2382 -0.3620
 3683TIP3    H132464   5.202   5.282   3.726 -0.5498 -0.7152  1.0468
 3683TIP3    H232465   5.086   5.278   3.628  0.4952  1.5013 -0.3583
 3684TIP3   OH232466   2.498   0.412   2.186  0.4621 -0.6545  0.0886
 3684TIP3    H132467   2.525   0.434   2.097 -0.5249 -0.9882 -0.3080
 3684TIP3    H232468   2.493   0.496   2.231  1.0694 -0.4934 -0.1252
 3685TIP3   OH232469   0.819   4.201  16.010  0.1989 -0.6945 -0.2559
 3685TIP3    H132470   0.816   4.186  16.104  1.1444  1.3094  0.1644
 3685TIP3    H232471   0.910   4.180  15.986  0.4793  0.4788 -0.3290
 3686TIP3   OH232472   4.755   3.342   0.508  0.0113  0.2994  0.0616
 3686TIP3    H132473   4.679   3.379   0.464  0.0899  2.8348  1.8382
 3686TIP3    H232474   4.737   3.352   0.601  2.6369  1.4356  0.5516
 3687TIP3   OH232475   2.645   2.528   4.503  0.1161 -0.3518 -0.6998
 3687TIP3    H132476   2.625   2.610   4.550 -1.5204 -0.0290 -1.8585
 3687TIP3    H232477   2.682   2.471   4.570 -0.8713  0.5521  0.6804
 3688TIP3   OH232478   4.419   0.509  11.540 -0.7200 -0.0160  0.0629
 3688TIP3    H132479   4.341   0.524  11.594 -0.5630 -0.5740  0.4603
 3688TIP3    H232480   4.446   0.596  11.511 -1.5019  0.1800 -0.0937
 3689TIP3   OH232481   5.630   0.307  13.406  0.1541 -0.2612 -0.4652
 3689TIP3    H132482   5.576   0.383  13.384 -0.4622 -0.0087  1.6260
 3689TIP3    H232483   5.705   0.344  13.452  0.3936 -0.8405 -0.3861
 3690TIP3   OH232484   6.443   5.966   3.913  0.1874  0.4667  0.2580
 3690TIP3    H132485   6.476   6.022   3.843 -0.0079 -1.0431 -1.1092
 3690TIP3    H232486   6.458   6.016   3.993  1.4726  1.7823 -0.7444
 3691TIP3   OH232487   2.881   6.628  15.404 -0.8318  0.1943 -0.2474
 3691TIP3    H132488   2.934   6.690  15.353 -0.9849 -0.1533 -0.8372
 3691TIP3    H232489   2.945   6.573  15.449 -0.6944  0.3819 -0.2123
 3692TIP3   OH232490   5.636   5.901  14.748 -0.0193 -0.1437  0.2000
 3692TIP3    H132491   5.720   5.859  14.729  0.1045 -0.7583  1.8861
 3692TIP3    H232492   5.571   5.842  14.709  0.2446 -1.0162  1.0238
 3693TIP3   OH232493   6.258   4.647   0.370  0.3561  0.1346  0.4190
 3693TIP3    H132494   6.171   4.656   0.331  0.3524  1.0858  0.6057
 3693TIP3    H232495   6.244   4.596   0.449 -0.1543  0.8451  0.8013
 3694TIP3   OH232496   3.424   1.672  10.081  0.3808 -0.3528  0.6172
 3694TIP3    H132497   3.348   1.624  10.113  0.2903 -1.5411 -1.2542
 3694TIP3    H232498   3.480   1.605  10.042  1.7318  0.6890  0.6795
 3695TIP3   OH232499   2.614   0.449  10.750  0.3113  0.3206  0.6330
 3695TIP3    H132500   2.653   0.408  10.673  0.4573 -2.3371  2.0073
 3695TIP3    H232501   2.593   0.538  10.722  1.6842 -0.0938 -2.0049
 3696TIP3   OH232502   0.142   1.757  10.357 -0.0168 -0.5764  0.0627
 3696TIP3    H132503   0.149   1.709  10.440 -0.7039 -0.3066  0.2847
 3696TIP3    H232504   0.097   1.696  10.298 -0.1258 -0.5229  0.0895
 3697TIP3   OH232505   5.692   5.284   4.774 -0.4061 -0.2645  0.4937
 3697TIP3    H132506   5.721   5.193   4.779 -0.2786 -0.2071  0.8659
 3697TIP3    H232507   5.600   5.282   4.802 -0.1476 -0.1608  1.3711
 3698TIP3   OH232508   1.945   2.820  15.657  0.5793 -0.7604 -0.2682
 3698TIP3    H132509   1.873   2.760  15.674  0.3377 -0.7073 -1.1065
 3698TIP3    H232510   1.903   2.902  15.632  0.9269 -0.8828 -1.2911
 3699TIP3   OH232511   2.313   3.154  16.535 -0.0713  0.0577  0.2823
 3699TIP3    H132512   2.367   3.078  16.554  1.7489  1.6063  1.7186
 3699TIP3    H232513   2.363   3.203  16.470 -1.5652 -0.2625 -1.1850
 3700TIP3   OH232514   2.087   4.808  10.959 -0.1153  0.0218  0.0072
 3700TIP3    H132515   2.018   4.872  10.940  0.1609  0.3371  0.0628
 3700TIP3    H232516   2.085   4.748  10.884  0.8764  1.1838 -1.0081
 3701TIP3   OH232517   3.799   0.407   0.184  0.2439 -0.4436 -0.0262
 3701TIP3    H132518   3.843   0.475   0.234 -0.1274 -0.2128 -0.0065
 3701TIP3    H232519   3.768   0.450   0.105 -2.1562  0.0666  1.0776
 3702TIP3   OH232520   1.476   1.185   0.922 -0.5668  0.5884  0.0276
 3702TIP3    H132521   1.458   1.264   0.972 -0.4268  0.9723 -0.5135
 3702TIP3    H232522   1.529   1.131   0.980 -1.0374  0.6988  0.5658
 3703TIP3   OH232523   0.018   5.706   0.648  0.1953  0.0847  0.0905
 3703TIP3    H132524   0.069   5.669   0.721 -2.1593 -1.4654  1.0820
 3703TIP3    H232525  -0.006   5.629   0.596 -1.1011  0.7455 -0.3185
 3704TIP3   OH232526   3.074   6.759  11.473 -0.1425 -0.0147  0.3520
 3704TIP3    H132527   3.124   6.678  11.483  0.5772  0.3147 -0.4634
 3704TIP3    H232528   3.120   6.808  11.405 -0.1319  1.4309  1.3596
 3705TIP3   OH232529   5.575   2.968   5.218  0.0706  0.6911 -0.2746
 3705TIP3    H132530   5.637   2.985   5.289 -0.5713  0.4046  0.3716
 3705TIP3    H232531   5.548   3.055   5.188  0.3103  0.8138 -0.1291
 3706TIP3   OH232532   6.719   0.260  14.200  0.4207  0.4210  0.3942
 3706TIP3    H132533   6.697   0.262  14.293  1.1386 -0.3161  0.5848
 3706TIP3    H232534   6.711   0.351  14.172 -0.3807  0.5566  1.0338
 3707TIP3   OH232535   2.764   5.892   0.155 -0.0290  0.4993  0.2179
 3707TIP3    H132536   2.793   5.804   0.129  3.3114  1.3053  0.7679
 3707TIP3    H232537   2.734   5.932   0.074 -0.2496 -0.6357 -0.2876
 3708TIP3   OH232538   1.039   3.248  11.972  0.4955 -0.0795 -0.3288
 3708TIP3    H132539   1.114   3.223  11.918  1.3454  0.7246  0.4405
 3708TIP3    H232540   1.069   3.234  12.062  0.3279  1.7844  0.0508
 3709TIP3   OH232541   1.036   4.133   2.770 -0.3076 -0.2421  0.0130
 3709TIP3    H132542   1.001   4.203   2.824  1.1583  0.5309  0.0131
 3709TIP3    H232543   1.125   4.119   2.803  0.5894  0.1797 -2.0993
 3710TIP3   OH232544   3.819   4.838   2.960 -0.1276  0.6933  0.0088
 3710TIP3    H132545   3.725   4.832   2.978  0.3926  0.3781  3.2584
 3710TIP3    H232546   3.844   4.926   2.990  1.0427 -0.2632  2.0775
 3711TIP3   OH232547   0.728   0.958   5.724 -0.8923 -0.4237  0.1076
 3711TIP3    H132548   0.708   0.881   5.777  0.9276 -0.9887  0.0435
 3711TIP3    H232549   0.766   1.021   5.786 -1.7842  0.1966  0.0441
 3712TIP3   OH232550   6.083   3.540  16.222  0.1543 -0.6109 -0.6704
 3712TIP3    H132551   6.025   3.533  16.298 -0.2289  0.3602 -0.8689
 3712TIP3    H232552   6.086   3.451  16.186 -1.4955 -0.6027 -0.8677
 3713TIP3   OH232553   5.160   6.126  13.165 -0.0082 -0.3992  0.1654
 3713TIP3    H132554   5.084   6.077  13.135 -0.2318 -0.2340  0.4609
 3713TIP3    H232555   5.131   6.170  13.245  0.2825 -0.0358  0.0762
 3714TIP3   OH232556   1.566   6.357   3.262  0.0820  0.7849 -0.2378
 3714TIP3    H132557   1.555   6.284   3.322 -2.4977  0.5984 -0.8172
 3714TIP3    H232558   1.656   6.349   3.230  0.3856 -1.1444  0.9431
 3715TIP3   OH232559   4.481   1.110   1.575 -0.0967  0.1888  0.2919
 3715TIP3    H132560   4.503   1.155   1.493  1.0432 -2.3417 -0.9120
 3715TIP3    H232561   4.535   1.152   1.641  1.5429  0.1170 -0.9306
 3716TIP3   OH232562   0.035   0.671  12.468  0.2868  0.2132 -0.2085
 3716TIP3    H132563  -0.019   0.620  12.528  1.3686 -0.9152 -0.1415
 3716TIP3    H232564   0.007   0.643  12.381 -1.6174  2.2004 -0.3213
 3717TIP3   OH232565   3.517   5.648   4.741  0.0670 -0.9964 -0.6526
 3717TIP3    H132566   3.434   5.660   4.787 -0.0564 -1.3554 -0.7690
 3717TIP3    H232567   3.565   5.584   4.794 -0.2681 -1.7650 -1.2449
 3718TIP3   OH232568   2.203   1.277   4.821  0.0798  0.4086 -0.0154
 3718TIP3    H132569   2.271   1.342   4.807 -1.1059  1.3107 -1.8747
 3718TIP3    H232570   2.239   1.219   4.889  1.8127  2.0385  0.5318
 3719TIP3   OH232571   1.782   3.088   1.180  0.7445 -0.1098 -0.8211
 3719TIP3    H132572   1.711   3.023   1.184  0.6035  0.0059 -1.3924
 3719TIP3    H232573   1.817   3.089   1.269 -0.4267  0.3331 -0.3373
 3720TIP3   OH232574   4.568   5.629   2.163  0.0455  0.0563 -0.5702
 3720TIP3    H132575   4.627   5.576   2.109  0.5542 -0.5496  0.5478
 3720TIP3    H232576   4.574   5.717   2.126 -0.7433 -0.5977 -2.4112
 3721TIP3   OH232577   4.665   5.539   0.096  0.5095 -0.1538 -0.4031
 3721TIP3    H132578   4.640   5.548   0.188  1.7516  0.2508 -0.0825
 3721TIP3    H232579   4.760   5.552   0.096  0.3954  1.0072 -1.8863
 3722TIP3   OH232580   2.377   6.754  14.240  0.4736  0.1579 -0.3723
 3722TIP3    H132581   2.284   6.733  14.228  0.6749 -0.8799 -0.2322
 3722TIP3    H232582   2.382   6.792  14.328 -0.0685  1.9543 -1.0646
 3723TIP3   OH232583   6.292   2.724  14.370 -1.3373  0.4925  0.3673
 3723TIP3    H132584   6.262   2.807  14.407 -2.4211 -0.1333  0.9284
 3723TIP3    H232585   6.227   2.702  14.304 -1.6466 -0.4315  0.9610
 3724TIP3   OH232586   0.029   2.200  13.342  0.0715  0.0357  0.0843
 3724TIP3    H132587   0.081   2.265  13.295 -1.9814 -0.6272 -3.4756
 3724TIP3    H232588   0.087   2.124  13.349  0.4734  0.1397 -1.5617
 3725TIP3   OH232589   2.250   3.325   4.206  0.0805 -0.6216 -0.4257
 3725TIP3    H132590   2.326   3.382   4.213 -1.2874  1.0895  1.6773
 3725TIP3    H232591   2.268   3.254   4.267  0.2726 -0.6151 -0.4716
 3726TIP3   OH232592   5.981   4.318   0.439  0.1635  0.3583  0.4700
 3726TIP3    H132593   6.011   4.236   0.477 -1.1781  0.3729  1.6498
 3726TIP3    H232594   6.046   4.383   0.465  0.9504 -0.2107 -0.0287
 3727TIP3   OH232595   3.333   3.645   3.164 -0.4577  0.1180  0.2976
 3727TIP3    H132596   3.368   3.578   3.223 -0.0587  0.5504  0.5573
 3727TIP3    H232597   3.410   3.694   3.134 -0.4959 -0.9198 -1.6382
 3728TIP3   OH232598   4.957   5.206  15.969 -0.4518  0.2740 -0.1644
 3728TIP3    H132599   4.988   5.142  16.032  0.0414  1.2948  0.6425
 3728TIP3    H232600   4.867   5.178  15.949 -0.0246 -1.0318 -0.3318
 3729TIP3   OH232601   1.731   0.226   5.705 -0.0753  0.5298 -0.3726
 3729TIP3    H132602   1.778   0.308   5.716  0.1741  0.1961  1.4493
 3729TIP3    H232603   1.797   0.165   5.672  0.5052  0.3629  1.0345
 3730TIP3   OH232604   4.842   0.744   0.537  0.2962  0.3242 -0.3814
 3730TIP3    H132605   4.924   0.723   0.492  1.4206  0.0269  1.6457
 3730TIP3    H232606   4.817   0.662   0.581 -0.8532  0.5396 -0.6071
 3731TIP3   OH232607   3.803   1.786   5.043 -0.0403  0.5139  0.3701
 3731TIP3    H132608   3.836   1.701   5.071 -1.8115  0.3492  2.2636
 3731TIP3    H232609   3.808   1.784   4.947  2.6861 -0.5065  0.4697
 3732TIP3   OH232610   6.610   2.850  11.104  0.0539  0.6761  0.5878
 3732TIP3    H132611   6.553   2.818  11.034  1.2247 -0.2477  0.0276
 3732TIP3    H232612   6.647   2.931  11.069 -0.6693  1.1412  0.8527
 3733TIP3   OH232613   3.502   3.785  10.935  0.0856 -0.1381 -0.2252
 3733TIP3    H132614   3.526   3.772  10.844 -0.4091  0.8331 -0.5074
 3733TIP3    H232615   3.580   3.822  10.976  1.2031 -2.9119  0.3845
 3734TIP3   OH232616   4.795   1.159  13.347 -0.3533 -0.2113  0.7657
 3734TIP3    H132617   4.702   1.149  13.366 -0.0293 -0.4502  2.3706
 3734TIP3    H232618   4.830   1.205  13.423  0.6727  0.7745 -0.2656
 3735TIP3   OH232619   3.442   5.472  13.909  0.9088 -0.3358 -0.6873
 3735TIP3    H132620   3.431   5.396  13.965  4.1240 -0.0309  0.5619
 3735TIP3    H232621   3.536   5.475  13.889  0.9287  3.1608 -0.8026
 3736TIP3   OH232622   0.895   2.768  11.200 -1.0210  0.9248 -0.1610
 3736TIP3    H132623   0.803   2.786  11.184 -0.5054  1.8815 -2.4068
 3736TIP3    H232624   0.942   2.827  11.141  0.9887 -1.4517 -1.1156
 3737TIP3   OH232625   3.518   4.006   3.410  0.2947  0.3147 -0.2640
 3737TIP3    H132626   3.432   3.968   3.393 -0.1150  1.2188 -0.2720
 3737TIP3    H232627   3.516   4.031   3.502  1.3951 -1.7357  0.3792
 3738TIP3   OH232628   0.592   3.086  15.436  0.7308 -0.0874  0.3023
 3738TIP3    H132629   0.502   3.053  15.442  0.2386  1.2971  0.8609
 3738TIP3    H232630   0.637   3.023  15.380  0.1454 -2.3882  2.2412
 3739TIP3   OH232631   4.360   5.110  11.729 -0.5558 -0.5295  0.0902
 3739TIP3    H132632   4.318   5.184  11.685 -0.0727 -0.9321 -1.1050
 3739TIP3    H232633   4.288   5.056  11.759 -0.9131 -0.3829 -0.4722
 3740TIP3   OH232634   0.693   0.417   2.763 -0.4441 -0.3621 -0.0015
 3740TIP3    H132635   0.647   0.333   2.770 -1.1037  0.0148  0.2849
 3740TIP3    H232636   0.774   0.403   2.813  2.0154 -2.4683 -4.0912
 3741TIP3   OH232637   5.755   1.589   6.351  0.2443 -0.3300 -0.2521
 3741TIP3    H132638   5.842   1.599   6.314  0.2610  1.3961  0.1722
 3741TIP3    H232639   5.751   1.497   6.378  2.2750 -0.2458  0.5435
 3742TIP3   OH232640   4.930   6.399   5.802 -0.2633  0.4654  0.0656
 3742TIP3    H132641   4.984   6.439   5.870 -0.1436 -0.2162  0.3812
 3742TIP3    H232642   4.981   6.406   5.722 -0.4173  1.3024  0.0320
 3743TIP3   OH232643   3.248   1.641   0.523  0.8686 -0.1513  0.6187
 3743TIP3    H132644   3.337   1.622   0.553  1.5422  1.1801 -0.4266
 3743TIP3    H232645   3.246   1.611   0.432 -0.2768 -1.6283  1.0892
 3744TIP3   OH232646   2.370   1.862   0.759  0.1444  0.1363  0.3243
 3744TIP3    H132647   2.346   1.902   0.842  1.7001 -0.2321  0.9778
 3744TIP3    H232648   2.341   1.925   0.693 -0.6120  0.6883  1.1577
 3745TIP3   OH232649   4.071   5.460   5.241 -0.0601 -0.2996  0.2269
 3745TIP3    H132650   4.076   5.368   5.268  1.3668 -0.4296 -0.4257
 3745TIP3    H232651   4.097   5.509   5.319  2.4046 -0.6107 -0.3384
 3746TIP3   OH232652   0.565   1.114   1.528  0.1981 -0.0448  0.1347
 3746TIP3    H132653   0.553   1.138   1.620 -2.5071 -0.2903 -0.0899
 3746TIP3    H232654   0.627   1.041   1.530 -0.4725 -0.6001  1.8446
 3747TIP3   OH232655   3.269   2.509  15.997  0.3782 -0.3558  0.4718
 3747TIP3    H132656   3.358   2.476  15.990 -0.6500 -3.3555 -0.1442
 3747TIP3    H232657   3.251   2.508  16.091  1.0076  0.3431  0.6038
 3748TIP3   OH232658   1.371   4.647  12.288  0.2866  0.0746  0.1263
 3748TIP3    H132659   1.326   4.583  12.233 -2.3928 -0.5515  2.7942
 3748TIP3    H232660   1.377   4.726  12.235 -2.2360 -0.4647 -1.0725
 3749TIP3   OH232661   4.015   1.152  16.551 -0.4437 -0.5926  0.3918
 3749TIP3    H132662   3.988   1.226  16.606 -0.3755 -1.5622  1.7954
 3749TIP3    H232663   4.110   1.152  16.555 -0.4272 -0.4741  0.0019
 3750TIP3   OH232664   5.153   5.682   1.281  0.3228  0.5525  0.4585
 3750TIP3    H132665   5.185   5.592   1.281 -0.0391  0.4012  1.5770
 3750TIP3    H232666   5.222   5.731   1.328  0.2891  0.7635  0.2870
 3751TIP3   OH232667   3.640   2.453  16.546 -0.1258 -0.0312  0.1789
 3751TIP3    H132668   3.583   2.393  16.499  0.0249 -0.7740  0.9184
 3751TIP3    H232669   3.720   2.458  16.493 -0.5300  0.3209 -0.4044
 3752TIP3   OH232670   1.496   3.774  16.152 -0.8599 -0.3377  0.3909
 3752TIP3    H132671   1.532   3.694  16.113  1.0626  0.3695  0.5845
 3752TIP3    H232672   1.503   3.840  16.083 -2.0731 -0.2245  0.3582
 3753TIP3   OH232673   0.751   6.387   0.092  0.1228  0.7270 -0.4667
 3753TIP3    H132674   0.780   6.375   0.001 -0.3986  0.2560 -0.5824
 3753TIP3    H232675   0.658   6.363   0.090  0.4442 -0.7423  0.4725
 3754TIP3   OH232676   2.064   1.097  13.641  0.1264 -0.1265  0.0619
 3754TIP3    H132677   2.158   1.110  13.631  0.4307 -1.8566  0.3396
 3754TIP3    H232678   2.055   1.009  13.678 -1.6281 -0.3243 -0.7044
 3755TIP3   OH232679   6.563   5.102   3.859  0.1291 -0.2772 -0.5571
 3755TIP3    H132680   6.602   5.133   3.941 -0.2162  0.5659 -0.6969
 3755TIP3    H232681   6.621   5.135   3.791 -1.4661  2.1354 -0.8487
 3756TIP3   OH232682   4.990   2.082  16.988 -0.2506  0.1298 -0.3179
 3756TIP3    H132683   5.048   2.080  16.913  1.9883  2.3751  1.1746
 3756TIP3    H232684   4.945   2.167  16.981 -2.0843 -0.8133 -0.5104
 3757TIP3   OH232685   2.141   6.711   2.451 -0.3618  0.3836 -0.2638
 3757TIP3    H132686   2.141   6.634   2.507 -1.2741  1.1152  0.7803
 3757TIP3    H232687   2.115   6.783   2.509 -0.4608  1.3132 -1.4263
 3758TIP3   OH232688   6.395   6.088  13.439  0.1360 -0.3669 -0.1273
 3758TIP3    H132689   6.479   6.042  13.435 -0.7714 -2.1028 -0.0933
 3758TIP3    H232690   6.375   6.093  13.532 -0.4248 -1.1584 -0.2016
 3759TIP3   OH232691   3.365   0.893  12.955 -0.3236 -0.7532 -0.6941
 3759TIP3    H132692   3.420   0.868  13.029 -2.0792 -0.8086  0.6366
 3759TIP3    H232693   3.407   0.972  12.920 -0.0939 -0.0282  1.1040
 3760TIP3   OH232694   6.630   1.100   0.287 -0.3378  0.0503  0.9730
 3760TIP3    H132695   6.713   1.066   0.322  0.3887  1.2861  0.5382
 3760TIP3    H232696   6.639   1.091   0.192 -0.3921  0.8301  0.8877
 3761TIP3   OH232697   6.633   3.479  11.995  0.1980  0.1985  0.3534
 3761TIP3    H132698   6.646   3.548  12.061 -0.8702 -0.3167  1.1353
 3761TIP3    H232699   6.718   3.435  11.990  1.4291  2.5134 -1.3427
 3762TIP3   OH232700   0.353   3.867  16.839  0.8317  0.3704  0.8143
 3762TIP3    H132701   0.296   3.919  16.896  0.3777  0.8368 -0.0415
 3762TIP3    H232702   0.342   3.906  16.752  0.1244 -1.4432  0.0404
 3763TIP3   OH232703   4.181   5.408   4.333  0.1106 -0.2499  0.4595
 3763TIP3    H132704   4.227   5.492   4.335 -0.3971  0.0230  1.8693
 3763TIP3    H232705   4.234   5.353   4.276  1.7263  0.3093  1.3597
 3764TIP3   OH232706   3.118   4.212   5.762  0.6279  0.1827 -0.7485
 3764TIP3    H132707   3.086   4.163   5.686 -0.2488  0.0703 -0.3216
 3764TIP3    H232708   3.165   4.147   5.815 -0.6010 -0.2532 -0.1417
 3765TIP3   OH232709   5.098   5.470   4.265 -0.1987  0.0398  0.1055
 3765TIP3    H132710   5.120   5.398   4.207  1.3084  0.6075 -0.0744
 3765TIP3    H232711   5.030   5.518   4.218 -0.2278 -0.4842 -0.3998
 3766TIP3   OH232712   5.775   6.730   3.838  0.2154 -0.1312 -0.4615
 3766TIP3    H132713   5.836   6.801   3.818 -2.1162  2.2316  0.2075
 3766TIP3    H232714   5.751   6.694   3.753  1.5556 -0.2632 -0.8056
 3767TIP3   OH232715   1.708   0.146   5.250  0.3967 -0.0799 -0.0647
 3767TIP3    H132716   1.723   0.100   5.333 -0.2063 -0.2895 -0.0728
 3767TIP3    H232717   1.632   0.103   5.211 -0.5858  1.3166  0.2276
 3768TIP3   OH232718   1.225   5.719   1.352  0.6363  0.6508  0.5281
 3768TIP3    H132719   1.150   5.661   1.343  1.5597 -0.4004 -0.8016
 3768TIP3    H232720   1.274   5.685   1.427 -0.8132  2.1093  2.2239
 3769TIP3   OH232721   5.595   3.900  13.909  0.5013 -0.4187  0.1469
 3769TIP3    H132722   5.627   3.882  13.820  0.8318 -0.4762  0.2752
 3769TIP3    H232723   5.615   3.993  13.923 -0.2271 -0.2137 -0.1141
 3770TIP3   OH232724   5.519   0.088  13.547 -0.3950  0.3653  0.1077
 3770TIP3    H132725   5.442   0.134  13.581 -0.5836 -0.1788  0.4271
 3770TIP3    H232726   5.580   0.158  13.524 -0.9388  0.7958 -0.0338
 3771TIP3   OH232727   2.448   3.538   1.321 -0.1299 -0.5845 -0.1513
 3771TIP3    H132728   2.524   3.551   1.264  0.3252 -1.8515  0.1309
 3771TIP3    H232729   2.375   3.574   1.271  0.4129 -0.8020 -1.1295
 3772TIP3   OH232730   4.709   5.090   3.321  0.4511  0.0486  0.1319
 3772TIP3    H132731   4.711   5.176   3.362  0.6313 -0.3409  0.9498
 3772TIP3    H232732   4.646   5.040   3.372 -0.0249 -0.1566 -0.6474
 3773TIP3   OH232733   4.185   1.107   1.561  0.6022 -0.3503 -0.2264
 3773TIP3    H132734   4.278   1.123   1.575  0.6876 -0.0789 -1.0525
 3773TIP3    H232735   4.179   1.015   1.536  1.2592  0.5756 -4.7398
 3774TIP3   OH232736   0.429   5.283   1.609  0.4907  0.3319 -0.2947
 3774TIP3    H132737   0.453   5.205   1.657  0.3616  0.9588  0.8297
 3774TIP3    H232738   0.505   5.304   1.555  0.6018 -0.4337 -0.4375
 3775TIP3   OH232739   4.160   4.131  15.045 -0.2066 -0.0256  0.0085
 3775TIP3    H132740   4.185   4.163  14.958 -0.3543  1.1069  0.3689
 3775TIP3    H232741   4.107   4.054  15.027 -2.2492  1.5180 -1.0248
 3776TIP3   OH232742   3.953   3.026   3.969  0.9113  0.2060  0.1435
 3776TIP3    H132743   4.046   3.008   3.955  0.5344 -0.7094 -1.4324
 3776TIP3    H232744   3.952   3.101   4.029  2.6750  0.9848 -0.7256
 3777TIP3   OH232745   1.672   5.296  16.414 -0.3604  0.2568 -0.7465
 3777TIP3    H132746   1.758   5.311  16.375  0.6669 -1.2024  0.8297
 3777TIP3    H232747   1.628   5.236  16.353  0.3352 -0.2072 -0.7984
 3778TIP3   OH232748   3.734   3.845  15.785  0.2044  0.6992 -0.1340
 3778TIP3    H132749   3.687   3.839  15.701 -1.1783  1.4183  0.5686
 3778TIP3    H232750   3.823   3.816  15.764  0.0618  1.4658 -1.9936
 3779TIP3   OH232751   1.052   0.329  12.988 -0.0570  0.6468 -0.4410
 3779TIP3    H132752   1.138   0.369  12.998  0.0850  0.5818 -1.3525
 3779TIP3    H232753   1.049   0.262  13.057 -0.0605  1.7743  0.6885
 3780TIP3   OH232754   6.334   0.724  15.215 -0.1441 -0.1924 -1.2143
 3780TIP3    H132755   6.316   0.630  15.211  0.0061 -0.4139  1.4547
 3780TIP3    H232756   6.249   0.764  15.236 -0.3508  0.4016 -2.9782
 3781TIP3   OH232757   4.402   1.093  15.541 -0.3067 -0.1068 -0.1751
 3781TIP3    H132758   4.318   1.139  15.532  0.0342  0.4151 -0.7423
 3781TIP3    H232759   4.430   1.077  15.452  0.0471 -0.5716  0.0193
 3782TIP3   OH232760   2.773   6.096  13.806  0.2076  0.3300  0.3410
 3782TIP3    H132761   2.686   6.091  13.766 -0.4550 -1.2039  1.8543
 3782TIP3    H232762   2.765   6.164  13.872 -0.1455 -0.4616  1.1264
 3783TIP3   OH232763   4.343   6.314  16.330 -0.1450  0.0737 -0.3971
 3783TIP3    H132764   4.432   6.348  16.340 -0.6040  0.8335  1.4588
 3783TIP3    H232765   4.347   6.225  16.364 -0.2726  0.4339  0.6038
 3784TIP3   OH232766   1.734   1.483  14.700  0.1785  0.3174  0.4859
 3784TIP3    H132767   1.787   1.497  14.621 -0.6049  0.7218  0.0159
 3784TIP3    H232768   1.795   1.500  14.772  1.5055 -2.1730  0.0615
 3785TIP3   OH232769   6.035   0.625  14.455 -0.4753 -0.1271  0.7497
 3785TIP3    H132770   5.983   0.705  14.457 -0.2598  0.0074  1.1042
 3785TIP3    H232771   6.117   0.648  14.498 -0.1999 -0.3943  0.3797
 3786TIP3   OH232772   0.980   6.691  16.217  0.0973  0.0861 -0.3808
 3786TIP3    H132773   0.909   6.711  16.279 -0.8642 -0.7455 -1.1678
 3786TIP3    H232774   1.053   6.746  16.245 -0.9105  1.0805  0.3737
 3787TIP3   OH232775   4.458   5.835  12.480 -0.1128  0.4683  0.2149
 3787TIP3    H132776   4.436   5.788  12.561 -0.8117  1.4746  0.6303
 3787TIP3    H232777   4.466   5.926  12.507  2.7955  0.4482 -0.2931
 3788TIP3   OH232778   2.980   0.401   2.458  0.3488 -0.3063 -0.0720
 3788TIP3    H132779   2.991   0.434   2.369  0.1509  0.4021  0.1584
 3788TIP3    H232780   3.068   0.404   2.496  0.2926  0.1952  0.0245
 3789TIP3   OH232781   4.361   3.141   5.048  0.3833  0.6061  0.1716
 3789TIP3    H132782   4.307   3.130   4.970 -3.4272 -0.6057  2.6615
 3789TIP3    H232783   4.377   3.052   5.079 -0.4688  1.0416  2.0639
 3790TIP3   OH232784   3.032   3.355  12.335  0.8471 -0.0036  0.4753
 3790TIP3    H132785   3.001   3.382  12.248 -0.2507 -1.3357  0.4137
 3790TIP3    H232786   3.016   3.261  12.338 -0.3402  0.2099  2.6039
 3791TIP3   OH232787   5.873   1.164   1.237  0.5571 -0.8959 -0.3782
 3791TIP3    H132788   5.956   1.181   1.193  0.5532 -1.4341 -0.6015
 3791TIP3    H232789   5.878   1.214   1.319  0.0270  1.2229 -1.5519
 3792TIP3   OH232790   4.778   1.759  13.917 -0.2035 -0.0857  0.0905
 3792TIP3    H132791   4.721   1.791  13.987  0.1299 -1.0631  0.8307
 3792TIP3    H232792   4.833   1.835  13.895  0.5519 -0.0837  1.7820
 3793TIP3   OH232793   3.210   6.411   2.593  0.0058 -0.0169  0.5574
 3793TIP3    H132794   3.272   6.457   2.537  0.2778 -0.3693  0.5659
 3793TIP3    H232795   3.162   6.480   2.638 -1.2766  0.3423 -1.2278
 3794TIP3   OH232796   2.998   5.185  12.379 -0.5079  0.0341  0.2745
 3794TIP3    H132797   2.966   5.232  12.302 -0.6388 -0.5971 -0.0625
 3794TIP3    H232798   3.009   5.253  12.445 -1.6624  0.4012  0.1138
 3795TIP3   OH232799   4.781   2.103   1.911 -0.0050 -0.6046  0.1226
 3795TIP3    H132800   4.762   2.013   1.885  1.9243 -0.8959 -0.4316
 3795TIP3    H232801   4.812   2.096   2.001  0.9709 -0.6465 -0.1965
 3796TIP3   OH232802   3.706   3.032   3.300 -0.5780  0.1858  0.2372
 3796TIP3    H132803   3.730   2.940   3.297  0.1060  0.3841 -1.9285
 3796TIP3    H232804   3.780   3.075   3.344  0.3223  0.0087 -1.0563
 3797TIP3   OH232805   3.100   6.300   6.155  0.0312  0.3973 -0.6983
 3797TIP3    H132806   3.192   6.323   6.173 -0.1811  1.4237 -0.8774
 3797TIP3    H232807   3.061   6.381   6.122 -0.1444 -0.8461 -3.8243
 3798TIP3   OH232808   6.408   4.487  15.921  0.1062 -0.0400 -0.0728
 3798TIP3    H132809   6.315   4.490  15.941 -0.0439  1.0564 -0.8487
 3798TIP3    H232810   6.445   4.428  15.987 -0.8868  0.7591  1.2433
 3799TIP3   OH232811   0.518   0.846  14.321 -0.1974  0.1699 -0.0944
 3799TIP3    H132812   0.463   0.768  14.315  0.5726 -0.3873 -0.2027
 3799TIP3    H232813   0.484   0.905  14.255 -0.0744 -0.5586 -0.8373
 3800TIP3   OH232814   5.301   3.020  12.879 -0.3173  0.2338  0.2801
 3800TIP3    H132815   5.337   3.055  12.798  1.3722  0.3888  1.0574
 3800TIP3    H232816   5.378   3.002  12.933 -1.2655 -2.1084  0.9598
 3801TIP3   OH232817   3.822   0.345   5.406  0.4865 -0.4791  0.1263
 3801TIP3    H132818   3.838   0.391   5.489 -1.1609  1.7005 -0.6575
 3801TIP3    H232819   3.750   0.285   5.425  1.2369 -1.2458  0.6391
 3802TIP3   OH232820   1.158   5.914   0.912  0.3599 -0.5291 -0.0418
 3802TIP3    H132821   1.210   5.852   0.963  0.5866  0.2741  0.7355
 3802TIP3    H232822   1.214   5.991   0.902 -0.2749 -0.0594 -0.1148
 3803TIP3   OH232823   2.037   0.442   2.308 -0.1258  0.0756  0.6497
 3803TIP3    H132824   1.998   0.354   2.312 -0.3174  0.2003  1.9515
 3803TIP3    H232825   2.113   0.432   2.251  0.1918 -1.0779  1.2424
 3804TIP3   OH232826   1.696   5.879   3.145 -0.0931  0.7103 -0.2370
 3804TIP3    H132827   1.783   5.901   3.180 -1.0909  3.0418  1.0364
 3804TIP3    H232828   1.713   5.854   3.054  2.1151 -1.1231  0.5865
 3805TIP3   OH232829   0.102   3.879  13.711  0.0398 -0.5295 -0.0793
 3805TIP3    H132830   0.101   3.926  13.795  0.8711  0.6551 -0.6959
 3805TIP3    H232831   0.112   3.787  13.735  0.9791 -0.1490  1.1281
 3806TIP3   OH232832   1.291   2.887  16.103  0.2955  0.3796  1.3040
 3806TIP3    H132833   1.369   2.836  16.081 -1.5690 -2.7589  1.2732
 3806TIP3    H232834   1.277   2.943  16.027  1.0328 -1.0073  0.0758
 3807TIP3   OH232835   3.098   3.764  16.599  0.0640  0.2050  0.2125
 3807TIP3    H132836   3.127   3.843  16.645  1.4958 -1.6978  2.8994
 3807TIP3    H232837   3.019   3.791  16.553  1.4154  3.5863 -0.4578
 3808TIP3   OH232838   3.603   6.204  10.587 -0.1912  0.1969  0.2620
 3808TIP3    H132839   3.571   6.202  10.497 -1.0081 -3.1518  0.4947
 3808TIP3    H232840   3.532   6.167  10.639  1.7692 -1.9447  1.6419
 3809TIP3   OH232841   1.146   6.464  13.027 -0.1495 -0.6361  0.3349
 3809TIP3    H132842   1.167   6.460  12.934  0.9071 -1.4776  0.5942
 3809TIP3    H232843   1.211   6.523  13.064 -0.4134 -0.4958  0.5775
 3810TIP3   OH232844   6.612   0.316  15.354 -0.3186  0.9996 -0.0385
 3810TIP3    H132845   6.696   0.353  15.327 -0.5811  1.7542  0.1500
 3810TIP3    H232846   6.569   0.292  15.272  0.2998  0.0933 -0.1127
 3811TIP3   OH232847   2.840   1.036  14.383  0.0539  0.6310 -0.0835
 3811TIP3    H132848   2.857   0.961  14.325 -1.9074 -0.4883  0.6954
 3811TIP3    H232849   2.925   1.055  14.424  0.9510 -0.0595 -1.5363
 3812TIP3   OH232850   4.800   4.368  15.108 -0.2034  0.4544 -0.1810
 3812TIP3    H132851   4.791   4.431  15.179  1.6161 -0.6900  1.1531
 3812TIP3    H232852   4.835   4.420  15.035  0.6877  1.1431  0.6966
 3813TIP3   OH232853   0.286   2.989  13.968 -0.3305 -0.5239 -0.1924
 3813TIP3    H132854   0.196   2.987  13.935 -0.5132 -0.1949  0.2755
 3813TIP3    H232855   0.328   3.060  13.920 -0.5952 -0.0463  0.2695
 3814TIP3   OH232856   2.653   6.032  14.241 -0.1509  0.2464  0.6369
 3814TIP3    H132857   2.583   6.020  14.305  0.1837  1.0231  1.1629
 3814TIP3    H232858   2.646   5.956  14.184 -0.7607 -0.2229  1.3127
 3815TIP3   OH232859   5.833   5.012  12.567  0.2361 -0.1076  0.3426
 3815TIP3    H132860   5.903   5.059  12.521 -0.5765  0.1720 -0.6425
 3815TIP3    H232861   5.863   4.922  12.571  1.2672  0.2470  1.1681
 3816TIP3   OH232862   6.516   4.115  11.762 -0.2643 -0.1072  0.2132
 3816TIP3    H132863   6.591   4.174  11.752 -0.9862  0.7718 -0.1479
 3816TIP3    H232864   6.505   4.105  11.857  0.4964 -0.5062  0.2676
 3817TIP3   OH232865   0.216   6.439  11.216 -0.3557 -0.0500 -0.1178
 3817TIP3    H132866   0.285   6.385  11.177 -0.2041 -0.6989  1.0196
 3817TIP3    H232867   0.252   6.468  11.300 -0.5636  1.5782 -0.5532
 3818TIP3   OH232868   2.099   4.420   5.072 -0.3978  0.2464 -0.1479
 3818TIP3    H132869   2.059   4.334   5.064 -0.1150  0.0736  0.2420
 3818TIP3    H232870   2.175   4.417   5.013 -0.3657  0.2150 -0.1048
 3819TIP3   OH232871   1.768   0.447   1.198  0.1148 -0.0600 -0.4106
 3819TIP3    H132872   1.747   0.357   1.223 -2.1828  0.3980 -0.4351
 3819TIP3    H232873   1.735   0.455   1.108  1.0238  0.5909 -0.6990
 3820TIP3   OH232874   6.246   4.569  12.602  0.1065  0.7263  0.1363
 3820TIP3    H132875   6.196   4.526  12.533  0.3082  0.8191 -0.0689
 3820TIP3    H232876   6.182   4.586  12.672  0.1097 -0.2654  0.3861
 3821TIP3   OH232877   0.184   0.675   5.063 -0.2492 -0.1973 -0.3921
 3821TIP3    H132878   0.274   0.705   5.052 -0.4268 -0.0644 -1.5638
 3821TIP3    H232879   0.131   0.755   5.064 -0.3166 -0.2411  0.8380
 3822TIP3   OH232880   5.383   6.739   1.527 -0.2581  0.2060 -0.2870
 3822TIP3    H132881   5.375   6.729   1.622  0.8174 -1.3227 -0.3364
 3822TIP3    H232882   5.298   6.712   1.493 -0.6849  0.8600  0.2378
 3823TIP3   OH232883   6.770   2.776  12.900 -0.1986 -0.2301 -0.5395
 3823TIP3    H132884   6.801   2.862  12.874 -0.3364  0.0938  0.3148
 3823TIP3    H232885   6.712   2.748  12.829  1.3672 -0.5029 -1.7785
 3824TIP3   OH232886   0.601   3.656  15.946 -0.0229 -0.1450 -0.4791
 3824TIP3    H132887   0.597   3.653  15.850 -0.3545 -0.5024 -0.4575
 3824TIP3    H232888   0.678   3.709  15.965 -0.7024  1.0290 -0.9322
 3825TIP3   OH232889   5.827   1.170  16.090 -0.1360 -0.2895  0.0129
 3825TIP3    H132890   5.913   1.164  16.132  0.9332  0.3205 -1.9554
 3825TIP3    H232891   5.821   1.091  16.037 -0.0782  0.3710 -1.0262
 3826TIP3   OH232892   3.526   3.898  11.524 -0.2279  0.0403  0.0345
 3826TIP3    H132893   3.619   3.896  11.500 -0.1076  0.3539  0.4653
 3826TIP3    H232894   3.482   3.852  11.452  0.3209 -0.6434  0.1262
 3827TIP3   OH232895   5.942   2.551   5.475  0.0559 -0.4341 -0.4679
 3827TIP3    H132896   5.900   2.633   5.448  0.7582 -0.2946 -1.1593
 3827TIP3    H232897   5.902   2.531   5.560 -0.5718  0.2950 -0.5798
 3828TIP3   OH232898   5.381   3.521  17.071 -0.1106  0.1675  0.2504
 3828TIP3    H132899   5.389   3.610  17.104 -0.2781 -0.1071  1.0433
 3828TIP3    H232900   5.471   3.488  17.070  0.1637  0.8387 -1.5056
 3829TIP3   OH232901   4.413   0.681   5.464 -0.2210  0.2164  0.3653
 3829TIP3    H132902   4.392   0.659   5.555 -1.1503 -0.0282  0.1029
 3829TIP3    H232903   4.506   0.663   5.456 -0.0756  0.4546  1.3321
 3830TIP3   OH232904   4.678   5.819   4.941 -0.1823 -0.3487 -0.4027
 3830TIP3    H132905   4.587   5.842   4.923 -0.6386 -1.5402  0.2905
 3830TIP3    H232906   4.679   5.724   4.946  0.7096 -0.2961  1.4919
 3831TIP3   OH232907   6.228   5.292  16.690 -0.0468 -0.0598 -0.1054
 3831TIP3    H132908   6.291   5.340  16.744  0.3002 -0.0786 -0.4847
 3831TIP3    H232909   6.270   5.287  16.604 -2.6501  4.4364 -2.0134
 3832TIP3   OH232910   6.168   1.791  10.347 -0.1961  0.2598  0.1989
 3832TIP3    H132911   6.088   1.820  10.304 -0.3527  0.2470  0.4822
 3832TIP3    H232912   6.153   1.699  10.368  0.4622 -0.1625 -1.0792
 3833TIP3   OH232913   0.350   2.869   4.065 -1.2786 -0.2823 -0.2252
 3833TIP3    H132914   0.370   2.949   4.016  0.7248 -0.1898  0.6499
 3833TIP3    H232915   0.296   2.898   4.138 -1.3798  0.1124 -0.4553
 3834TIP3   OH232916   2.055   3.456   1.603  1.1155 -0.3764 -0.5388
 3834TIP3    H132917   2.114   3.385   1.576  0.4192 -1.3097  0.3224
 3834TIP3    H232918   2.101   3.500   1.674  0.5312 -1.5275  0.5957
 3835TIP3   OH232919   3.360   3.345  12.703  0.1492  0.0549  0.3750
 3835TIP3    H132920   3.444   3.376  12.668 -0.8533  3.1624  0.4608
 3835TIP3    H232921   3.316   3.304  12.629  0.8410  0.3881 -0.2279
 3836TIP3   OH232922   6.796   3.782   0.925 -0.4432  0.1461 -0.1179
 3836TIP3    H132923   6.787   3.768   1.019 -1.3422  2.1826  0.1476
 3836TIP3    H232924   6.776   3.696   0.886 -0.5943 -0.5907  1.5070
 3837TIP3   OH232925   4.122   0.072  13.615  0.3185  0.3122 -0.0703
 3837TIP3    H132926   4.095   0.164  13.624 -1.9425 -0.4839  2.4971
 3837TIP3    H232927   4.108   0.052  13.522 -1.3891  1.9414 -0.2336
 3838TIP3   OH232928   1.232   3.732  11.167  0.2726 -0.6871  0.0343
 3838TIP3    H132929   1.240   3.769  11.255  2.5895 -0.8003 -0.0763
 3838TIP3    H232930   1.251   3.806  11.109 -0.6858 -0.7504 -0.3645
 3839TIP3   OH232931   2.225   1.961   3.775 -0.8740  0.3563 -0.3045
 3839TIP3    H132932   2.252   2.048   3.806  0.8494 -0.4581  0.6130
 3839TIP3    H232933   2.271   1.950   3.692 -2.2212  0.8492 -1.1599
 3840TIP3   OH232934   0.794   6.515  15.093  0.0645  0.0021 -0.4238
 3840TIP3    H132935   0.752   6.566  15.024 -0.9516  0.6557  0.6505
 3840TIP3    H232936   0.747   6.432  15.093  0.5443 -0.2824 -0.9750
 3841TIP3   OH232937   4.295   5.500  16.279 -0.0127  0.2056  0.1680
 3841TIP3    H132938   4.323   5.417  16.317  2.0225  0.4201 -0.6881
 3841TIP3    H232939   4.279   5.557  16.354  1.8891  0.0108  0.7822
 3842TIP3   OH232940   0.926   2.876   2.461 -0.2745  0.2648 -0.5934
 3842TIP3    H132941   0.976   2.910   2.387  1.6304  2.2934  1.4834
 3842TIP3    H232942   0.976   2.800   2.491 -0.4902  0.0550 -0.7621
 3843TIP3   OH232943   4.053   2.529  16.836 -0.5143 -0.1416 -0.1840
 3843TIP3    H132944   4.122   2.526  16.902 -1.1372 -0.5216  0.4661
 3843TIP3    H232945   4.099   2.538  16.753  0.2111  2.7473  0.4461
 3844TIP3   OH232946   0.477   2.887   1.119  0.0432  0.0338 -0.0402
 3844TIP3    H132947   0.453   2.819   1.182  1.3916  0.8694  1.4492
 3844TIP3    H232948   0.555   2.853   1.074 -0.1239 -0.0011 -0.3054
 3845TIP3   OH232949   4.377   1.391   1.411 -0.5266 -0.1220 -0.2119
 3845TIP3    H132950   4.452   1.350   1.368 -1.6738 -1.6381 -0.8683
 3845TIP3    H232951   4.391   1.485   1.399  1.2909 -0.3667 -0.2279
 3846TIP3   OH232952   0.541   1.914  16.005  0.4488 -0.9381  0.1254
 3846TIP3    H132953   0.593   1.989  16.035  0.5147 -0.2280 -1.6032
 3846TIP3    H232954   0.569   1.901  15.914 -0.6474 -2.1104 -0.0680
 3847TIP3   OH232955   2.081   0.845   4.291  0.3593 -0.1524  0.0931
 3847TIP3    H132956   2.133   0.798   4.356 -1.2489  0.4552  1.9336
 3847TIP3    H232957   2.004   0.790   4.278  0.2283  0.1890 -0.6216
 3848TIP3   OH232958   5.111   2.578   3.078 -0.1431 -0.0067  0.1484
 3848TIP3    H132959   5.158   2.497   3.058 -1.3029 -1.2062  1.9794
 3848TIP3    H232960   5.148   2.607   3.161 -0.1838  1.0302 -0.1810
 3849TIP3   OH232961   1.026   2.699   5.350 -0.3190 -0.3730  0.3098
 3849TIP3    H132962   1.015   2.665   5.439 -1.7060 -0.2006  0.2340
 3849TIP3    H232963   1.094   2.644   5.312 -1.0124 -1.6931  0.8880
 3850TIP3   OH232964   1.241   5.493  11.635 -0.2787 -0.0038 -0.1972
 3850TIP3    H132965   1.241   5.577  11.590 -0.7471  0.1383  0.0678
 3850TIP3    H232966   1.309   5.442  11.590 -1.8741 -0.4909 -2.2296
 3851TIP3   OH232967   1.587   3.801  12.328  0.1764 -0.4471  0.3532
 3851TIP3    H132968   1.668   3.851  12.334 -0.5489  0.6361  1.4841
 3851TIP3    H232969   1.582   3.774  12.236  1.9570 -0.8077  0.3245
 3852TIP3   OH232970   3.608   2.399  14.867  0.0757 -0.0174  0.6144
 3852TIP3    H132971   3.626   2.383  14.960 -1.7100  1.0518  1.1968
 3852TIP3    H232972   3.616   2.494  14.856 -1.1239  0.0476  0.0411
 3853TIP3   OH232973   2.089   3.601   4.480 -0.6439  0.9001 -0.1929
 3853TIP3    H132974   2.115   3.641   4.564 -3.0645  0.4355  0.8512
 3853TIP3    H232975   2.033   3.666   4.439 -0.0335  0.8337 -1.1651
 3854TIP3   OH232976   6.435   0.705  13.441  0.4183 -0.3596  0.1438
 3854TIP3    H132977   6.349   0.691  13.480 -0.4031  0.3493 -1.3126
 3854TIP3    H232978   6.451   0.799  13.451  0.7844 -0.3998 -0.0486
 3855TIP3   OH232979   2.756   0.351   1.751  0.6641  0.1234  0.6706
 3855TIP3    H132980   2.797   0.366   1.836 -1.0244 -0.2480  1.5989
 3855TIP3    H232981   2.786   0.265   1.724  1.6750  0.4870  0.5852
 3856TIP3   OH232982   2.320   3.730  12.344  0.1029  0.1525 -0.3599
 3856TIP3    H132983   2.320   3.654  12.403 -0.3267  0.0417 -0.4962
 3856TIP3    H232984   2.276   3.799  12.393 -0.9502 -0.1696 -0.8276
 3857TIP3   OH232985   2.749   2.317  12.328 -0.1411  0.4010 -0.2651
 3857TIP3    H132986   2.820   2.334  12.266 -0.0216  0.5421 -0.0898
 3857TIP3    H232987   2.696   2.249  12.285 -0.3761  0.8969 -0.7695
 3858TIP3   OH232988   6.262   4.941  13.574 -0.6591  0.0605  0.2610
 3858TIP3    H132989   6.263   5.017  13.516 -1.2679 -0.2999 -0.2460
 3858TIP3    H232990   6.176   4.901  13.559 -1.2744  0.5342  2.1898
 3859TIP3   OH232991   1.859   4.029  12.694 -0.4251 -0.5051 -0.0684
 3859TIP3    H132992   1.802   3.997  12.764 -1.4927  0.1649 -0.6028
 3859TIP3    H232993   1.895   4.111  12.727 -0.7198 -0.3259 -0.1803
 3860TIP3   OH232994   3.360   5.845  16.746 -0.4726  0.2711  0.0736
 3860TIP3    H132995   3.287   5.906  16.735  1.7081  2.8415 -1.0953
 3860TIP3    H232996   3.383   5.852  16.839 -1.3139 -0.1874  0.3375
 3861TIP3   OH232997   3.338   5.974  15.174 -0.4589 -0.1124 -0.2175
 3861TIP3    H132998   3.330   5.980  15.269  0.7946 -0.9434 -0.0393
 3861TIP3    H232999   3.248   5.979  15.142 -1.0702 -1.7471  1.1248
 3862TIP3   OH233000   1.001   0.516  12.269  0.7279  0.2489  0.2971
 3862TIP3    H133001   1.026   0.498  12.360  0.4194  0.6525  0.4667
 3862TIP3    H233002   0.920   0.468  12.257  1.1820 -0.4473 -0.0159
 3863TIP3   OH233003   1.090   4.157  16.709  0.0329 -0.0534  0.0108
 3863TIP3    H133004   1.184   4.175  16.702  0.4027 -1.4088  1.0558
 3863TIP3    H233005   1.053   4.238  16.745  0.3718  1.4145 -2.7098
 3864TIP3   OH233006   6.336   3.491  12.906  0.7842  0.3448  0.1432
 3864TIP3    H133007   6.394   3.491  12.983 -1.0865  1.3200  1.6572
 3864TIP3    H233008   6.275   3.420  12.923 -0.7965  1.7314  0.5637
 3865TIP3   OH233009   5.758   2.345  11.725  0.2043  0.2789 -0.0811
 3865TIP3    H133010   5.702   2.417  11.755  1.7017  1.0426  1.0157
 3865TIP3    H233011   5.709   2.266  11.746 -0.7284  0.9387  0.2935
 3866TIP3   OH233012   6.595   3.047   1.630  0.4279 -0.3737 -0.3769
 3866TIP3    H133013   6.520   3.095   1.595  0.8192  0.6748  0.1946
 3866TIP3    H233014   6.643   3.111   1.683  1.4983 -1.1307 -0.3857
 3867TIP3   OH233015   5.802   1.426  16.753 -0.3224 -0.0551  0.1661
 3867TIP3    H133016   5.870   1.441  16.687 -1.5580  0.2757 -1.0934
 3867TIP3    H233017   5.807   1.332  16.771  1.5238  0.2326  1.3372
 3868TIP3   OH233018   4.321   4.866   2.531  0.2541  0.1904 -0.3735
 3868TIP3    H133019   4.327   4.914   2.449  0.8445  1.7072  0.5139
 3868TIP3    H233020   4.240   4.896   2.572 -0.3042 -0.9373 -0.5962
 3869TIP3   OH233021   6.133   2.513  12.402 -0.2935  0.1003 -0.2815
 3869TIP3    H133022   6.103   2.427  12.372 -0.2850  0.0469 -0.1368
 3869TIP3    H233023   6.127   2.568  12.324 -1.0668  0.1718 -0.1847
 3870TIP3   OH233024   6.527   2.221  11.804 -0.0076 -0.5118 -0.9034
 3870TIP3    H133025   6.531   2.294  11.867 -2.2054  0.6358 -1.9725
 3870TIP3    H233026   6.509   2.145  11.859  1.5755 -0.1721  0.1702
 3871TIP3   OH233027   5.819   6.608  16.461 -0.4828  0.4047  0.0563
 3871TIP3    H133028   5.808   6.697  16.494 -0.9265  0.9326 -1.4228
 3871TIP3    H233029   5.872   6.618  16.382 -0.3529 -0.6729 -0.0083
 3872TIP3   OH233030   5.284   0.850  15.344 -0.3496  0.1397 -0.0381
 3872TIP3    H133031   5.300   0.944  15.338 -2.0669  0.4496 -0.1337
 3872TIP3    H233032   5.196   0.842  15.381  0.3713 -1.4609  1.4880
 3873TIP3   OH233033   3.397   2.014   2.679  0.1476 -0.1254  0.6813
 3873TIP3    H133034   3.376   1.976   2.764  0.1940  0.2958  0.8896
 3873TIP3    H233035   3.441   1.944   2.631  0.3902 -0.2762  1.1180
 3874TIP3   OH233036   2.413   2.185  11.897  0.2858 -0.0756  0.3175
 3874TIP3    H133037   2.388   2.205  11.987  0.0968 -1.9674  0.7199
 3874TIP3    H233038   2.334   2.150  11.857  0.8838 -1.1684  0.0433
 3875TIP3   OH233039   1.850   4.467  11.924 -0.5666  0.9881 -0.2230
 3875TIP3    H133040   1.775   4.517  11.955  0.1250  1.5335  0.6079
 3875TIP3    H233041   1.837   4.379  11.959 -0.2194  1.3839  0.9495
 3876TIP3   OH233042   2.661   6.405   4.287 -0.0676 -0.7446 -0.2938
 3876TIP3    H133043   2.735   6.372   4.340  0.6684  0.0354 -0.8082
 3876TIP3    H233044   2.605   6.449   4.351  0.4733 -0.3934 -0.0455
 3877TIP3   OH233045   2.793   6.166  12.182  0.4896 -0.2434 -0.5637
 3877TIP3    H133046   2.764   6.222  12.110 -1.1010 -1.6678 -1.1053
 3877TIP3    H233047   2.779   6.077  12.150  0.9742 -0.9384  1.0433
 3878TIP3   OH233048   4.399   3.547  12.234 -0.3685  0.2343  0.0449
 3878TIP3    H133049   4.493   3.539  12.255 -0.2989  0.9589  0.0265
 3878TIP3    H233050   4.393   3.519  12.143  0.3622  3.1716 -1.0208
 3879TIP3   OH233051   4.174   3.253  13.812 -0.3838  0.3077 -0.1063
 3879TIP3    H133052   4.185   3.158  13.819 -1.0496  0.3240  1.4080
 3879TIP3    H233053   4.088   3.270  13.850 -0.7729  1.4138 -1.3980
 3880TIP3   OH233054   0.829   5.631   5.378  0.0656 -0.2019 -0.4137
 3880TIP3    H133055   0.879   5.663   5.303 -1.6819 -2.7018 -2.8379
 3880TIP3    H233056   0.867   5.545   5.397  0.1354  0.1752  1.2842
 3881TIP3   OH233057   2.551   0.664   3.732 -0.0214 -0.2096  0.9791
 3881TIP3    H133058   2.457   0.663   3.751  0.1200 -0.2894  1.7093
 3881TIP3    H233059   2.559   0.623   3.646 -0.7823  0.9450  0.3166
 3882TIP3   OH233060   3.978   5.298  14.386  0.0003  0.2700 -0.0739
 3882TIP3    H133061   3.973   5.214  14.430  0.1362 -0.5199 -1.5178
 3882TIP3    H233062   4.023   5.355  14.449 -0.5804 -0.5615  1.1372
 3883TIP3   OH233063   1.311   6.423   5.740 -0.6852 -0.0902 -0.0718
 3883TIP3    H133064   1.323   6.394   5.649 -3.5261  0.3706 -0.6832
 3883TIP3    H233065   1.366   6.501   5.747 -0.2631 -0.2440 -1.3102
 3884TIP3   OH233066   5.173   2.315   6.126  0.3389  0.2730  0.6851
 3884TIP3    H133067   5.089   2.334   6.086 -0.5367 -2.6048  0.9481
 3884TIP3    H233068   5.189   2.390   6.184 -0.5628  2.2735 -1.4933
 3885TIP3   OH233069   4.757   0.562  14.740 -0.5463 -0.6924 -0.0113
 3885TIP3    H133070   4.732   0.501  14.810 -0.5054 -1.4261 -0.6260
 3885TIP3    H233071   4.757   0.509  14.661 -0.7403  0.1663 -0.6000
 3886TIP3   OH233072   6.171   3.787   0.698 -0.1929  0.3188  0.9076
 3886TIP3    H133073   6.240   3.846   0.667 -1.9910  2.3673  0.5606
 3886TIP3    H233074   6.130   3.833   0.770 -1.5958 -0.5626  0.7198
 3887TIP3   OH233075   2.079   0.747   5.893 -0.5164  0.2696  0.3418
 3887TIP3    H133076   2.129   0.674   5.930 -0.4282  0.4746  0.6348
 3887TIP3    H233077   2.145   0.811   5.868 -0.5904  0.2187  0.0199
 3888TIP3   OH233078   3.987   4.688  12.670 -0.2144 -0.1715  0.0967
 3888TIP3    H133079   3.943   4.764  12.631  0.5432  0.1115 -0.2334
 3888TIP3    H233080   4.081   4.709  12.664  0.0138 -1.1875 -0.1258
 3889TIP3   OH233081   1.763   1.301   0.496  0.1174 -0.5042 -0.4564
 3889TIP3    H133082   1.705   1.303   0.571  0.9616 -3.7775  0.4729
 3889TIP3    H233083   1.705   1.298   0.420 -0.7834  0.7125  0.1593
 3890TIP3   OH233084   6.667   2.788   0.919  0.0947 -0.0372 -0.6057
 3890TIP3    H133085   6.749   2.753   0.885  0.6236  0.4794  0.0944
 3890TIP3    H233086   6.692   2.828   1.002 -0.5782  1.5365 -1.1381
 3891TIP3   OH233087   0.887   1.725  10.932  0.0198 -0.0495  0.0537
 3891TIP3    H133088   0.891   1.709  11.026 -0.6672 -0.8381 -0.0343
 3891TIP3    H233089   0.944   1.658  10.894 -0.0602 -0.0211 -0.1155
 3892TIP3   OH233090   0.383   0.405  13.201  0.4493 -0.2484  0.2424
 3892TIP3    H133091   0.290   0.386  13.208  0.4401 -0.5353 -0.5414
 3892TIP3    H233092   0.416   0.398  13.291 -0.5638  1.3975  0.7876
 3893TIP3   OH233093   0.292   3.803  13.363  0.7017 -0.2546 -0.0283
 3893TIP3    H133094   0.334   3.728  13.320  1.2470  0.5031 -0.8544
 3893TIP3    H233095   0.361   3.869  13.369  0.1464  0.2960  0.4121
 3894TIP3   OH233096   0.827   0.114   5.488  0.4823  0.1323 -0.2112
 3894TIP3    H133097   0.852   0.027   5.520 -0.5124 -0.9753 -2.2401
 3894TIP3    H233098   0.732   0.118   5.502  0.2956  0.2864 -1.4265
 3895TIP3   OH233099   1.944   3.812   5.959 -0.0322 -0.3227 -0.0586
 3895TIP3    H133100   1.853   3.825   5.985 -0.1967 -0.3169 -0.6372
 3895TIP3    H233101   1.995   3.848   6.032 -0.4366 -3.3236  1.9140
 3896TIP3   OH233102   5.491   5.754  15.054  0.0065 -0.0476  0.4425
 3896TIP3    H133103   5.440   5.751  15.134  0.5896  0.1277  0.8295
 3896TIP3    H233104   5.544   5.674  15.056  0.5856  0.3297  0.6233
 3897TIP3   OH233105   5.624   3.238   3.266 -0.1141  0.3547 -0.0842
 3897TIP3    H133106   5.696   3.198   3.314  0.4143  1.1778 -0.1775
 3897TIP3    H233107   5.621   3.328   3.298 -0.0716  0.7762 -1.2369
 3898TIP3   OH233108   0.420   0.421   5.329 -0.3516  0.2352  0.1543
 3898TIP3    H133109   0.344   0.440   5.274  0.4619  1.7760 -0.5030
 3898TIP3    H233110   0.451   0.508   5.356  0.8240 -0.3983  0.8939
 3899TIP3   OH233111   1.670   1.379   3.669 -0.2697 -0.8085  0.3069
 3899TIP3    H133112   1.662   1.457   3.614  0.7533 -0.7767  0.1733
 3899TIP3    H233113   1.605   1.391   3.738  0.1483  0.3841  0.5244
 3900TIP3   OH233114   5.670   4.555   2.498  0.2332  0.7639 -0.0437
 3900TIP3    H133115   5.731   4.626   2.479  1.0100 -0.1235 -0.9969
 3900TIP3    H233116   5.590   4.599   2.528  0.6048  2.0367 -0.8387
 3901TIP3   OH233117   5.676   3.652  11.445  0.5684 -0.3808  0.7122
 3901TIP3    H133118   5.675   3.584  11.513 -0.3452 -0.1786  0.9175
 3901TIP3    H233119   5.705   3.731  11.491  0.2815 -0.3222  0.7963
 3902TIP3   OH233120   5.298   2.184   1.102  0.4327 -0.1690  0.2298
 3902TIP3    H133121   5.275   2.246   1.032 -0.9451 -1.3941 -0.4557
 3902TIP3    H233122   5.392   2.198   1.117  0.3101  1.5928 -0.3624
 3903TIP3   OH233123   3.079   3.091  17.016 -0.0510 -0.0944 -0.0244
 3903TIP3    H133124   3.056   3.015  16.964  0.6119 -1.5106  1.6710
 3903TIP3    H233125   3.167   3.115  16.987  0.1359 -0.5950  0.1298
 3904TIP3   OH233126   6.004   5.358   1.886  0.3018 -0.2469  0.0029
 3904TIP3    H133127   6.039   5.383   1.800  0.6615 -1.6537 -0.2918
 3904TIP3    H233128   6.074   5.376   1.947  0.5857 -0.6104 -0.2131
 3905TIP3   OH233129   2.056   0.718   0.021  0.4905  0.4797  0.0286
 3905TIP3    H133130   2.105   0.700  -0.059  1.3577 -0.2304  0.7053
 3905TIP3    H233131   2.118   0.764   0.078  0.1028  0.3527  0.5634
 3906TIP3   OH233132   1.101   0.199  12.322  0.2833  0.4387 -0.5021
 3906TIP3    H133133   1.023   0.232  12.366  2.0818  1.3409  2.3480
 3906TIP3    H233134   1.172   0.219  12.384  2.6467 -1.0596 -2.5791
 3907TIP3   OH233135   6.795   5.692  13.549  0.1439  0.1798 -0.4086
 3907TIP3    H133136   6.717   5.663  13.598  0.2253 -0.1276 -0.4612
 3907TIP3    H233137   6.760   5.749  13.481  0.1649  2.0752  1.0872
 3908TIP3   OH233138   4.191   6.113   1.029 -0.2462  0.1142  0.1823
 3908TIP3    H133139   4.176   6.143   1.118  0.5861  3.1114 -0.5742
 3908TIP3    H233140   4.274   6.066   1.033 -0.1119  0.4062  0.9539
 3909TIP3   OH233141   2.354   0.131  16.009  0.0447  0.0032 -0.5911
 3909TIP3    H133142   2.362   0.059  16.071  1.6831  1.3565  0.8619
 3909TIP3    H233143   2.441   0.138  15.970 -0.0769  1.2383 -0.6555
 3910TIP3   OH233144   6.648   2.986  11.438  0.1930  0.5426 -0.3192
 3910TIP3    H133145   6.602   2.944  11.365  0.6494 -1.6393  0.5773
 3910TIP3    H233146   6.580   3.039  11.482 -0.5361  0.3634 -1.2062
 3911TIP3   OH233147   1.703   4.285  13.916 -0.0560  0.1278 -0.4721
 3911TIP3    H133148   1.731   4.363  13.867  1.3099  0.2394  0.4198
 3911TIP3    H233149   1.641   4.241  13.858 -0.9004  1.8943 -0.9768
 3912TIP3   OH233150   5.376   5.393   5.937  0.2426 -0.0893 -0.0857
 3912TIP3    H133151   5.391   5.309   5.892  0.7552 -0.2581  0.3840
 3912TIP3    H233152   5.463   5.434   5.940  0.0180  0.4016 -0.1907
 3913TIP3   OH233153   4.858   2.744   0.196 -0.1982 -0.1627  0.0923
 3913TIP3    H133154   4.793   2.813   0.209  0.9537  0.6724  1.7862
 3913TIP3    H233155   4.930   2.786   0.149 -0.1684 -0.6401 -0.3006
 3914TIP3   OH233156   0.145   5.005   0.464 -0.4912  0.3862  0.6906
 3914TIP3    H133157   0.187   4.979   0.546 -1.3419  1.5871  1.5329
 3914TIP3    H233158   0.218   5.014   0.402  0.1829 -0.2964  1.3564
 3915TIP3   OH233159   2.519   3.700  13.056 -0.3288 -0.7706  0.0210
 3915TIP3    H133160   2.439   3.716  13.005  1.9254  2.2160 -3.0435
 3915TIP3    H233161   2.564   3.630  13.007 -0.1794 -1.0965  0.6188
 3916TIP3   OH233162   2.957   1.354   5.346 -1.0232 -0.2868 -0.2340
 3916TIP3    H133163   2.916   1.437   5.324  1.6959  0.7921 -1.7853
 3916TIP3    H233164   2.957   1.351   5.441 -1.6232  1.2511 -0.1652
 3917TIP3   OH233165   2.325   3.755   3.270  0.5971 -0.0147  0.4439
 3917TIP3    H133166   2.246   3.793   3.309  0.8705  0.1626  0.8296
 3917TIP3    H233167   2.390   3.825   3.273  0.1469  0.6074 -1.9350
 3918TIP3   OH233168   3.016   6.159  13.579 -0.1187 -0.6699 -0.8909
 3918TIP3    H133169   3.061   6.148  13.663 -2.4741 -0.5476  0.4999
 3918TIP3    H233170   2.923   6.151  13.601 -0.8367 -0.3875 -3.4801
 3919TIP3   OH233171   5.070   3.762   3.794 -0.0274  0.2525  0.1650
 3919TIP3    H133172   5.020   3.841   3.812  0.0426  0.0867  1.1002
 3919TIP3    H233173   5.071   3.756   3.698 -1.0621  0.7260  0.1122
 3920TIP3   OH233174   3.760   2.502   5.738  0.6647 -0.5147  0.8163
 3920TIP3    H133175   3.748   2.581   5.790 -0.6502  1.0063 -1.6095
 3920TIP3    H233176   3.854   2.483   5.745  0.9687  1.1377  1.6215
 3921TIP3   OH233177   4.465   5.412  11.469  0.5882  0.1106  0.3107
 3921TIP3    H133178   4.414   5.342  11.509  0.3512  0.1203  0.0268
 3921TIP3    H233179   4.442   5.490  11.519  0.2089  0.1431  0.0825
 3922TIP3   OH233180   3.102   6.078  10.754 -0.2421 -0.0183  0.3560
 3922TIP3    H133181   3.049   6.146  10.795 -0.2021  0.2657 -0.0647
 3922TIP3    H233182   3.071   6.074  10.664  1.5461  1.2818 -0.3572
 3923TIP3   OH233183   6.272   6.621  15.682  0.1670 -0.0173  0.2565
 3923TIP3    H133184   6.348   6.625  15.741 -0.0195 -0.4609  0.5351
 3923TIP3    H233185   6.236   6.709  15.683  0.5043  0.1206  0.3598
 3924TIP3   OH233186   6.803   5.464   1.570  0.0343  0.1404  0.3941
 3924TIP3    H133187   6.875   5.414   1.531 -0.9657 -0.9832 -0.0799
 3924TIP3    H233188   6.729   5.402   1.572 -1.6712  1.9498 -1.4786
 3925TIP3   OH233189   1.855   2.644  13.515 -0.3001  0.2992 -0.2725
 3925TIP3    H133190   1.800   2.686  13.581 -0.4652 -0.5061  0.1116
 3925TIP3    H233191   1.803   2.572  13.482  0.8947 -1.1827  0.8986
 3926TIP3   OH233192   3.891   4.462   0.767 -0.6522  0.3662  0.0250
 3926TIP3    H133193   3.860   4.531   0.709  1.1785  0.1139 -1.3790
 3926TIP3    H233194   3.934   4.508   0.839 -1.2425  0.6738  0.1892
 3927TIP3   OH233195   3.960   2.518  16.487 -0.3847 -0.0204 -0.2021
 3927TIP3    H133196   3.929   2.594  16.437 -0.3656  1.3856  1.8322
 3927TIP3    H233197   4.032   2.552  16.540  1.2924 -2.0499 -1.0063
 3928TIP3   OH233198   3.720   2.304   6.214 -0.1198 -0.1738 -0.0654
 3928TIP3    H133199   3.806   2.262   6.205 -0.3762 -0.6370 -0.4021
 3928TIP3    H233200   3.658   2.231   6.218 -0.3489  0.0827  2.1151
 3929TIP3   OH233201   0.249   1.442   4.007  0.6775 -0.8676  0.2665
 3929TIP3    H133202   0.326   1.444   4.064  0.5846 -1.5890  0.4345
 3929TIP3    H233203   0.219   1.351   4.011  0.6895 -0.9458 -0.9640
 3930TIP3   OH233204   5.553   6.323  11.286  1.1246 -0.5646 -0.1106
 3930TIP3    H133205   5.559   6.230  11.265  2.4108 -0.7176  0.8545
 3930TIP3    H233206   5.545   6.326  11.381  0.0736  0.2858 -0.2124
 3931TIP3   OH233207   4.024   4.413  11.873 -0.1252 -0.1791 -0.3892
 3931TIP3    H133208   4.091   4.384  11.934  0.4792  0.1658 -0.8808
 3931TIP3    H233209   3.942   4.403  11.921  0.3541  0.2621  0.5483
 3932TIP3   OH233210   5.733   4.844   4.396  0.1239 -0.2063 -0.0512
 3932TIP3    H133211   5.761   4.814   4.483  1.1931 -1.5008 -0.7962
 3932TIP3    H233212   5.756   4.937   4.394  0.3109 -0.2150  0.9669
 3933TIP3   OH233213   4.549   6.183  15.862  0.1871  0.2337  0.8304
 3933TIP3    H133214   4.537   6.151  15.773 -3.2345 -1.5747  1.7603
 3933TIP3    H233215   4.506   6.268  15.863  0.8426  0.5719  0.6122
 3934TIP3   OH233216   2.272   2.336  14.984 -0.5481 -0.1626 -0.0979
 3934TIP3    H133217   2.243   2.417  15.027 -1.2418 -0.7296  0.5271
 3934TIP3    H233218   2.297   2.278  15.056  0.3070 -0.3756 -0.5606
 3935TIP3   OH233219   1.459   2.919   0.101 -0.0115 -0.2139 -0.7148
 3935TIP3    H133220   1.553   2.934   0.098 -0.0229  0.2823  0.7776
 3935TIP3    H233221   1.445   2.870   0.182 -1.2610  1.7051  0.3123
 3936TIP3   OH233222   2.491   6.243  16.470 -0.5098 -0.2850  0.0392
 3936TIP3    H133223   2.551   6.200  16.532 -0.5432 -0.4626 -0.0517
 3936TIP3    H233224   2.440   6.303  16.525  0.0156  0.1568  0.0550
 3937TIP3   OH233225   6.285   4.632  15.468 -0.1014 -0.7553 -0.6276
 3937TIP3    H133226   6.340   4.558  15.493 -1.8508 -2.1516 -0.7052
 3937TIP3    H233227   6.232   4.650  15.545  0.2749  0.4385 -0.6189
 3938TIP3   OH233228   2.439   5.573  15.157  0.6378  0.7744 -0.2926
 3938TIP3    H133229   2.408   5.527  15.235 -0.3396  1.1358 -0.4524
 3938TIP3    H233230   2.505   5.634  15.190 -0.4147  1.5795  0.4108
 3939TIP3   OH233231   4.229   3.545  12.915 -0.4260  0.2821 -0.5329
 3939TIP3    H133232   4.216   3.472  12.975  2.1968  0.4673  0.3520
 3939TIP3    H233233   4.209   3.508  12.829 -1.5583 -0.7592  0.1467
 3940TIP3   OH233234   1.241   6.107   6.468  0.1057  0.1122 -0.1851
 3940TIP3    H133235   1.167   6.153   6.508 -0.6288 -0.1665 -1.1578
 3940TIP3    H233236   1.305   6.176   6.450  0.5578  0.2078  1.6249
 3941TIP3   OH233237   2.842   3.044  13.600  0.2612  0.2760  0.0545
 3941TIP3    H133238   2.858   2.999  13.683  0.3801 -1.0502 -0.6442
 3941TIP3    H233239   2.763   3.001  13.565  0.2223  0.8058 -0.5190
 3942TIP3   OH233240   0.618   6.539   0.994 -0.4844  0.5822 -0.1542
 3942TIP3    H133241   0.565   6.469   1.032  0.9824 -1.5085 -1.7476
 3942TIP3    H233242   0.707   6.522   1.026  0.2075  0.6402 -1.9217
 3943TIP3   OH233243   3.443   2.678   2.606  0.1600  0.8000  0.5886
 3943TIP3    H133244   3.386   2.602   2.613 -0.7747  1.3707 -0.6191
 3943TIP3    H233245   3.504   2.669   2.680  0.3293 -1.3191  0.2447
 3944TIP3   OH233246   4.674   5.017  10.782  0.3308  0.4668  0.2746
 3944TIP3    H133247   4.641   5.093  10.828 -2.4042  0.3281 -1.2163
 3944TIP3    H233248   4.618   4.945  10.812 -1.0085  0.2317 -2.4782
 3945TIP3   OH233249   5.372   5.689   4.934 -0.3224 -0.0936  0.4937
 3945TIP3    H133250   5.421   5.678   4.853  0.5683  0.9455  0.8595
 3945TIP3    H233251   5.295   5.634   4.924  0.4015 -0.9451 -0.5360
 3946TIP3   OH233252   1.686   5.527  11.601 -0.1807 -0.2434 -0.7025
 3946TIP3    H133253   1.706   5.549  11.692 -0.8494 -1.0088 -0.3527
 3946TIP3    H233254   1.752   5.463  11.576  0.0682  0.0484 -0.7876
 3947TIP3   OH233255   2.799   3.632   3.418  0.0100 -0.1406  0.4622
 3947TIP3    H133256   2.765   3.626   3.507 -0.6631  0.0205  0.2207
 3947TIP3    H233257   2.723   3.616   3.362  0.1292  1.0618 -0.0930
 3948TIP3   OH233258   4.082   3.260   4.750  0.2409  0.9177 -0.1482
 3948TIP3    H133259   4.012   3.236   4.810  0.6495  0.6098  0.2133
 3948TIP3    H233260   4.134   3.179   4.740 -0.4250  0.6368 -1.7554
 3949TIP3   OH233261   2.400   5.610   1.964 -0.4515  0.6966  0.6397
 3949TIP3    H133262   2.374   5.698   1.992 -0.4078  0.0387  3.0174
 3949TIP3    H233263   2.478   5.591   2.017  0.8723  0.0324 -1.4301
 3950TIP3   OH233264   3.365   1.887   0.328 -0.4456 -0.8156  0.5907
 3950TIP3    H133265   3.389   1.979   0.315  0.2882 -1.1279 -0.4130
 3950TIP3    H233266   3.440   1.850   0.376 -1.1224 -0.7121  1.7676
 3951TIP3   OH233267   4.343   6.227  11.312  0.0489  0.1002 -0.1658
 3951TIP3    H133268   4.421   6.215  11.366  0.2424  2.5524  0.2293
 3951TIP3    H233269   4.377   6.263  11.229 -0.5675  0.0232 -0.4572
 3952TIP3   OH233270   3.972   5.251  13.918 -0.2922 -0.1509  0.2668
 3952TIP3    H133271   4.021   5.293  13.989 -0.0838 -0.5734  0.3792
 3952TIP3    H233272   4.004   5.161  13.918  0.2034  0.0164 -0.8124
 3953TIP3   OH233273   2.732   5.890  11.491  0.5138 -0.1515  0.1704
 3953TIP3    H133274   2.783   5.966  11.519  1.1034  0.0953 -1.4340
 3953TIP3    H233275   2.659   5.927  11.441 -1.5383 -0.4855  2.7126
 3954TIP3   OH233276   5.543   6.032  14.452  0.7496  0.4774 -0.3501
 3954TIP3    H133277   5.560   6.097  14.519  0.3772 -0.2763  0.4900
 3954TIP3    H233278   5.451   6.044  14.428  0.8804  0.7427 -0.7298
 3955TIP3   OH233279   5.917   3.606   2.308 -0.0505  0.3298  0.1671
 3955TIP3    H133280   6.012   3.618   2.310 -0.2178  1.8065 -0.2717
 3955TIP3    H233281   5.881   3.683   2.351 -1.0496 -0.6201  1.1343
 3956TIP3   OH233282   6.676   6.605   1.377  0.2384  1.1608  0.1308
 3956TIP3    H133283   6.600   6.579   1.430  1.1276  0.7026  1.2231
 3956TIP3    H233284   6.697   6.527   1.326 -1.5831  2.0597 -2.1974
 3957TIP3   OH233285   6.248   3.128   0.752  0.2010  0.0473 -0.6075
 3957TIP3    H133286   6.175   3.177   0.790  0.6548 -0.1140  0.4921
 3957TIP3    H233287   6.280   3.183   0.681 -1.4471 -0.2029 -1.5989
 3958TIP3   OH233288   6.642   3.294   4.404  0.6532 -0.6219  0.2457
 3958TIP3    H133289   6.570   3.313   4.465  1.4639  0.5103  0.8887
 3958TIP3    H233290   6.679   3.380   4.384  2.1894 -1.2192  0.3944
 3959TIP3   OH233291   2.575   3.419  15.317  0.2580 -0.0738  0.2444
 3959TIP3    H133292   2.496   3.465  15.288 -0.1349 -0.5126  0.6015
 3959TIP3    H233293   2.609   3.472  15.389  0.1199 -0.0452  0.2889
 3960TIP3   OH233294   1.588   4.368  13.598 -0.4540 -0.6102  0.5676
 3960TIP3    H133295   1.502   4.400  13.627 -0.3744  0.0051  0.1522
 3960TIP3    H233296   1.576   4.352  13.505 -0.2464 -0.9677  0.6040
 3961TIP3   OH233297   4.729   6.574   1.750  0.1365 -0.3798  0.2673
 3961TIP3    H133298   4.698   6.634   1.682 -0.7059 -0.6824  0.3698
 3961TIP3    H233299   4.818   6.604   1.770 -0.0483  0.4538 -0.1123
 3962TIP3   OH233300   4.961   1.044   3.070  0.2246  0.1082 -0.3318
 3962TIP3    H133301   4.965   1.140   3.075 -0.6734  0.1103  0.8990
 3962TIP3    H233302   4.939   1.017   3.159  0.4173 -1.2455 -0.6799
 3963TIP3   OH233303   0.130   2.632   1.822 -0.0618  0.9993  0.2851
 3963TIP3    H133304   0.219   2.625   1.855  0.5689  0.6587 -1.3822
 3963TIP3    H233305   0.079   2.666   1.895  1.5751  1.9225  1.0294
 3964TIP3   OH233306   3.258   0.479   2.489  0.2299 -0.0493  0.1525
 3964TIP3    H133307   3.321   0.549   2.510  0.1904  0.7374 -2.0720
 3964TIP3    H233308   3.302   0.428   2.421  0.2092 -2.1937  1.6755
 3965TIP3   OH233309   6.117   4.489   3.645 -0.3647 -1.0822 -0.4459
 3965TIP3    H133310   6.153   4.571   3.680  1.0178 -1.2593 -1.3488
 3965TIP3    H233311   6.027   4.511   3.620 -0.6765 -0.3875  1.1282
 3966TIP3   OH233312   4.088   4.983   3.803  0.0357 -0.1437 -0.0717
 3966TIP3    H133313   4.037   4.947   3.875 -2.4262 -1.6522 -2.3596
 3966TIP3    H233314   4.090   4.913   3.738  2.2107  1.1018 -1.4742
 3967TIP3   OH233315   3.841   6.211   2.094  0.0921  0.6256  0.3708
 3967TIP3    H133316   3.867   6.188   2.005 -1.7936  0.9073 -0.2968
 3967TIP3    H233317   3.796   6.295   2.086 -0.6526  0.3649  1.4842
 3968TIP3   OH233318   5.960   3.614   0.293  0.4655  0.4332 -0.5988
 3968TIP3    H133319   5.889   3.666   0.332 -0.2339 -2.3022  2.0841
 3968TIP3    H233320   5.922   3.580   0.212 -1.5807 -1.2969  0.9755
 3969TIP3   OH233321   0.218   1.083  11.594 -0.1927  0.1859  0.5688
 3969TIP3    H133322   0.135   1.106  11.552 -0.4589  0.4860  1.2536
 3969TIP3    H233323   0.194   1.027  11.667  0.0929  1.1241  1.4128
 3970TIP3   OH233324   1.129   4.890   2.283  0.4811  0.4225  0.3014
 3970TIP3    H133325   1.095   4.965   2.333 -1.2564 -0.2492  0.1877
 3970TIP3    H233326   1.197   4.928   2.227  0.0162  1.8127  0.6367
 3971TIP3   OH233327   4.159   2.493   0.368  0.7180 -0.3911  0.3069
 3971TIP3    H133328   4.123   2.566   0.317  0.8366 -0.1556  0.5568
 3971TIP3    H233329   4.253   2.507   0.366  0.7500 -0.6176  0.2393
 3972TIP3   OH233330   0.430   0.033   6.394 -0.4092 -0.3514  0.1955
 3972TIP3    H133331   0.379   0.062   6.319 -1.2146 -0.0869  0.8314
 3972TIP3    H233332   0.519   0.026   6.361 -0.5100  1.0793 -0.4420
 3973TIP3   OH233333   0.294   3.065   0.416  0.0577 -0.4609 -0.3024
 3973TIP3    H133334   0.261   3.065   0.326  0.6644 -1.2364 -0.5353
 3973TIP3    H233335   0.388   3.056   0.407  0.4132  1.8701  0.3548
 3974TIP3   OH233336   2.672   3.961  11.996 -0.2071 -0.1319 -0.5694
 3974TIP3    H133337   2.715   3.969  12.082 -2.0596  0.1770  0.3855
 3974TIP3    H233338   2.698   3.875  11.964 -0.3951 -0.7546  0.8581
 3975TIP3   OH233339   4.185   2.650  16.618  0.2575 -0.1299 -0.4927
 3975TIP3    H133340   4.235   2.579  16.579  0.7008  0.5137 -1.1110
 3975TIP3    H233341   4.206   2.727  16.565 -1.1796  0.2128 -0.6092
 3976TIP3   OH233342   1.794   0.125  16.475 -0.1380 -0.2986 -0.7607
 3976TIP3    H133343   1.788   0.207  16.426 -3.3810 -0.1070 -0.2201
 3976TIP3    H233344   1.770   0.149  16.564 -1.4898 -1.8736 -0.6624
 3977TIP3   OH233345   5.698   6.133  12.342 -0.1500  0.0384 -0.5771
 3977TIP3    H133346   5.656   6.219  12.332  1.9678  0.9816 -2.0470
 3977TIP3    H233347   5.784   6.153  12.380 -0.6190 -1.7497  1.6487
 3978TIP3   OH233348   1.851   5.928  10.925  0.2212  0.2115 -0.6522
 3978TIP3    H133349   1.870   6.003  10.869  0.2387  0.5606 -0.1910
 3978TIP3    H233350   1.765   5.898  10.896  1.1478 -0.9984 -2.3342
 3979TIP3   OH233351   2.235   0.333  16.991  0.3383  0.4749  0.0017
 3979TIP3    H133352   2.266   0.322  17.081  0.0270  0.4231  0.1046
 3979TIP3    H233353   2.271   0.259  16.943  0.9056  0.7663 -0.0253
 3980TIP3   OH233354   6.453   0.815   1.113 -0.4165 -0.1767 -0.4188
 3980TIP3    H133355   6.513   0.832   1.186 -2.1785 -0.2208  1.1439
 3980TIP3    H233356   6.466   0.722   1.092  0.3702 -0.0718 -0.4377
 3981TIP3   OH233357   5.978   3.757  14.943 -0.0102  0.2724 -0.0492
 3981TIP3    H133358   5.951   3.842  14.910 -0.0548 -0.4000 -1.8267
 3981TIP3    H233359   6.010   3.710  14.866 -0.6107 -1.5624  0.7684
 3982TIP3   OH233360   1.782   1.707   5.278 -0.6155 -0.1862  0.2743
 3982TIP3    H133361   1.700   1.668   5.306 -0.8591  0.8180  0.9751
 3982TIP3    H233362   1.836   1.712   5.357 -0.5191  0.7174  0.1647
 3983TIP3   OH233363   4.243   1.763  15.801 -0.6191 -0.1974 -0.9201
 3983TIP3    H133364   4.326   1.755  15.848 -0.0758  2.8391 -1.1514
 3983TIP3    H233365   4.181   1.712  15.854  0.8316 -0.3009  0.7763
 3984TIP3   OH233366   6.743   0.708   2.214 -0.0921 -0.1854  0.0155
 3984TIP3    H133367   6.826   0.752   2.235 -0.6795  1.2994 -0.6449
 3984TIP3    H233368   6.766   0.647   2.144  0.5466 -0.2053  0.2311
 3985TIP3   OH233369   2.343   6.080   1.347 -0.3434 -0.0828 -0.3496
 3985TIP3    H133370   2.384   6.134   1.279 -1.1254  0.6481 -0.2647
 3985TIP3    H233371   2.264   6.129   1.372  0.1190 -0.1372  1.3516
 3986TIP3   OH233372   1.878   0.058  13.305 -0.5419  0.0609  0.4605
 3986TIP3    H133373   1.791   0.098  13.317 -1.1250 -1.1244  0.3507
 3986TIP3    H233374   1.897   0.017  13.389 -0.5261 -0.4835  0.1993
 3987TIP3   OH233375   0.571   3.498  11.269 -0.2530 -0.2090 -0.4219
 3987TIP3    H133376   0.660   3.466  11.287 -0.5762 -1.2138 -0.5550
 3987TIP3    H233377   0.528   3.425  11.226 -1.7183 -0.4004  1.2952
 3988TIP3   OH233378   5.966   3.545  12.672  0.1447 -0.4203  0.4460
 3988TIP3    H133379   6.020   3.483  12.624 -0.1089  0.4241 -0.9861
 3988TIP3    H233380   5.940   3.498  12.751  1.4184 -1.4932  0.2699
 3989TIP3   OH233381   4.600   1.116  11.329 -0.0973  0.0950 -0.4128
 3989TIP3    H133382   4.656   1.176  11.280  0.2966  0.5483  0.5648
 3989TIP3    H233383   4.511   1.150  11.317  0.0947  0.7074 -0.1012
 3990TIP3   OH233384   3.764   1.502   4.860 -0.4467 -0.4496 -0.4255
 3990TIP3    H133385   3.844   1.508   4.808 -0.8608 -0.0975 -1.0337
 3990TIP3    H233386   3.787   1.447   4.935  0.0259 -1.3421 -1.2250
 3991TIP3   OH233387   6.779   5.641  13.939 -0.0992  0.0646 -0.0913
 3991TIP3    H133388   6.769   5.617  14.031 -1.3680  1.6965  0.2432
 3991TIP3    H233389   6.859   5.693  13.936  0.7174 -1.1610 -0.1925
 3992TIP3   OH233390   1.586   5.256   3.519  0.6011  0.1121  0.1381
 3992TIP3    H133391   1.590   5.234   3.612 -0.0593 -1.4590 -0.1884
 3992TIP3    H233392   1.532   5.188   3.480  1.3053  0.4410 -1.4922
 3993TIP3   OH233393   4.385   5.174   6.055 -0.0060 -0.4166 -0.1538
 3993TIP3    H133394   4.407   5.131   6.138  0.1485  0.5924  0.3427
 3993TIP3    H233395   4.362   5.264   6.079  0.3978  0.0025 -1.2377
 3994TIP3   OH233396   1.493   4.802  16.443  0.7121 -0.4782  0.3219
 3994TIP3    H133397   1.508   4.737  16.374 -1.2371 -0.3760 -0.2624
 3994TIP3    H233398   1.465   4.750  16.519  0.5181 -0.4359  0.2802
 3995TIP3   OH233399   6.026   0.680   3.316  0.0089 -0.1067  0.0928
 3995TIP3    H133400   6.091   0.697   3.248 -0.3704  2.8579  0.3675
 3995TIP3    H233401   6.071   0.702   3.398 -0.5834 -0.3967  0.5051
 3996TIP3   OH233402   1.460   6.041  15.777  0.1999  0.6412  0.1083
 3996TIP3    H133403   1.389   6.079  15.725 -0.0030  0.3685  0.1821
 3996TIP3    H233404   1.540   6.080  15.741  0.2322 -0.9557 -1.7116
 3997TIP3   OH233405   5.278   0.645  11.058 -0.1253  0.1641 -0.4464
 3997TIP3    H133406   5.255   0.726  11.013  1.1665  0.9726  0.2821
 3997TIP3    H233407   5.293   0.672  11.149 -3.1762 -1.4878  0.7112
 3998TIP3   OH233408   6.077   2.150   3.157  0.4692  0.0746  0.6108
 3998TIP3    H133409   6.065   2.245   3.160  1.5695  0.3040 -1.1539
 3998TIP3    H233410   6.102   2.131   3.067 -0.6348 -2.0281  0.6760
 3999TIP3   OH233411   2.559   2.009  15.952  0.2190  0.5511 -0.4845
 3999TIP3    H133412   2.473   2.038  15.983  0.4970 -0.0177  0.9315
 3999TIP3    H233413   2.548   1.996  15.858 -1.2090  0.6065 -0.3461
 4000TIP3   OH233414   4.950   5.838  13.914 -0.1814 -0.3405  0.7300
 4000TIP3    H133415   5.002   5.773  13.961  0.1756 -0.1455  0.6132
 4000TIP3    H233416   4.886   5.787  13.864 -0.4521 -0.5543  1.2905
 4001TIP3   OH233417   3.625   1.265   0.600  0.1486 -0.3596  0.4003
 4001TIP3    H133418   3.720   1.267   0.615 -0.1274  0.3968  2.3733
 4001TIP3    H233419   3.599   1.357   0.600 -0.7106 -0.5955  0.7488
 4002TIP3   OH233420   0.724   1.167   4.577  0.6694  0.5530  0.1522
 4002TIP3    H133421   0.804   1.115   4.580  0.6801  0.5488 -0.1627
 4002TIP3    H233422   0.751   1.255   4.603  0.5851  0.3272  1.0310
 4003TIP3   OH233423   6.762   1.818   1.805  0.6779 -0.2935 -0.0011
 4003TIP3    H133424   6.758   1.879   1.879 -0.0906  0.2451 -0.4766
 4003TIP3    H233425   6.812   1.865   1.738  1.1116 -0.6635  0.0531
 4004TIP3   OH233426   0.024   3.874   5.695 -0.3449 -0.4380  0.3296
 4004TIP3    H133427   0.102   3.832   5.659 -0.4284 -0.7941  0.5666
 4004TIP3    H233428  -0.022   3.805   5.742 -1.1065 -0.3760 -0.2990
 4005TIP3   OH233429   0.094   3.069  13.438 -0.6727  0.1364  0.0343
 4005TIP3    H133430   0.054   3.143  13.485  0.7386  1.5151 -0.8315
 4005TIP3    H233431   0.187   3.090  13.436 -0.2126 -1.7791 -0.1273
 4006TIP3   OH233432   1.743   5.295  12.181  0.3109  0.4426 -0.2644
 4006TIP3    H133433   1.685   5.300  12.104  0.9435  0.5901 -0.7432
 4006TIP3    H233434   1.684   5.302  12.256 -0.4806 -1.1054 -0.7067
 4007TIP3   OH233435   4.847   2.760  11.665  0.1507 -0.2331 -0.2242
 4007TIP3    H133436   4.935   2.744  11.631  0.0804 -2.7066  0.5633
 4007TIP3    H233437   4.855   2.841  11.717  1.1364  1.4110 -2.7525
 4008TIP3   OH233438   4.676   4.142  14.958 -0.5098  0.0163 -0.2293
 4008TIP3    H133439   4.744   4.153  14.891  0.6230 -3.6161  0.1063
 4008TIP3    H233440   4.704   4.200  15.029  0.8574  0.4931 -1.1155
 4009TIP3   OH233441   5.530   4.724  13.886 -0.3430  0.3280 -0.4156
 4009TIP3    H133442   5.534   4.797  13.948 -0.3916  0.9392 -1.1179
 4009TIP3    H233443   5.499   4.650  13.938  0.8954  0.4913  0.5938
 4010TIP3   OH233444   3.232   1.030   1.214  0.1474  0.1099  0.2471
 4010TIP3    H133445   3.286   0.990   1.282 -1.2026  0.9838  1.8933
 4010TIP3    H233446   3.193   0.956   1.167 -0.7345 -0.5596  1.9627
 4011TIP3   OH233447   0.996   3.693   2.065 -0.2605  0.0257 -0.9146
 4011TIP3    H133448   0.935   3.672   1.994  0.2807  0.9392 -1.6642
 4011TIP3    H233449   0.950   3.759   2.117 -0.3607 -0.1097 -0.8300
 4012TIP3   OH233450   3.801   2.756  11.740 -0.2021 -0.3284  0.2431
 4012TIP3    H133451   3.881   2.725  11.781  2.9202  1.4314 -3.8185
 4012TIP3    H233452   3.811   2.851  11.734 -1.6351 -0.2329 -2.0944
 4013TIP3   OH233453   5.500   4.314  15.523  0.5768 -0.5259  0.0215
 4013TIP3    H133454   5.435   4.247  15.502  0.0260 -0.2796  0.8709
 4013TIP3    H233455   5.574   4.266  15.559  0.0876 -0.6812  0.8563
 4014TIP3   OH233456   3.549   4.111  16.371  0.1918 -0.7263 -0.3550
 4014TIP3    H133457   3.561   4.060  16.291 -0.9314  0.0394 -1.0466
 4014TIP3    H233458   3.548   4.202  16.341 -1.6190 -0.4912  0.3128
 4015TIP3   OH233459   6.088   0.453  12.726 -0.3102  0.0258 -0.4091
 4015TIP3    H133460   6.039   0.386  12.774 -0.2049 -1.9536 -2.8230
 4015TIP3    H233461   6.175   0.453  12.766 -0.4956 -0.8900  0.0122
 4016TIP3   OH233462   5.401   6.227   6.586 -0.6759  0.3892 -0.2104
 4016TIP3    H133463   5.347   6.172   6.643 -0.1108 -0.3886 -0.4173
 4016TIP3    H233464   5.423   6.170   6.512 -0.8399  1.1808 -0.8838
 4017TIP3   OH233465   0.270   4.806  10.574  0.3332  0.5828 -0.3582
 4017TIP3    H133466   0.199   4.861  10.542 -0.5664 -1.3640 -1.9079
 4017TIP3    H233467   0.235   4.717  10.573  1.5486 -0.0421  2.5554
 4018TIP3   OH233468   1.479   1.279  12.835  0.3387  0.1400  0.2426
 4018TIP3    H133469   1.540   1.230  12.780 -1.0004 -1.6124  0.2420
 4018TIP3    H233470   1.521   1.283  12.921  0.3284 -1.3355  0.3292
 4019TIP3   OH233471   2.649   6.192  16.712  1.1556  0.4793 -0.0493
 4019TIP3    H133472   2.719   6.130  16.692  0.0023 -0.8723 -0.0769
 4019TIP3    H233473   2.570   6.137  16.720  0.1567  1.9087  0.2834
 4020TIP3   OH233474   3.504   5.777   3.498 -0.5028  0.1285 -0.5197
 4020TIP3    H133475   3.585   5.811   3.537 -1.2327  1.2564  0.0802
 4020TIP3    H233476   3.452   5.855   3.479 -2.0713 -0.6155  0.5042
 4021TIP3   OH233477   6.071   3.773  13.445 -0.0757 -0.8551  0.2688
 4021TIP3    H133478   6.054   3.862  13.476 -1.4043 -1.3653  1.0898
 4021TIP3    H233479   6.164   3.759  13.466  0.5240  0.7567 -1.0424
 4022TIP3   OH233480   4.371   2.635   3.537  0.1367 -0.3140  0.7075
 4022TIP3    H133481   4.407   2.549   3.514  0.9038 -0.2750  1.6883
 4022TIP3    H233482   4.438   2.697   3.509  0.7209 -0.2174  2.2494
 4023TIP3   OH233483   6.625   2.795   6.519  0.4482 -0.0638  0.0468
 4023TIP3    H133484   6.638   2.819   6.611  0.0705  1.1511 -0.1981
 4023TIP3    H233485   6.637   2.701   6.517  0.3578 -0.1214  1.3674
 4024TIP3   OH233486   3.541   4.694   2.106 -0.4606 -0.4224 -0.3084
 4024TIP3    H133487   3.566   4.769   2.052 -0.5346 -2.2473 -3.0927
 4024TIP3    H233488   3.613   4.632   2.096 -1.5732 -1.7755 -0.2723
 4025TIP3   OH233489   1.475   3.736   4.888 -0.2566  0.5377  0.4567
 4025TIP3    H133490   1.444   3.646   4.896  0.5091  0.1342 -0.7937
 4025TIP3    H233491   1.430   3.783   4.958  0.2554 -1.0652  1.9538
 4026TIP3   OH233492   0.477   5.372   2.142 -0.3007 -0.4629  0.1667
 4026TIP3    H133493   0.542   5.406   2.081 -0.4853 -1.8485 -0.8488
 4026TIP3    H233494   0.488   5.426   2.220  1.4085 -0.0382 -0.3081
 4027TIP3   OH233495   6.085   3.007  13.837 -0.2504 -0.1925 -0.1255
 4027TIP3    H133496   6.123   2.997  13.749  1.0810 -3.4177  0.6552
 4027TIP3    H233497   6.141   3.071  13.880  0.3590 -0.1129 -1.0090
 4028TIP3   OH233498   2.033   3.235   2.094 -0.2147 -0.4706  0.0220
 4028TIP3    H133499   1.993   3.300   2.036 -0.2767  0.1072  0.6990
 4028TIP3    H233500   1.981   3.239   2.174  1.1472  0.2569  0.8982
 4029TIP3   OH233501   0.914   4.832   0.096  0.2346 -0.7043  0.1986
 4029TIP3    H133502   0.982   4.887   0.136 -0.9898  1.7916 -0.9365
 4029TIP3    H233503   0.901   4.761   0.159  1.0152  1.0094  2.4370
 4030TIP3   OH233504   2.227   2.784  10.876 -0.7939 -0.2576 -0.3028
 4030TIP3    H133505   2.144   2.754  10.839 -1.5099  0.2981  0.7871
 4030TIP3    H233506   2.287   2.786  10.802 -1.0678 -2.9580 -0.6843
 4031TIP3   OH233507   6.527   5.370  13.200 -0.5826  0.0260 -0.3903
 4031TIP3    H133508   6.482   5.304  13.253 -1.7565 -0.4294 -1.8775
 4031TIP3    H233509   6.505   5.347  13.110  0.1198  1.6541 -1.0153
 4032TIP3   OH233510   1.539   1.981   5.105  0.1005  0.4074  0.2260
 4032TIP3    H133511   1.578   2.039   5.171 -0.7216  0.5378  0.6067
 4032TIP3    H233512   1.458   1.950   5.145 -2.2024  3.1006 -1.9213
 4033TIP3   OH233513   0.263   2.257  15.110  0.2618 -0.2564 -0.0308
 4033TIP3    H133514   0.229   2.322  15.049  0.7969 -0.0378 -0.0987
 4033TIP3    H233515   0.224   2.280  15.194 -2.6812 -2.1372 -0.7037
 4034TIP3   OH233516   3.504   0.330   0.506 -0.0558  0.2384  0.0350
 4034TIP3    H133517   3.460   0.389   0.445 -0.1635 -0.6932 -0.8107
 4034TIP3    H233518   3.592   0.321   0.469 -0.9038 -2.4598 -1.5728
 4035TIP3   OH233519   0.964   0.414   2.832  0.0675 -0.9665 -0.0959
 4035TIP3    H133520   0.987   0.401   2.740  1.8310  1.7923 -0.1705
 4035TIP3    H233521   1.045   0.442   2.874 -1.4111  1.3978  1.4665
 4036TIP3   OH233522   6.701   5.140   4.100  0.1079  0.0777  0.0279
 4036TIP3    H133523   6.720   5.051   4.130 -0.2322  0.4301  1.3236
 4036TIP3    H233524   6.645   5.177   4.168  1.2760  1.7256  0.1398
 4037TIP3   OH233525   6.578   1.195   3.728  0.0890 -0.2996  0.2148
 4037TIP3    H133526   6.586   1.280   3.685 -0.4976 -0.1827  0.3219
 4037TIP3    H233527   6.667   1.161   3.731  0.6989  1.3059  2.2383
 4038TIP3   OH233528   1.069   6.798  14.681  0.6039  0.3408  0.2032
 4038TIP3    H133529   1.021   6.811  14.600  1.1331  2.2858  0.1461
 4038TIP3    H233530   1.148   6.750  14.655  0.5200  0.5032 -0.3563
 4039TIP3   OH233531   1.799   5.502  14.011  0.2219  0.0800 -0.0136
 4039TIP3    H133532   1.791   5.472  14.102  0.4288  1.5724  0.5194
 4039TIP3    H233533   1.717   5.547  13.993  0.3869  0.2251 -0.4095
 4040TIP3   OH233534   2.799   6.026  15.157 -0.8418  0.2962  0.2874
 4040TIP3    H133535   2.773   5.944  15.115 -2.0177  0.5906  0.4213
 4040TIP3    H233536   2.762   6.094  15.101  0.2744  0.7531  0.0800
 4041TIP3   OH233537   1.051   3.552   2.430 -0.7038 -0.6608  0.0568
 4041TIP3    H133538   0.985   3.483   2.439 -1.7739  0.0939 -1.5147
 4041TIP3    H233539   1.000   3.633   2.425  0.4699  0.1396  0.6540
 4042TIP3   OH233540   5.806   1.702   0.924 -0.0783 -0.1314  0.5588
 4042TIP3    H133541   5.889   1.672   0.885  0.2252  0.8692  0.4192
 4042TIP3    H233542   5.765   1.754   0.855 -0.9481 -0.8128  0.5416
 4043TIP3   OH233543   0.197   4.700   0.712  0.3991 -0.8234 -0.1704
 4043TIP3    H133544   0.248   4.660   0.642 -0.4303 -2.6240  0.2157
 4043TIP3    H233545   0.224   4.792   0.712  0.2230 -0.7002 -3.0185
 4044TIP3   OH233546   5.699   1.284  11.359 -0.2669  0.1669  0.2903
 4044TIP3    H133547   5.630   1.311  11.421 -0.4645 -0.7869  0.4904
 4044TIP3    H233548   5.780   1.303  11.406 -0.4042  0.2367  0.5073
 4045TIP3   OH233549   3.959   0.709  13.009  0.5195 -0.3268  0.3746
 4045TIP3    H133550   3.886   0.653  12.982 -0.0037  0.5424 -0.0328
 4045TIP3    H233551   4.037   0.668  12.970  0.4180 -1.8541  1.6704
 4046TIP3   OH233552   6.810   3.232  11.132 -0.2234  0.0187 -0.3570
 4046TIP3    H133553   6.834   3.182  11.210  0.1100 -0.1847 -0.5833
 4046TIP3    H233554   6.733   3.283  11.158 -0.4307 -0.4448 -0.0568
 4047TIP3   OH233555   3.674   5.219  15.193 -0.1859  0.6528 -0.3970
 4047TIP3    H133556   3.732   5.243  15.122  1.8701 -0.4092  0.8275
 4047TIP3    H233557   3.668   5.298  15.247  0.1237  0.7568 -0.5162
 4048TIP3   OH233558   4.307   4.247  11.776 -0.2800 -0.5750 -0.3551
 4048TIP3    H133559   4.283   4.197  11.854 -0.8316 -1.2770 -0.9615
 4048TIP3    H233560   4.376   4.195  11.734 -0.1908 -0.3457 -0.4969
 4049TIP3   OH233561   3.466   2.847  14.460 -0.0723 -0.1802 -0.4186
 4049TIP3    H133562   3.433   2.881  14.544 -0.6758 -0.2211 -0.6292
 4049TIP3    H233563   3.534   2.784  14.484 -0.9261 -0.9400  0.0939
 4050TIP3   OH233564   4.022   3.559   6.731  0.4652  0.9935 -0.0956
 4050TIP3    H133565   4.029   3.634   6.790 -0.4593  0.6297  0.4923
 4050TIP3    H233566   3.947   3.581   6.674  0.5983  0.8027 -0.3437
 4051TIP3   OH233567   1.703   4.814   0.913  0.2941 -0.7759  0.3013
 4051TIP3    H133568   1.718   4.903   0.944  0.0534 -0.2845 -0.9323
 4051TIP3    H233569   1.640   4.777   0.974 -0.1846  0.1605  0.3840
 4052TIP3   OH233570   2.934   5.443  14.518 -0.0148 -0.6048  0.7804
 4052TIP3    H133571   2.907   5.376  14.454 -1.3158  0.3301  0.3255
 4052TIP3    H233572   3.000   5.495  14.471 -0.6586 -0.1823  0.3277
 4053TIP3   OH233573   1.302   1.552   3.563  0.0746 -0.1408  0.0938
 4053TIP3    H133574   1.216   1.527   3.596  1.0127 -0.6727  2.3227
 4053TIP3    H233575   1.334   1.618   3.624  0.9216  0.6851 -1.1840
 4054TIP3   OH233576   5.794   3.151   0.038  0.1567 -0.7383  0.0481
 4054TIP3    H133577   5.867   3.099   0.004 -0.6221 -0.5047 -2.1876
 4054TIP3    H233578   5.747   3.093   0.098  1.2551 -1.4163  0.2574
 4055TIP3   OH233579   0.208   4.894   4.197  0.6327  0.3416  0.3936
 4055TIP3    H133580   0.235   4.803   4.209  2.2973  0.6368 -0.6531
 4055TIP3    H233581   0.115   4.895   4.218  0.0334 -2.0566 -1.6445
 4056TIP3   OH233582   1.801   0.033  10.538  1.0435  0.1321 -0.0810
 4056TIP3    H133583   1.829   0.100  10.476  0.2678  1.5134  1.0264
 4056TIP3    H233584   1.720  -0.002  10.501  1.2845 -0.0028 -0.4961
 4057TIP3   OH233585   4.557   4.331   3.415 -0.4961  0.3020 -0.6083
 4057TIP3    H133586   4.522   4.261   3.359 -1.1332  1.0514 -1.1517
 4057TIP3    H233587   4.487   4.350   3.477 -0.7054  1.1346 -1.0869
 4058TIP3   OH233588   2.358   0.767   0.924  0.0946 -0.3682  0.1516
 4058TIP3    H133589   2.339   0.691   0.868  1.3449 -0.3860 -0.2884
 4058TIP3    H233590   2.430   0.812   0.880 -1.5785  1.9585 -0.3914
 4059TIP3   OH233591   6.219   5.137   1.122 -0.1682 -0.1462  0.4415
 4059TIP3    H133592   6.210   5.094   1.037 -0.3853  1.2606 -0.2631
 4059TIP3    H233593   6.282   5.082   1.169  1.1570 -0.1137 -1.1897
 4060TIP3   OH233594   1.015   1.673   5.042  0.5913  0.2856 -0.0526
 4060TIP3    H133595   1.011   1.606   5.110  0.0202 -0.6309 -0.9602
 4060TIP3    H233596   0.930   1.718   5.048  1.4899  1.9036  1.4698
 4061TIP3   OH233597   3.972   0.706   1.317  0.3362 -0.8780 -0.0809
 4061TIP3    H133598   4.010   0.642   1.257  2.7314 -0.3128  0.7235
 4061TIP3    H233599   3.949   0.655   1.394 -0.0116 -1.1409 -0.3551
 4062TIP3   OH233600   1.898   1.343   1.955 -0.2601 -0.0803 -0.1879
 4062TIP3    H133601   1.872   1.266   2.005  2.4436 -1.3983 -0.6015
 4062TIP3    H233602   1.817   1.374   1.915 -2.0421 -0.6467  2.6506
 4063TIP3   OH233603   3.736   2.445   1.136 -0.1838 -0.3358 -0.1334
 4063TIP3    H133604   3.788   2.483   1.207  2.5407 -0.7239 -1.7488
 4063TIP3    H233605   3.781   2.364   1.114 -2.4550 -1.5338 -0.6701
 4064TIP3   OH233606   2.202   0.360  11.672 -0.1724 -0.8896  0.8576
 4064TIP3    H133607   2.203   0.272  11.710 -3.3553 -0.8850  1.2185
 4064TIP3    H233608   2.237   0.417  11.741 -0.1520 -1.6019  1.4402
 4065TIP3   OH233609   5.321   5.516  14.059  0.2866 -0.1178  0.1706
 4065TIP3    H133610   5.368   5.526  13.976  2.4863 -0.7182  1.2759
 4065TIP3    H233611   5.373   5.454  14.109 -0.1968  1.2647  2.5594
 4066TIP3   OH233612   4.358   4.986  13.242  0.2514  0.5304 -0.0240
 4066TIP3    H133613   4.387   4.916  13.183 -0.2783 -0.0533  0.3894
 4066TIP3    H233614   4.271   4.958  13.271 -0.1166  1.5377 -0.1167
 4067TIP3   OH233615   2.741   4.058  13.733  1.0599 -0.0984 -0.1262
 4067TIP3    H133616   2.675   4.126  13.744  0.3559 -0.7605 -0.1385
 4067TIP3    H233617   2.783   4.051  13.819  1.9267  1.1142 -0.4170
 4068TIP3   OH233618   5.737   5.261  14.614 -0.0473  0.2744 -0.7139
 4068TIP3    H133619   5.665   5.254  14.551 -0.0671  2.5847 -1.0132
 4068TIP3    H233620   5.804   5.311  14.569  2.0362 -2.1829 -0.6011
 4069TIP3   OH233621   3.889   3.571  11.567  0.3459  0.4554  0.4064
 4069TIP3    H133622   3.881   3.652  11.616 -1.6767  1.0670 -0.8004
 4069TIP3    H233623   3.892   3.599  11.475  0.6704 -0.7874  0.0215
 4070TIP3   OH233624   3.356   0.888   1.448  0.2888 -0.9910 -0.2681
 4070TIP3    H133625   3.427   0.885   1.512  1.7137 -0.1050 -1.7323
 4070TIP3    H233626   3.375   0.817   1.387 -0.3915 -1.0895 -0.3749
 4071TIP3   OH233627   3.648   2.173   5.141  0.4349  0.1775 -0.2062
 4071TIP3    H133628   3.630   2.235   5.070  0.9090  0.1312 -0.3707
 4071TIP3    H233629   3.693   2.225   5.208 -0.9755  0.4770  0.5513
 4072TIP3   OH233630   2.379   1.805   5.715 -0.4735 -0.0717  0.2448
 4072TIP3    H133631   2.418   1.801   5.627 -0.1125 -0.0041  0.4020
 4072TIP3    H233632   2.310   1.871   5.708 -0.4999 -0.1252 -0.0100
 4073TIP3   OH233633   5.080   3.365   3.070 -0.7113 -0.1155  0.1490
 4073TIP3    H133634   5.000   3.333   3.112  0.6302 -0.6381  2.4913
 4073TIP3    H233635   5.087   3.456   3.098 -0.3297 -0.1666  0.2256
 4074TIP3   OH233636   2.763   2.248   2.754  0.2612 -0.0018 -0.8811
 4074TIP3    H133637   2.765   2.175   2.692  1.9145  0.0624 -0.9593
 4074TIP3    H233638   2.803   2.213   2.834 -0.3134  0.3978 -0.4037
 4075TIP3   OH233639   1.892   6.127  12.217 -0.3861  0.1510 -0.2416
 4075TIP3    H133640   1.930   6.193  12.159  0.6089 -0.4976 -0.3629
 4075TIP3    H233641   1.945   6.049  12.202 -1.1210 -0.4887  0.3834
 4076TIP3   OH233642   3.679   3.871   0.978 -0.2811 -0.1437 -0.1405
 4076TIP3    H133643   3.619   3.943   0.999  0.4733  0.5375 -0.2392
 4076TIP3    H233644   3.641   3.794   1.021 -0.3780  0.5933  1.1483
 4077TIP3   OH233645   1.399   5.791  12.266 -0.5114 -0.5927  0.0885
 4077TIP3    H133646   1.446   5.786  12.349  0.4796 -0.7459 -0.4658
 4077TIP3    H233647   1.355   5.706  12.258  1.2614 -1.4924 -0.6013
 4078TIP3   OH233648   5.604   2.878  12.498  0.9460 -0.1277  0.2379
 4078TIP3    H133649   5.634   2.968  12.496 -0.1433  0.2413 -1.3873
 4078TIP3    H233650   5.684   2.826  12.510  1.5370  1.0509  1.5412
 4079TIP3   OH233651   2.756   5.989   0.409 -0.1972  0.2851  0.2253
 4079TIP3    H133652   2.774   5.948   0.324  1.2050  0.5650  0.3688
 4079TIP3    H233653   2.725   5.917   0.464 -1.0541  0.0854 -0.4843
 4080TIP3   OH233654   0.180   4.710   2.474  0.3096 -0.0787  0.1384
 4080TIP3    H133655   0.144   4.628   2.440  1.0943  0.3926 -2.0074
 4080TIP3    H233656   0.275   4.700   2.467  0.4431  0.6983  0.6522
 4081TIP3   OH233657   4.581   2.457   3.963  0.0347 -0.1450  0.0266
 4081TIP3    H133658   4.509   2.449   4.025  0.1490  0.8665  0.3022
 4081TIP3    H233659   4.555   2.527   3.904  0.7605  0.1989  0.0961
 4082TIP3   OH233660   3.512   2.713  16.912  0.2073 -0.0918 -0.5043
 4082TIP3    H133661   3.438   2.772  16.928 -1.1465 -1.4766 -1.3959
 4082TIP3    H233662   3.515   2.703  16.817  0.1455 -1.7505 -0.3577
 4083TIP3   OH233663   3.272   2.423   3.411 -0.4071 -0.2605  0.2813
 4083TIP3    H133664   3.252   2.516   3.426  1.3408  0.8789 -3.1944
 4083TIP3    H233665   3.357   2.410   3.454 -0.5603 -0.1873  0.6080
 4084TIP3   OH233666   4.473   1.788  13.317 -0.1432 -0.2474  0.0650
 4084TIP3    H133667   4.398   1.737  13.348  0.9039 -0.9790  1.4678
 4084TIP3    H233668   4.526   1.804  13.395  0.6408  1.1752 -0.7182
 4085TIP3   OH233669   5.770   2.679   1.474  0.7919  0.1843 -0.2671
 4085TIP3    H133670   5.853   2.677   1.522  1.1180  3.4753 -0.4706
 4085TIP3    H233671   5.791   2.639   1.389  2.3972  1.4445 -0.5316
 4086TIP3   OH233672   5.141   2.825  11.864 -0.3338 -0.6099  0.4089
 4086TIP3    H133673   5.151   2.840  11.770 -0.2554 -0.8069  0.3867
 4086TIP3    H233674   5.177   2.738  11.879  0.5195 -0.2071  0.7723
 4087TIP3   OH233675   5.442   1.843   5.784 -0.1760 -0.1761 -0.4844
 4087TIP3    H133676   5.504   1.887   5.843  0.3604 -0.1369 -1.0747
 4087TIP3    H233677   5.495   1.811   5.712 -1.0173  1.0026 -1.6693
 4088TIP3   OH233678   4.713   5.663  12.315  0.0489 -0.3541  0.0943
 4088TIP3    H133679   4.652   5.635  12.384  2.6792 -1.1682  2.2708
 4088TIP3    H233680   4.765   5.584  12.297 -0.5972 -0.1984 -3.0156
 4089TIP3   OH233681   3.540   1.727   2.202 -0.1465  0.0827  0.5367
 4089TIP3    H133682   3.611   1.764   2.148  0.1259 -2.9559 -1.4181
 4089TIP3    H233683   3.460   1.753   2.157 -0.1157  0.5474  0.7410
 4090TIP3   OH233684   3.922   6.260   0.240 -0.3390  1.0658 -0.1407
 4090TIP3    H133685   3.941   6.320   0.313 -1.2743  1.4472 -0.2044
 4090TIP3    H233686   3.855   6.202   0.275  0.2479  0.3276 -0.2307
 4091TIP3   OH233687   0.686   3.813   0.754  0.0955  0.1083  0.0399
 4091TIP3    H133688   0.734   3.743   0.798 -0.8886 -1.7677 -1.6820
 4091TIP3    H233689   0.594   3.791   0.766 -0.3800  2.6249  1.6954
 4092TIP3   OH233690   5.687   4.081   6.240 -0.6434 -0.1458  0.1610
 4092TIP3    H133691   5.750   4.088   6.168 -1.5529 -1.5145 -0.8193
 4092TIP3    H233692   5.605   4.114   6.204 -0.4837  1.8496  1.5033
 4093TIP3   OH233693   3.871   0.787  16.341 -0.2474  0.1758  0.0215
 4093TIP3    H133694   3.847   0.810  16.431 -0.7135  1.2388 -0.3526
 4093TIP3    H233695   3.881   0.872  16.297  4.8411 -0.0234  0.2440
 4094TIP3   OH233696   4.203   5.989   4.509 -0.3587 -0.2311 -0.2797
 4094TIP3    H133697   4.179   6.081   4.514 -0.4603  0.1088 -4.0087
 4094TIP3    H233698   4.298   5.989   4.499  0.0627 -0.8426  2.7851
 4095TIP3   OH233699   2.211   2.021   1.252 -0.1145 -0.1972 -0.0454
 4095TIP3    H133700   2.126   1.986   1.227 -0.5596  0.1726  0.8880
 4095TIP3    H233701   2.206   2.033   1.347 -0.3411  3.1418 -0.3307
 4096TIP3   OH233702   4.892   4.108  14.408 -0.3168 -0.0322 -0.5399
 4096TIP3    H133703   4.941   4.182  14.443  1.4246 -0.7888 -1.2632
 4096TIP3    H233704   4.813   4.147  14.371  0.5149  1.4614 -0.8016
 4097TIP3   OH233705   3.632   3.191   3.059 -0.3125  0.3163 -0.5739
 4097TIP3    H133706   3.611   3.138   2.983 -0.8967  1.1613 -1.0233
 4097TIP3    H233707   3.658   3.128   3.126  0.0165 -0.4488 -1.4032
 4098TIP3   OH233708   6.327   2.043  14.815  0.5778  0.2921 -0.0500
 4098TIP3    H133709   6.312   1.954  14.847  0.8943 -0.4879 -1.9449
 4098TIP3    H233710   6.244   2.069  14.777  0.6934  0.5232 -0.1441
 4099TIP3   OH233711   5.731   1.457   3.952 -0.7874  0.3350 -0.6118
 4099TIP3    H133712   5.788   1.517   4.001 -1.5079 -0.5467  1.4290
 4099TIP3    H233713   5.789   1.385   3.926 -0.4444  0.6735 -0.7914
 4100TIP3   OH233714   2.777   3.218   5.783  0.2388 -0.4497 -0.0366
 4100TIP3    H133715   2.753   3.138   5.831  0.3639 -0.0124  0.7748
 4100TIP3    H233716   2.825   3.271   5.847  2.6753 -0.9123 -1.3580
 4101TIP3   OH233717   6.549   4.131  16.802 -0.7307 -0.3627 -0.3662
 4101TIP3    H133718   6.629   4.148  16.851 -1.5214  1.4655  0.3979
 4101TIP3    H233719   6.578   4.104  16.715  0.7198  0.4426 -0.1564
 4102TIP3   OH233720   0.850   2.822   5.847 -0.0847  0.7063 -0.6387
 4102TIP3    H133721   0.885   2.909   5.867 -1.1246  1.1404 -0.6182
 4102TIP3    H233722   0.817   2.789   5.931 -0.2222  0.5461 -0.7530
 4103TIP3   OH233723   3.010   5.139  11.159 -0.5280 -0.1120 -0.0537
 4103TIP3    H133724   3.047   5.226  11.145 -0.1215 -0.4791 -1.4057
 4103TIP3    H233725   3.086   5.082  11.169 -0.7817 -0.1343  2.3190
 4104TIP3   OH233726   5.783   4.003  16.494 -0.0733  0.3224 -0.2553
 4104TIP3    H133727   5.827   3.955  16.564 -1.0037  0.5509  0.5017
 4104TIP3    H233728   5.780   3.942  16.421 -0.8836 -0.6369  0.5599
 4105TIP3   OH233729   6.499   1.815  14.244 -0.6885  0.0185 -0.0709
 4105TIP3    H133730   6.476   1.736  14.196  0.5946 -0.3274 -0.1454
 4105TIP3    H233731   6.420   1.836  14.295 -0.7686 -1.8101  0.6410
 4106TIP3   OH233732   4.137   6.463  17.041  0.3183  0.0171 -0.2821
 4106TIP3    H133733   4.118   6.396  16.976  0.4098 -1.6661  1.3337
 4106TIP3    H233734   4.176   6.415  17.115 -0.1064  1.7698  1.1690
 4107TIP3   OH233735   1.470   1.351  16.036 -0.8179  0.2201 -0.2753
 4107TIP3    H133736   1.472   1.308  16.122 -1.1405 -1.3064 -0.9857
 4107TIP3    H233737   1.485   1.443  16.055  0.8737 -0.2955  1.2794
 4108TIP3   OH233738   2.900   3.522   4.282 -0.0048 -0.4348 -0.0368
 4108TIP3    H133739   2.995   3.529   4.293  0.0512 -1.4537  0.2548
 4108TIP3    H233740   2.865   3.598   4.328  0.5579 -1.3939  2.1083
 4109TIP3   OH233741   3.432   0.462  16.064  0.0497 -0.4849  0.1761
 4109TIP3    H133742   3.465   0.403  15.996  1.9522  0.1118  0.5301
 4109TIP3    H233743   3.427   0.547  16.022 -0.5872 -0.4612  0.2859
 4110TIP3   OH233744   2.472   0.528  13.921  0.4372 -0.5702 -0.3513
 4110TIP3    H133745   2.474   0.529  13.825  1.1185 -1.4817 -0.3630
 4110TIP3    H233746   2.538   0.462  13.946  0.8687  0.2483  0.7631
 4111TIP3   OH233747   6.680   4.138   0.865 -0.5784  0.4651 -0.0530
 4111TIP3    H133748   6.603   4.081   0.865 -0.5586  0.4292 -1.0081
 4111TIP3    H233749   6.750   4.084   0.828  0.3288 -0.0277  2.1861
 4112TIP3   OH233750   5.887   4.753  12.492 -0.2538 -0.4040 -0.0986
 4112TIP3    H133751   5.876   4.674  12.544  1.1652  0.9459  2.4857
 4112TIP3    H233752   5.976   4.746  12.456  0.0892  0.2139  0.5977
 4113TIP3   OH233753   5.521   4.130  16.267  0.4690 -0.1203 -0.2563
 4113TIP3    H133754   5.447   4.172  16.223  0.6943 -0.3020 -0.8155
 4113TIP3    H233755   5.481   4.074  16.333  0.0001 -1.5860 -1.7200
 4114TIP3   OH233756   0.990   2.446  12.609 -0.0052 -0.6000  0.0163
 4114TIP3    H133757   0.945   2.504  12.671 -4.3218 -2.6248 -0.8743
 4114TIP3    H233758   0.977   2.488  12.524  1.9025 -0.1437 -0.1036
 4115TIP3   OH233759   0.795   3.985  15.303  0.3457 -0.0604  0.1987
 4115TIP3    H133760   0.836   4.017  15.383 -1.1961  0.8476  0.6551
 4115TIP3    H233761   0.812   3.890  15.304  2.2553  0.2514  0.4323
 4116TIP3   OH233762   3.017   2.038  11.547  0.5724  0.2081 -0.0229
 4116TIP3    H133763   2.984   2.017  11.635 -0.6871 -0.3683 -0.6140
 4116TIP3    H233764   3.043   1.954  11.511  2.5619  0.6175  0.3343
 4117TIP3   OH233765   4.730   4.051  12.521  0.3684 -0.0813 -0.3758
 4117TIP3    H133766   4.698   4.089  12.603  1.2819 -0.4640  0.1781
 4117TIP3    H233767   4.661   4.069  12.457  0.2125  1.3494  0.1684
 4118TIP3   OH233768   0.684   5.901  13.557  0.2071 -0.4131 -0.2562
 4118TIP3    H133769   0.722   5.919  13.471 -1.0204  2.8692 -0.2576
 4118TIP3    H233770   0.728   5.961  13.617 -1.1053 -0.4279  0.7865
 4119TIP3   OH233771   2.910   5.875   4.808  0.7107 -0.6303 -0.2209
 4119TIP3    H133772   2.983   5.905   4.755  0.6001 -1.3432 -0.8023
 4119TIP3    H233773   2.891   5.787   4.774 -2.0268  0.4366 -1.8146
 4120TIP3   OH233774   1.933   1.790   0.355 -0.1401 -0.4157 -0.4262
 4120TIP3    H133775   1.841   1.774   0.334 -0.2301 -2.3673  1.1384
 4120TIP3    H233776   1.978   1.712   0.325  1.0006  0.4030 -0.9153
 4121TIP3   OH233777   2.841   4.289  12.476  0.2533 -0.1520 -0.6544
 4121TIP3    H133778   2.842   4.194  12.465 -1.4655  0.0186 -2.8340
 4121TIP3    H233779   2.764   4.318  12.427  0.4052  2.3335  0.4468
 4122TIP3   OH233780   6.481   1.546   2.924 -0.4804 -0.2698 -0.2293
 4122TIP3    H133781   6.445   1.597   2.851 -0.5380  0.8728  0.5777
 4122TIP3    H233782   6.571   1.577   2.933 -0.5386 -0.2598  0.3208
 4123TIP3   OH233783   1.659   4.928   5.390  0.0881 -0.4679  0.0529
 4123TIP3    H133784   1.695   4.885   5.312  0.4360  0.7404 -0.4660
 4123TIP3    H233785   1.567   4.942   5.369 -0.0777 -1.0992  0.3053
 4124TIP3   OH233786   4.831   4.894  13.839  0.0641 -0.0441  0.3192
 4124TIP3    H133787   4.786   4.879  13.922  0.2225 -0.5858  0.3137
 4124TIP3    H233788   4.877   4.977  13.851 -1.2966  0.7620  0.1619
 4125TIP3   OH233789   2.004   5.522   1.443 -0.3653 -0.2853  0.1727
 4125TIP3    H133790   2.023   5.572   1.522  0.2170 -1.1185  0.5813
 4125TIP3    H233791   2.090   5.489   1.415 -0.5077  0.3161 -1.0315
 4126TIP3   OH233792   3.051   0.836  10.381  0.2421 -0.7655 -0.0235
 4126TIP3    H133793   3.047   0.928  10.409 -1.4431 -1.1921  1.3573
 4126TIP3    H233794   3.066   0.788  10.463  1.1646 -1.7336 -0.7400
 4127TIP3   OH233795   2.004   1.094   3.156 -0.5642 -0.3893  0.1581
 4127TIP3    H133796   2.014   1.079   3.062  1.3880  0.7558  0.1422
 4127TIP3    H233797   2.044   1.179   3.172  1.0022 -1.4231  2.3228
 4128TIP3   OH233798   0.583   2.479  16.523 -0.1106  0.2161 -0.2884
 4128TIP3    H133799   0.635   2.420  16.578 -1.5721 -0.6529  0.2001
 4128TIP3    H233800   0.605   2.454  16.433 -1.3741 -1.7385 -0.1118
 4129TIP3   OH233801   6.572   1.594   0.445 -0.5374  0.2176 -0.8359
 4129TIP3    H133802   6.617   1.679   0.450  0.8632 -0.5515  0.5098
 4129TIP3    H233803   6.499   1.609   0.385 -1.8965  3.1077  1.2404
 4130TIP3   OH233804   0.036   0.215  14.726 -0.3305 -0.5600  0.2334
 4130TIP3    H133805  -0.058   0.227  14.716 -0.1735 -0.4630 -1.4064
 4130TIP3    H233806   0.062   0.162  14.650  1.3464  1.7136 -0.9206
 4131TIP3   OH233807   0.772   5.890  16.419  0.4105 -0.2781 -0.3441
 4131TIP3    H133808   0.827   5.966  16.436 -0.8906  0.9293 -1.3161
 4131TIP3    H233809   0.750   5.856  16.506  1.0130  0.4531  0.0982
 4132TIP3   OH233810   0.282   3.156  11.962 -0.6167  0.1791  0.5237
 4132TIP3    H133811   0.365   3.202  11.977 -1.0539  1.2305 -0.1996
 4132TIP3    H233812   0.276   3.147  11.867 -1.0677 -0.3982  0.6016
 4133TIP3   OH233813   1.789   0.619  15.286 -0.3101  0.2026  0.1309
 4133TIP3    H133814   1.873   0.665  15.274  0.0059 -0.2505  0.5704
 4133TIP3    H233815   1.787   0.555  15.215 -0.5847  0.6383 -0.2641
 4134TIP3   OH233816   1.478   5.498  14.169  0.0662 -0.2458  0.7853
 4134TIP3    H133817   1.538   5.565  14.200 -1.9695  1.5437  1.1478
 4134TIP3    H233818   1.486   5.427  14.233  1.0619  0.3599  1.3628
 4135TIP3   OH233819   4.942   3.227  14.058  0.2438  0.4149  0.2491
 4135TIP3    H133820   4.863   3.175  14.044  1.9758 -2.2904 -0.1540
 4135TIP3    H233821   4.932   3.264  14.146 -2.3304  1.9356 -0.5603
 4136TIP3   OH233822   6.255   0.915  11.992 -0.2159 -0.2585 -0.3101
 4136TIP3    H133823   6.305   0.859  11.932 -0.1009  0.2384 -0.6804
 4136TIP3    H233824   6.322   0.960  12.044 -0.3202 -1.5167  0.9835
 4137TIP3   OH233825   4.393   2.957  15.677  0.0448  0.2242 -0.0006
 4137TIP3    H133826   4.456   2.971  15.748  0.3131  1.1579 -0.4045
 4137TIP3    H233827   4.347   3.040  15.669  0.3359  0.2832 -1.2181
 4138TIP3   OH233828   1.148   0.877   1.847 -0.0702  0.0843  0.1308
 4138TIP3    H133829   1.176   0.808   1.787 -1.7668 -0.5914  0.0757
 4138TIP3    H233830   1.230   0.911   1.884  0.8007 -1.9770  0.2220
 4139TIP3   OH233831   0.190   3.644  14.500 -0.3174  0.1138  0.3166
 4139TIP3    H133832   0.250   3.570  14.496 -1.5436 -0.8709 -0.5771
 4139TIP3    H233833   0.103   3.605  14.503 -1.0318  1.5035 -0.8155
 4140TIP3   OH233834   3.374   3.334   0.868  0.4672 -0.4756 -0.3831
 4140TIP3    H133835   3.303   3.394   0.844 -0.7192 -1.5005  0.4086
 4140TIP3    H233836   3.429   3.329   0.790 -0.4265  0.2124 -1.0806
 4141TIP3   OH233837   4.358   5.502  13.595  0.5022 -0.4595 -0.4319
 4141TIP3    H133838   4.391   5.541  13.514  0.7005  0.9319  0.2810
 4141TIP3    H233839   4.437   5.487  13.648  0.5303 -2.7103 -1.0153
 4142TIP3   OH233840   1.582   4.017  17.069 -0.5583  0.1874  0.4419
 4142TIP3    H133841   1.659   4.024  17.125 -0.4036 -3.2867  0.8840
 4142TIP3    H233842   1.617   4.009  16.980 -0.5152  0.3626  0.4442
 4143TIP3   OH233843   5.404   1.938  13.708 -0.0712 -0.4146  0.0633
 4143TIP3    H133844   5.481   1.908  13.660 -0.8370 -2.2513 -0.0805
 4143TIP3    H233845   5.382   1.866  13.767 -2.2935 -0.3783 -0.6383
 4144TIP3   OH233846   0.698   6.502   2.783 -0.2417  0.0814 -0.6230
 4144TIP3    H133847   0.641   6.576   2.803  0.1655  0.2046  0.1294
 4144TIP3    H233848   0.659   6.428   2.829  0.3897  0.2440  0.1987
 4145TIP3   OH233849   6.028   0.160   5.276 -0.1483  0.0433 -0.3511
 4145TIP3    H133850   5.970   0.091   5.243  1.2965 -1.2685 -0.2401
 4145TIP3    H233851   6.092   0.173   5.206  1.3901 -0.9196  0.8116
 4146TIP3   OH233852   1.551   3.387   5.920 -0.0532 -0.5820  0.1672
 4146TIP3    H133853   1.541   3.460   5.980 -1.2713  0.6837 -1.4784
 4146TIP3    H233854   1.642   3.360   5.930 -0.2019 -0.3712  2.4672
 4147TIP3   OH233855   3.715   5.957  12.262  0.3882  0.7961  0.0088
 4147TIP3    H133856   3.749   5.947  12.351  4.3809  0.2078 -1.4064
 4147TIP3    H233857   3.707   5.867  12.230  0.0214  1.0403 -0.5955
 4148TIP3   OH233858   2.451   1.066   1.806 -0.6551  0.2341 -0.6402
 4148TIP3    H133859   2.539   1.030   1.794  0.1689  2.3082 -1.1804
 4148TIP3    H233860   2.393   0.997   1.774  0.7993 -0.9330 -0.8846
 4149TIP3   OH233861   4.102   0.117   5.515 -0.4380 -0.3188 -0.0210
 4149TIP3    H133862   4.151   0.039   5.491 -0.4543 -0.2724 -0.2069
 4149TIP3    H233863   4.105   0.172   5.437 -2.0585 -0.9443 -0.5657
 4150TIP3   OH233864   6.378   5.449   4.994  0.1621 -0.4287 -0.3241
 4150TIP3    H133865   6.348   5.467   4.905  0.0222 -0.5455 -0.3006
 4150TIP3    H233866   6.473   5.457   4.989  0.0696  1.2723 -0.1114
 4151TIP3   OH233867   4.802   6.791  13.324 -0.1960  0.0191 -0.9378
 4151TIP3    H133868   4.882   6.799  13.376 -1.4311  0.0834  1.0426
 4151TIP3    H233869   4.828   6.739  13.248  1.3594 -1.3997  0.4953
 4152TIP3   OH233870   1.788   5.416  15.950 -0.5091 -0.5316  0.0048
 4152TIP3    H133871   1.779   5.502  15.907  1.6127 -0.8253 -1.1540
 4152TIP3    H233872   1.795   5.437  16.043  0.8048  0.6608 -0.3219
 4153TIP3   OH233873   0.555   0.430   1.010  0.0839 -0.7244  0.1711
 4153TIP3    H133874   0.480   0.448   0.953  0.1435 -1.8353 -0.2872
 4153TIP3    H233875   0.601   0.357   0.967  1.5134  0.0328  0.3655
 4154TIP3   OH233876   3.979   5.029  12.012  0.4863  0.3794 -0.1757
 4154TIP3    H133877   3.978   5.115  12.053  0.1821  0.4897 -0.4147
 4154TIP3    H233878   3.969   4.968  12.085  3.8707  0.3484  0.4501
 4155TIP3   OH233879   2.056   1.353   4.375 -0.7342  0.6225 -0.7387
 4155TIP3    H133880   2.046   1.425   4.313 -2.3253 -1.4229 -3.0626
 4155TIP3    H233881   2.054   1.274   4.320  2.1527 -1.2259  1.5099
 4156TIP3   OH233882   2.827   2.657  11.221 -0.0633 -0.0828  0.2529
 4156TIP3    H133883   2.877   2.607  11.285  0.4389 -0.4364 -0.3968
 4156TIP3    H233884   2.879   2.735  11.204 -0.9380  0.7733  1.4040
 4157TIP3   OH233885   2.017   4.062   0.230 -0.0172  0.5525  0.0388
 4157TIP3    H133886   2.029   4.018   0.314 -0.0806 -1.3684 -0.9109
 4157TIP3    H233887   2.106   4.084   0.202  0.2103 -0.8445 -0.4052
 4158TIP3   OH233888   4.305   4.823  15.954 -0.7441  0.2633 -0.0756
 4158TIP3    H133889   4.355   4.879  16.013 -0.4426  0.3588 -0.4171
 4158TIP3    H233890   4.306   4.737  15.996 -0.0381  0.1962 -0.2265
 4159TIP3   OH233891   6.408   1.430  12.472  0.3808  0.0208 -0.2198
 4159TIP3    H133892   6.376   1.516  12.445  0.4416 -0.5953 -2.4450
 4159TIP3    H233893   6.370   1.369  12.409 -0.1664 -1.7172  1.6595
 4160TIP3   OH233894   3.304   5.663   1.570 -0.0619 -0.5555  0.0289
 4160TIP3    H133895   3.370   5.728   1.544 -0.9675 -0.2410 -1.6897
 4160TIP3    H233896   3.355   5.589   1.603  1.0102  0.9172  1.9101
 4161TIP3   OH233897   4.958   1.385   4.062 -0.3263 -0.5096 -0.0691
 4161TIP3    H133898   5.014   1.351   3.992 -0.0361  1.2686 -0.7447
 4161TIP3    H233899   4.884   1.424   4.016 -1.4231 -1.5715  0.7565
 4162TIP3   OH233900   5.488   1.505  11.182 -0.8375  0.2385 -0.2309
 4162TIP3    H133901   5.456   1.553  11.259 -0.7451 -0.9408  0.5694
 4162TIP3    H233902   5.512   1.574  11.120 -0.6033  1.2410  0.9145
 4163TIP3   OH233903   5.516   2.665   5.441  0.0052 -0.0147  0.8915
 4163TIP3    H133904   5.463   2.674   5.520 -1.3766  1.4834 -0.1352
 4163TIP3    H233905   5.462   2.613   5.382  0.6676 -0.4188  0.6329
 4164TIP3   OH233906   2.354   5.718   4.187  0.3062 -0.2636 -0.0201
 4164TIP3    H133907   2.334   5.765   4.269  2.8546  2.9323 -0.9940
 4164TIP3    H233908   2.301   5.763   4.121 -1.9572 -3.0098 -0.2412
 4165TIP3   OH233909   4.925   0.948   1.508 -0.2284  0.0268  0.1653
 4165TIP3    H133910   4.983   0.889   1.555  1.3892 -0.1288 -1.8747
 4165TIP3    H233911   4.837   0.912   1.521  0.5505 -1.9333  0.2699
 4166TIP3   OH233912   0.192   0.309   1.633  0.3158  0.2383 -0.2370
 4166TIP3    H133913   0.145   0.295   1.715  0.0500  0.9017 -0.2701
 4166TIP3    H233914   0.254   0.236   1.628 -1.9392 -1.7355 -1.1026
 4167TIP3   OH233915   5.890   6.464  13.252 -0.3213  0.1023 -0.2633
 4167TIP3    H133916   5.925   6.506  13.174  1.5250  0.2142  0.5648
 4167TIP3    H233917   5.928   6.376  13.251  0.1049  0.2583  0.7056
 4168TIP3   OH233918   4.483   1.352  13.592  0.3958 -0.0926 -0.4189
 4168TIP3    H133919   4.556   1.295  13.617 -1.5199 -2.2068  0.7044
 4168TIP3    H233920   4.499   1.433  13.640  0.8361 -1.3501  1.6873
 4169TIP3   OH233921   6.203   2.547  12.934 -0.1889  0.1501 -0.0357
 4169TIP3    H133922   6.255   2.618  12.896  0.0252 -0.3231 -0.6368
 4169TIP3    H233923   6.118   2.555  12.890 -0.1228 -0.0453 -0.1993
 4170TIP3   OH233924   2.699   2.499  13.070 -0.4188 -0.7685  0.2997
 4170TIP3    H133925   2.659   2.553  13.002  1.0914 -0.8908 -0.7314
 4170TIP3    H233926   2.628   2.479  13.131 -1.4782  0.5502 -0.4711
 4171TIP3   OH233927   6.742   5.041  14.247 -0.6302  0.0621 -0.3427
 4171TIP3    H133928   6.670   4.979  14.235  0.0712 -0.4024 -2.9285
 4171TIP3    H233929   6.808   5.013  14.183  2.4327 -0.2602  2.6685
 4172TIP3   OH233930   1.252   4.730  16.615  0.2463 -0.1005  0.0386
 4172TIP3    H133931   1.245   4.690  16.528 -0.6801  0.3667 -0.1113
 4172TIP3    H233932   1.165   4.766  16.632  0.3196 -0.4746  1.3056
 4173TIP3   OH233933   4.806   5.820   1.459 -0.3342  0.0329  0.1733
 4173TIP3    H133934   4.772   5.861   1.539 -1.1195  0.0988 -0.1896
 4173TIP3    H233935   4.737   5.759   1.432 -0.5591  0.8191 -1.0695
 4174TIP3   OH233936   4.366   2.510  11.215 -0.0668  0.3314 -0.1638
 4174TIP3    H133937   4.328   2.454  11.282  1.5500 -0.8253 -0.1357
 4174TIP3    H233938   4.426   2.568  11.263  2.3008 -1.5599 -0.6694
 4175TIP3   OH233939   0.356   6.780  12.960  0.5448 -0.2399  0.0409
 4175TIP3    H133940   0.281   6.824  12.999  0.3531 -0.9180  0.4537
 4175TIP3    H233941   0.321   6.699  12.924  1.4599 -1.9493  2.6783
 4176TIP3   OH233942   1.963   3.793  16.257 -1.0339 -0.4440  0.0551
 4176TIP3    H133943   2.018   3.806  16.334 -1.8458 -1.2947  0.7949
 4176TIP3    H233944   1.887   3.848  16.273  0.0022  1.5785 -1.4566
 4177TIP3   OH233945   5.287   6.121  15.510 -0.5897 -0.2327 -0.1716
 4177TIP3    H133946   5.330   6.046  15.469 -1.4828 -0.3986 -0.8518
 4177TIP3    H233947   5.325   6.127  15.597 -1.1792 -2.0858  0.2610
 4178TIP3   OH233948   2.143   3.957  12.618 -0.1593  0.0198  0.4346
 4178TIP3    H133949   2.073   3.986  12.675  0.0467  0.4584  0.4678
 4178TIP3    H233950   2.120   3.867  12.594 -1.1380  0.4331 -0.2041
 4179TIP3   OH233951   3.107   5.942   4.583 -0.1989  0.3192  0.0921
 4179TIP3    H133952   3.157   5.868   4.551 -0.8605 -0.0882 -0.0219
 4179TIP3    H233953   3.169   6.015   4.584 -0.0265  0.2467 -1.6841
 4180TIP3   OH233954   6.063   2.449   2.170  0.4300  0.3169  0.0170
 4180TIP3    H133955   6.113   2.383   2.219  0.8819  1.6210  1.3882
 4180TIP3    H233956   5.997   2.479   2.231  0.4132  1.3399 -0.4892
 4181TIP3   OH233957   0.281   6.745  11.552  0.1307  0.0747 -0.3473
 4181TIP3    H133958   0.267   6.699  11.635 -0.9027  0.6242 -0.1953
 4181TIP3    H233959   0.327   6.682  11.497 -0.7807 -0.9495  0.0334
 4182TIP3   OH233960   4.222   2.338   5.955 -0.4956 -0.5232  0.0286
 4182TIP3    H133961   4.240   2.399   6.027 -1.6549  0.1225 -0.2085
 4182TIP3    H233962   4.201   2.255   5.998  1.3333 -0.8637  0.3490
 4183TIP3   OH233963   4.336   5.783   3.700 -0.3743  0.1361  0.1004
 4183TIP3    H133964   4.359   5.699   3.660 -0.5431 -0.0181  0.3249
 4183TIP3    H233965   4.334   5.845   3.626 -0.0479 -0.0144 -0.0359
 4184TIP3   OH233966   4.963   0.565  15.188  0.3309  0.6224  0.5409
 4184TIP3    H133967   5.002   0.478  15.186 -1.4488 -0.2082  0.1441
 4184TIP3    H233968   5.036   0.624  15.206  1.6985 -0.8672  0.0403
 4185TIP3   OH233969   6.357   3.986   3.486  0.0050  0.3831 -0.1735
 4185TIP3    H133970   6.329   4.066   3.441  0.6341 -0.8943 -3.0628
 4185TIP3    H233971   6.453   3.992   3.488  0.0286 -0.0389  0.0562
 4186TIP3   OH233972   3.435   5.341   0.283 -0.6254 -0.0175  0.2187
 4186TIP3    H133973   3.348   5.379   0.285 -1.0099 -0.8831  0.2307
 4186TIP3    H233974   3.476   5.376   0.204 -1.0267  0.2998  0.1541
 4187TIP3   OH233975   5.692   0.467   5.470 -0.0195 -0.3696  0.2431
 4187TIP3    H133976   5.763   0.434   5.525 -0.6300  0.1884  1.4084
 4187TIP3    H233977   5.665   0.548   5.513  0.2228  0.6835 -1.5162
 4188TIP3   OH233978   1.099   5.654   2.188 -0.0825  0.4313 -0.2155
 4188TIP3    H133979   1.046   5.665   2.109 -1.2872  0.1809  0.5263
 4188TIP3    H233980   1.095   5.739   2.232 -0.9064  0.0762  0.4373
 4189TIP3   OH233981   0.329   0.322   4.564 -0.1720  0.0567 -0.3739
 4189TIP3    H133982   0.284   0.238   4.574 -2.0257  1.0755  0.5259
 4189TIP3    H233983   0.332   0.358   4.652 -0.7780  1.5727 -0.9325
 4190TIP3   OH233984   3.615   6.559  14.808 -0.3461  0.0671 -0.6836
 4190TIP3    H133985   3.689   6.501  14.827 -0.9598 -0.1936  1.1878
 4190TIP3    H233986   3.654   6.635  14.767  1.0756  0.1904  0.8023
 4191TIP3   OH233987   2.912   3.833  16.920 -0.8144 -0.0626  0.3955
 4191TIP3    H133988   3.004   3.807  16.925  0.0957  2.7312 -0.1300
 4191TIP3    H233989   2.878   3.789  16.842  0.6412  0.3685 -0.5148
 4192TIP3   OH233990   0.704   5.134  14.057 -0.5080  0.0920 -0.0529
 4192TIP3    H133991   0.619   5.144  14.014 -0.4795 -2.4099 -0.8430
 4192TIP3    H233992   0.683   5.104  14.145 -0.4552  1.2206  0.3591
 4193TIP3   OH233993   1.920   1.442  11.011  0.5075 -0.3501 -0.0308
 4193TIP3    H133994   1.942   1.505  10.942 -1.3251 -0.8982 -1.1856
 4193TIP3    H233995   1.874   1.372  10.965  0.2791 -1.3177  1.5964
 4194TIP3   OH233996   3.870   3.601  14.300  0.0708  0.0971  0.1902
 4194TIP3    H133997   3.954   3.642  14.278  0.4309  0.0054  1.3291
 4194TIP3    H233998   3.805   3.669  14.284  0.4534  0.4500  0.1193
 4195TIP3   OH233999   5.344   4.873   2.589  0.3943 -0.5305  0.1684
 4195TIP3    H134000   5.316   4.900   2.677  0.7686  0.9958 -0.1434
 4195TIP3    H234001   5.269   4.895   2.533  0.2336 -1.3092  0.0742
 4196TIP3   OH234002   4.871   0.996   4.947  0.0339  0.5778  0.5288
 4196TIP3    H134003   4.821   1.067   4.907  0.0180  0.6419  0.6635
 4196TIP3    H234004   4.910   0.950   4.872 -0.9067  0.0066  0.3729
 4197TIP3   OH234005   1.053   1.317  14.857  0.1217  0.1929 -0.2153
 4197TIP3    H134006   1.134   1.293  14.902 -1.2345 -0.6350  1.9859
 4197TIP3    H234007   1.068   1.405  14.824  2.2446 -0.3464 -0.8090
 4198TIP3   OH234008   2.552   0.918  15.821  0.1989  0.3003  0.0971
 4198TIP3    H134009   2.603   0.998  15.808 -1.8021  1.6194 -0.0633
 4198TIP3    H234010   2.574   0.863  15.745  1.6462  0.6314  0.2441
 4199TIP3   OH234011   2.905   5.488  10.762  0.1222 -0.5442 -0.2427
 4199TIP3    H134012   2.869   5.577  10.765  0.2107 -0.5059  2.1881
 4199TIP3    H234013   2.988   5.497  10.715 -0.3018  0.4701 -0.8340
 4200TIP3   OH234014   5.859   2.884  13.914  0.1626  0.1647  0.1936
 4200TIP3    H134015   5.780   2.903  13.864  0.0358  0.4768  0.5093
 4200TIP3    H234016   5.929   2.928  13.865  0.1043  0.0954  0.0492
 4201TIP3   OH234017   0.842   4.601   4.297  0.7229  0.3476 -0.4993
 4201TIP3    H134018   0.758   4.635   4.265  1.0596  1.3505 -0.3666
 4201TIP3    H234019   0.848   4.632   4.387  1.4501  0.7063 -0.6597
 4202TIP3   OH234020   5.439   3.184   4.537  0.0187 -0.1237 -0.2048
 4202TIP3    H134021   5.391   3.209   4.616 -2.1391 -0.6709 -1.2655
 4202TIP3    H234022   5.381   3.210   4.465  1.3482 -0.8186 -1.5777
 4203TIP3   OH234023   4.671   1.778   3.802  0.1350  0.6964  0.6796
 4203TIP3    H134024   4.725   1.858   3.801  1.2758  0.0224 -2.4703
 4203TIP3    H234025   4.655   1.759   3.710 -2.1255 -1.4549  1.4204
 4204TIP3   OH234026   6.394   1.614  14.061 -0.5445 -0.3191 -0.3938
 4204TIP3    H134027   6.313   1.563  14.054 -0.5778 -0.4428  0.7269
 4204TIP3    H234028   6.438   1.601  13.977 -0.4213 -2.4270 -0.0410
 4205TIP3   OH234029   3.896   4.301  14.081  0.2805  0.1891 -0.2920
 4205TIP3    H134030   3.927   4.227  14.133  1.5219 -0.1708 -1.4786
 4205TIP3    H234031   3.945   4.376  14.113 -0.7081  0.4588  0.6564
 4206TIP3   OH234032   1.167   0.538   4.331 -0.0120  0.4223  0.5154
 4206TIP3    H134033   1.098   0.532   4.264 -0.8554 -0.9063  1.4427
 4206TIP3    H234034   1.131   0.597   4.397 -0.7891 -1.0825  1.5132
 4207TIP3   OH234035   0.519   6.296  14.028 -0.3713  0.3700  0.0000
 4207TIP3    H134036   0.450   6.239  14.059  0.9836 -1.5065 -0.2489
 4207TIP3    H234037   0.514   6.291  13.932 -0.0838  0.4789 -0.0233
 4208TIP3   OH234038   0.423   3.192   4.256  0.1248  0.5492  0.1421
 4208TIP3    H134039   0.342   3.145   4.277 -0.1987  1.1691  0.3232
 4208TIP3    H234040   0.453   3.227   4.340  1.7753 -1.4566  0.4695
 4209TIP3   OH234041   2.686   4.412  12.294 -0.1582 -0.1421  0.4253
 4209TIP3    H134042   2.600   4.375  12.273 -0.1820  0.0151  0.2458
 4209TIP3    H234043   2.669   4.506  12.306  0.1363  0.0377 -0.4873
 4210TIP3   OH234044   5.748   0.737   4.027  0.2359 -0.3048 -0.0981
 4210TIP3    H134045   5.734   0.828   4.052 -0.9602 -0.4357 -0.2691
 4210TIP3    H234046   5.751   0.738   3.931 -3.4509 -0.8872 -0.3352
 4211TIP3   OH234047   1.489   2.208  16.154 -0.6137 -0.8957  0.7510
 4211TIP3    H134048   1.582   2.208  16.129 -0.5125  2.3073  0.7764
 4211TIP3    H234049   1.442   2.216  16.071 -0.8673 -1.6869  0.8065
 4212TIP3   OH234050   3.431   2.563   3.932  0.4538  0.0249  0.1788
 4212TIP3    H134051   3.424   2.600   4.020 -2.6502 -0.3195  0.1827
 4212TIP3    H234052   3.409   2.637   3.874  2.4655  0.2479 -0.3541
 4213TIP3   OH234053   0.928   0.242   4.406  0.2307  0.0465 -0.4686
 4213TIP3    H134054   0.955   0.274   4.492  2.0812  1.3372 -1.4650
 4213TIP3    H234055   1.010   0.223   4.360 -0.6227  0.8333 -2.4531
 4214TIP3   OH234056   6.099   4.625  12.018 -0.1834  0.3697 -0.0344
 4214TIP3    H134057   6.053   4.605  11.937 -0.8258 -0.9820  0.6379
 4214TIP3    H234058   6.056   4.704  12.051 -1.5693 -0.4564  0.2168
 4215TIP3   OH234059   3.115   0.259  12.865 -0.1703  0.1869 -0.2984
 4215TIP3    H134060   3.155   0.297  12.787  0.5453  1.0565  0.4640
 4215TIP3    H234061   3.188   0.220  12.913 -0.8426 -1.9564 -0.9099
 4216TIP3   OH234062   4.650   2.646  16.635  0.2954 -0.5224 -0.1956
 4216TIP3    H134063   4.680   2.557  16.653 -0.4146 -0.9569 -1.0342
 4216TIP3    H234064   4.614   2.677  16.718 -0.2630 -1.3616 -0.1049
 4217TIP3   OH234065   2.704   4.118  14.853  0.3284 -0.2386 -0.5115
 4217TIP3    H134066   2.632   4.171  14.818 -1.7216 -2.5013 -0.0021
 4217TIP3    H234067   2.727   4.161  14.935 -2.1738 -0.7324  0.5480
 4218TIP3   OH234068   1.275   3.293   4.515  0.4790 -0.1095  0.0674
 4218TIP3    H134069   1.279   3.198   4.526 -0.9709 -0.2448 -0.4131
 4218TIP3    H234070   1.197   3.307   4.462  0.0889  1.4395  1.0195
 4219TIP3   OH234071   4.377   5.022  15.776 -0.4153 -0.5245 -0.3482
 4219TIP3    H134072   4.336   4.952  15.826  0.7723 -1.9057 -1.2302
 4219TIP3    H234073   4.317   5.038  15.703 -1.3980  0.4296  0.6340
 4220TIP3   OH234074   4.023   4.691  13.066  0.0627  0.3331 -0.4223
 4220TIP3    H134075   3.970   4.703  12.987  1.0861 -1.6232 -1.4708
 4220TIP3    H234076   4.033   4.596  13.074 -0.2494  0.4663  2.2546
 4221TIP3   OH234077   1.308   1.772  12.860  0.0767 -0.1605  0.1260
 4221TIP3    H134078   1.315   1.676  12.864  0.6880 -0.0893  2.6543
 4221TIP3    H234079   1.398   1.803  12.868  0.0247  0.6827 -1.9297
 4222TIP3   OH234080   4.410   1.834   0.135 -0.1690 -0.6065 -0.3986
 4222TIP3    H134081   4.506   1.837   0.129 -0.0371 -1.8411  0.7264
 4222TIP3    H234082   4.388   1.902   0.199 -0.1693  0.5035 -1.5369
 4223TIP3   OH234083   1.610   4.268   2.891 -0.5679  0.1253  0.0376
 4223TIP3    H134084   1.617   4.352   2.847 -1.0904  0.0934 -0.1135
 4223TIP3    H234085   1.643   4.283   2.979  1.4859 -0.0461 -0.6475
 4224TIP3   OH234086   5.329   4.333   1.170  0.5141 -0.6164 -0.3510
 4224TIP3    H134087   5.237   4.359   1.176 -0.2205 -2.7433 -1.0780
 4224TIP3    H234088   5.341   4.272   1.243  1.2547 -0.5895 -0.4493
 4225TIP3   OH234089   5.774   3.930   4.576 -0.0693  0.2870  0.3305
 4225TIP3    H134090   5.758   3.881   4.495 -0.5219 -0.0376  0.6138
 4225TIP3    H234091   5.768   4.022   4.549  1.4109  0.2070 -0.3287
 4226TIP3   OH234092   0.281   5.196  15.424 -0.0750 -0.1726 -0.2447
 4226TIP3    H134093   0.342   5.239  15.484 -2.7575  3.1259  0.4399
 4226TIP3    H234094   0.309   5.224  15.337 -0.3403  0.9727  0.0277
 4227TIP3   OH234095   3.121   6.460   2.063  0.1284 -0.1316  0.7010
 4227TIP3    H134096   3.046   6.508   2.029 -0.1390 -1.8057 -1.2973
 4227TIP3    H234097   3.097   6.368   2.054  1.9065 -0.6909  1.2518
 4228TIP3   OH234098   4.574   5.612   0.342  0.3585  0.1947  0.0717
 4228TIP3    H134099   4.525   5.537   0.374  0.2781  0.0773 -0.3234
 4228TIP3    H234100   4.629   5.638   0.415  2.3875 -1.8868 -0.5890
 4229TIP3   OH234101   6.277   4.568   4.831  0.3149  0.2688  0.4262
 4229TIP3    H134102   6.286   4.605   4.919 -1.8461  1.5209  0.1819
 4229TIP3    H234103   6.221   4.492   4.842  0.9445 -0.2312  0.2565
 4230TIP3   OH234104   2.357   0.783  16.727 -0.0898 -0.3632  0.5289
 4230TIP3    H134105   2.447   0.754  16.711 -1.1481 -3.0666 -1.1783
 4230TIP3    H234106   2.325   0.808  16.641 -1.8984 -2.4841  0.5147
 4231TIP3   OH234107   3.527   4.332   4.740  0.1869 -0.3345 -0.1401
 4231TIP3    H134108   3.609   4.359   4.780  0.1679 -0.2537 -0.1552
 4231TIP3    H234109   3.544   4.244   4.707  1.0424  0.5778 -2.3126
 4232TIP3   OH234110   1.305   1.079  16.048  0.5454  0.1180  0.1053
 4232TIP3    H134111   1.327   1.172  16.053  0.7606  0.0866 -0.2583
 4232TIP3    H234112   1.232   1.069  16.109  1.0052  0.3788  0.7236
 4233TIP3   OH234113   4.964   5.702   1.066  0.0791 -0.4062 -0.1319
 4233TIP3    H134114   4.973   5.724   1.158 -0.2175  2.0151 -0.6242
 4233TIP3    H234115   4.871   5.713   1.047 -0.1317 -2.3538 -0.4208
 4234TIP3   OH234116   3.442   6.799   1.013 -0.4223  0.5832 -0.5782
 4234TIP3    H134117   3.500   6.853   1.066  1.0053 -0.3224 -1.1697
 4234TIP3    H234118   3.358   6.847   1.013 -0.2705  0.9547  1.8531
 4235TIP3   OH234119   3.169   4.538   3.915 -0.4529  0.5344 -0.0645
 4235TIP3    H134120   3.144   4.485   3.991  1.8010 -2.0378 -0.9473
 4235TIP3    H234121   3.089   4.546   3.863 -0.9465 -1.9262  0.2176
 4236TIP3   OH234122   0.907   6.630  13.305 -0.4733  0.1134 -0.0395
 4236TIP3    H134123   0.861   6.588  13.232 -1.7735  0.1912  0.7094
 4236TIP3    H234124   0.838   6.649  13.369  0.6381  0.0809  1.1960
 4237TIP3   OH234125   4.123   5.197   2.633  0.2096 -0.0870 -0.2261
 4237TIP3    H134126   4.030   5.179   2.620  0.0756 -1.0107  1.6567
 4237TIP3    H234127   4.167   5.154   2.560 -0.8720  1.1633 -1.6743
 4238TIP3   OH234128   6.697   2.943  12.623 -0.0740 -0.0669 -0.0653
 4238TIP3    H134129   6.679   2.975  12.534  0.0985 -1.3734 -0.5896
 4238TIP3    H234130   6.632   2.873  12.637 -1.0183  1.0435  1.3913
 4239TIP3   OH234131   6.324   0.275   2.228  0.0009 -0.4024 -0.1843
 4239TIP3    H134132   6.417   0.295   2.225  0.5017 -1.1000  4.2153
 4239TIP3    H234133   6.283   0.358   2.255 -0.0054 -1.0687  2.0465
 4240TIP3   OH234134   6.676   5.596   2.025 -0.3751  0.0772  0.2878
 4240TIP3    H134135   6.708   5.575   1.937 -0.6921  0.3464  0.1071
 4240TIP3    H234136   6.625   5.676   2.014  0.3061  0.6050  0.8648
 4241TIP3   OH234137   4.418   4.752   0.261 -0.2457  0.6269  0.0374
 4241TIP3    H134138   4.502   4.740   0.218 -0.7890  0.0886 -0.9035
 4241TIP3    H234139   4.419   4.688   0.333  0.3911  1.0601  0.4255
 4242TIP3   OH234140   4.503   4.606   1.840  0.0702  0.1932 -0.1507
 4242TIP3    H134141   4.547   4.620   1.924  0.7466  1.8900 -0.7377
 4242TIP3    H234142   4.428   4.667   1.842 -0.8042 -0.8573 -0.1775
 4243TIP3   OH234143   5.559   3.813   6.147 -0.3000 -0.3459 -0.2297
 4243TIP3    H134144   5.601   3.743   6.196 -3.4884 -1.4321  1.2041
 4243TIP3    H234145   5.546   3.883   6.211 -0.4609  0.0622 -0.7006
 4244TIP3   OH234146   3.570   5.006   1.675  0.4202  0.0736 -0.2957
 4244TIP3    H134147   3.634   5.064   1.635  0.7883  1.6044  2.2915
 4244TIP3    H234148   3.609   4.919   1.668  2.9641  0.9770  1.3822
 4245TIP3   OH234149   4.340   0.392   6.219  0.1732 -0.2823  0.1987
 4245TIP3    H134150   4.332   0.298   6.203  2.1622 -0.3972 -0.3694
 4245TIP3    H234151   4.342   0.400   6.315  1.9258 -1.0513  0.2588
 4246TIP3   OH234152   1.583   3.983   2.818 -0.2351  0.4581 -0.5633
 4246TIP3    H134153   1.609   3.979   2.726  0.5905  1.2478 -0.3837
 4246TIP3    H234154   1.566   4.076   2.834 -0.6122  0.2901  0.0125
 4247TIP3   OH234155   1.296   5.419  13.221  0.4807  0.5788 -0.0363
 4247TIP3    H134156   1.382   5.380  13.207  0.5713  0.3523  1.0285
 4247TIP3    H234157   1.268   5.384  13.305  0.2258  2.2137  0.5991
 4248TIP3   OH234158   2.859   3.543   1.269  0.1934  0.0935  0.2506
 4248TIP3    H134159   2.837   3.450   1.269 -0.3876  0.2043  1.9269
 4248TIP3    H234160   2.787   3.584   1.220 -0.1018 -0.2203  0.4138
 4249TIP3   OH234161   4.981   2.186  16.397  0.7538  0.0870 -0.6583
 4249TIP3    H134162   5.029   2.223  16.471 -0.8585  1.3003 -0.1546
 4249TIP3    H234163   4.971   2.094  16.419  0.3164  0.4188  0.6859
 4250TIP3   OH234164   4.862   4.309  12.098  0.0207  0.0316 -0.7352
 4250TIP3    H134165   4.934   4.274  12.047  0.2710 -0.1293 -0.2744
 4250TIP3    H234166   4.852   4.399  12.067 -1.6828 -0.8417 -3.1113
 4251TIP3   OH234167   2.949   5.298  15.692 -0.7679 -0.1773 -0.7065
 4251TIP3    H134168   2.983   5.234  15.755 -2.7951 -0.9646 -0.3267
 4251TIP3    H234169   3.027   5.335  15.651  0.6313 -0.1575  1.7326
 4252TIP3   OH234170   3.397   0.320   4.177  0.3071  0.1310  0.5822
 4252TIP3    H134171   3.433   0.238   4.144  0.0731  1.0181 -2.1837
 4252TIP3    H234172   3.304   0.302   4.189  0.4761 -0.3393  1.2203
 4253TIP3   OH234173   6.646   2.742   2.881  0.2112  0.0512  0.2923
 4253TIP3    H134174   6.598   2.809   2.833  1.1041  0.5062  0.0157
 4253TIP3    H234175   6.580   2.676   2.903 -0.4479  0.4532 -0.4445
 4254TIP3   OH234176   4.853   2.106   0.924 -0.0058  0.1181 -0.0222
 4254TIP3    H134177   4.886   2.156   0.999 -0.0461  1.1919 -0.6959
 4254TIP3    H234178   4.830   2.020   0.960 -1.0239  0.9465  1.4157
 4255TIP3   OH234179   3.860   6.316   1.535 -0.6522  1.1905  0.2583
 4255TIP3    H134180   3.876   6.299   1.442  0.9986 -0.3354  0.7746
 4255TIP3    H234181   3.810   6.240   1.564 -0.2133  1.1205  0.8427
 4256TIP3   OH234182   3.983   2.806  13.309  0.6238 -0.2281 -0.0967
 4256TIP3    H134183   3.909   2.864  13.294  0.4628 -0.4473 -0.1393
 4256TIP3    H234184   3.988   2.797  13.404 -0.0314 -1.0328 -0.1341
 4257TIP3   OH234185   2.894   3.338   2.519 -1.2261 -0.0313 -0.1493
 4257TIP3    H134186   2.961   3.276   2.490 -1.5883 -0.6256  0.2570
 4257TIP3    H234187   2.816   3.313   2.469 -1.8657 -1.0833  1.2863
 4258TIP3   OH234188   3.577   6.728   1.767  0.1672 -0.0009  0.0368
 4258TIP3    H134189   3.510   6.781   1.724 -0.1938  0.1608  0.7940
 4258TIP3    H234190   3.566   6.640   1.729 -0.8879 -0.1282  0.6056
 4259TIP3   OH234191   1.017   5.054  16.467 -0.5875  0.4181 -0.1613
 4259TIP3    H134192   1.100   5.095  16.442 -0.2122 -1.1051 -1.6391
 4259TIP3    H234193   0.950   5.109  16.425 -0.1601  0.1930 -1.1812
 4260TIP3   OH234194   4.070   0.161  11.128 -0.4503  0.0537  0.3116
 4260TIP3    H134195   4.021   0.229  11.174 -2.7773 -1.1608 -0.2610
 4260TIP3    H234196   4.134   0.130  11.193  1.1524  3.1054  0.4035
 4261TIP3   OH234197   1.098   3.399  14.918 -0.4715  0.4395  0.1398
 4261TIP3    H134198   1.020   3.424  14.869 -0.2595 -1.6027 -1.3267
 4261TIP3    H234199   1.065   3.356  14.996 -0.7952  1.2802  0.4774
 4262TIP3   OH234200   4.088   2.971   0.646  0.8969  0.3391  0.0077
 4262TIP3    H134201   4.042   2.953   0.729  0.9508  2.9462  0.7001
 4262TIP3    H234202   4.091   2.887   0.602 -2.3598 -0.4939  1.0528
 4263TIP3   OH234203   0.260   4.546  10.941 -0.2319 -0.6369  0.9721
 4263TIP3    H134204   0.230   4.465  10.982  0.4165 -0.8352  1.0649
 4263TIP3    H234205   0.283   4.519  10.851 -0.9990 -0.3435  0.6797
 4264TIP3   OH234206   1.721   5.294   4.441 -0.1540  0.2879 -0.2073
 4264TIP3    H134207   1.724   5.204   4.409  2.0843 -0.1394  1.0125
 4264TIP3    H234208   1.644   5.297   4.497  0.3437 -1.2324  0.6179
 4265TIP3   OH234209   1.982   3.437  16.776  0.0633  0.5558 -0.0194
 4265TIP3    H134210   2.053   3.418  16.714  0.0562  1.5464 -0.3530
 4265TIP3    H234211   2.001   3.526  16.806 -0.0704  0.1863  1.2303
 4266TIP3   OH234212   3.036   3.772  11.978 -0.4416 -0.3981  0.1129
 4266TIP3    H134213   2.943   3.751  11.968 -0.6291  0.3724  0.2024
 4266TIP3    H234214   3.079   3.721  11.909 -0.7192 -2.1227  1.1314
 4267TIP3   OH234215   5.247   6.517   3.668  0.2911  0.5106 -0.5534
 4267TIP3    H134216   5.277   6.559   3.749  0.4363  2.2062 -1.4448
 4267TIP3    H234217   5.199   6.586   3.621 -0.9856 -0.8372 -1.2948
 4268TIP3   OH234218   2.376   1.099  15.931  0.0644  0.2587 -0.1108
 4268TIP3    H134219   2.296   1.067  15.891 -0.2253  0.8237  0.0075
 4268TIP3    H234220   2.438   1.026  15.925 -0.5629 -0.2904  0.0953
 4269TIP3   OH234221   1.718   1.637   3.583  0.4006 -0.0240  0.1685
 4269TIP3    H134222   1.795   1.689   3.606  0.1572  0.8733 -0.9406
 4269TIP3    H234223   1.662   1.698   3.536 -0.9391 -0.7052  0.8428
 4270TIP3   OH234224   4.742   0.250   5.361 -0.0210  0.3481 -0.0752
 4270TIP3    H134225   4.812   0.187   5.348 -0.9997 -0.6008 -1.0018
 4270TIP3    H234226   4.774   0.330   5.319  0.1412 -0.3615 -1.3725
 4271TIP3   OH234227   6.355   0.217   5.058  0.1804  0.8029 -0.4523
 4271TIP3    H134228   6.451   0.217   5.057  0.1872  0.2238 -0.2171
 4271TIP3    H234229   6.331   0.291   5.113  0.4441  2.5012 -2.4979
 4272TIP3   OH234230   4.668   0.792   3.905  0.0430 -0.0752  0.2351
 4272TIP3    H134231   4.716   0.755   3.831  1.4767 -0.2609  1.1975
 4272TIP3    H234232   4.718   0.870   3.930 -0.7113  0.2795  0.6914
 4273TIP3   OH234233   4.734   2.467  11.084  0.2187  0.3220  0.0671
 4273TIP3    H134234   4.715   2.484  11.176  1.0816  1.3792  0.0772
 4273TIP3    H234235   4.649   2.447  11.045 -0.3101  0.9327  0.8765
 4274TIP3   OH234236   0.725   4.879  12.635  0.1950 -0.0661  0.0431
 4274TIP3    H134237   0.773   4.930  12.699 -0.3700  1.3830 -0.6427
 4274TIP3    H234238   0.726   4.790  12.669  1.6142  0.2985  1.0385
 4275TIP3   OH234239   3.904   5.782   0.386 -0.5175 -0.2659  0.4752
 4275TIP3    H134240   3.892   5.691   0.360  2.1113 -0.9258  1.2277
 4275TIP3    H234241   3.896   5.780   0.482  1.1119 -0.0644  0.6464
 4276TIP3   OH234242   0.336   6.783   2.594  1.1430 -0.0968  0.0123
 4276TIP3    H134243   0.317   6.696   2.558 -0.6847  0.2489  0.0783
 4276TIP3    H234244   0.382   6.828   2.523  1.9318 -1.0185 -0.0995
 4277TIP3   OH234245   2.925   1.622  14.179  0.1906 -0.4172  0.2260
 4277TIP3    H134246   2.872   1.627  14.258  1.6416 -1.1182  1.3061
 4277TIP3    H234247   2.977   1.702  14.179  0.8474 -0.8272  0.5108
 4278TIP3   OH234248   2.415   0.146   0.191 -0.1056 -0.0002  0.3718
 4278TIP3    H134249   2.436   0.234   0.159  0.6147 -0.6837 -1.1592
 4278TIP3    H234250   2.334   0.123   0.145  1.2912 -1.2536 -1.6357
 4279TIP3   OH234251   0.241   0.276   5.756  0.4288 -0.5954  0.1417
 4279TIP3    H134252   0.288   0.192   5.754 -2.0187 -2.0562 -1.0482
 4279TIP3    H234253   0.202   0.284   5.669  0.3428  1.6994  0.3245
 4280TIP3   OH234254   2.016   2.874  16.343  0.0341  0.1465  0.1508
 4280TIP3    H134255   1.990   2.822  16.419 -2.4545 -1.5446 -1.6777
 4280TIP3    H234256   1.973   2.958  16.355 -2.4256 -0.9337 -0.4273
 4281TIP3   OH234257   4.251   1.408  16.923  0.0831  0.2398  0.1497
 4281TIP3    H134258   4.336   1.423  16.883  0.5869 -0.5688  0.8757
 4281TIP3    H234259   4.256   1.318  16.957  0.1592  1.2190  3.0706
 4282TIP3   OH234260   0.651   1.780   1.815 -0.3193  0.3017  0.3925
 4282TIP3    H134261   0.614   1.789   1.727 -0.4630 -1.6357  0.2123
 4282TIP3    H234262   0.641   1.867   1.854 -0.3817  1.1696 -1.4392
 4283TIP3   OH234263   5.470   3.499   2.801 -0.0433  0.1790  0.2161
 4283TIP3    H134264   5.530   3.484   2.728  2.4230  1.5749  1.7724
 4283TIP3    H234265   5.507   3.448   2.873 -2.5320 -1.3372  0.5324
 4284TIP3   OH234266   0.081   3.999   1.172  0.0701 -0.2919 -0.4481
 4284TIP3    H134267   0.120   4.022   1.088 -0.3744  2.5263  0.0287
 4284TIP3    H234268  -0.012   3.986   1.152 -0.4454  2.3701 -0.2044
 4285TIP3   OH234269   5.852   6.577   0.487  0.1021  0.3013  0.0449
 4285TIP3    H134270   5.904   6.648   0.448  0.0283  0.0169 -0.5823
 4285TIP3    H234271   5.899   6.497   0.463 -0.2624  0.0834  0.0517
 4286TIP3   OH234272   3.770   0.604  16.024 -0.1439  0.3013 -0.1711
 4286TIP3    H134273   3.696   0.664  16.037  0.6823  1.2419  0.2975
 4286TIP3    H234274   3.743   0.523  16.066 -0.4682  0.9972  0.9876
 4287TIP3   OH234275   4.166   3.630  15.526 -0.2156  0.2265  0.0370
 4287TIP3    H134276   4.230   3.590  15.583  0.4298 -1.8554 -1.9984
 4287TIP3    H234277   4.217   3.662  15.451 -1.1158  2.1102  0.1742
 4288TIP3   OH234278   0.809   1.389   0.786  0.1222  1.0904  0.1901
 4288TIP3    H134279   0.810   1.309   0.839  0.6248  1.2944  0.4918
 4288TIP3    H234280   0.746   1.446   0.830 -1.6692  0.1932 -1.0519
 4289TIP3   OH234281   4.924   1.761  10.838 -0.2920 -0.1105  0.0944
 4289TIP3    H134282   4.993   1.782  10.776  0.3850 -1.6803  0.2755
 4289TIP3    H234283   4.888   1.846  10.864  0.3837  0.6325 -1.3254
 4290TIP3   OH234284   4.781   1.716   0.220 -0.1227 -0.0121 -0.1425
 4290TIP3    H134285   4.758   1.780   0.287  0.8315  1.3595 -1.0629
 4290TIP3    H234286   4.821   1.768   0.150  2.4357 -1.7789 -0.1566
 4291TIP3   OH234287   3.341   3.018  15.231  0.1474  0.6926 -0.0362
 4291TIP3    H134288   3.410   3.045  15.291  0.5100 -0.4560  0.0978
 4291TIP3    H234289   3.277   3.089  15.233  0.3194  0.8361  1.4512
 4292TIP3   OH234290   3.072   3.896  15.392  0.9854  0.4261  0.3774
 4292TIP3    H134291   3.047   3.986  15.409  0.5724  0.2977  0.4787
 4292TIP3    H234292   3.135   3.901  15.320 -0.0538  0.7066 -0.5608
 4293TIP3   OH234293   5.402   0.589  13.609  0.2036 -0.8576  0.8352
 4293TIP3    H134294   5.339   0.521  13.633  0.5049 -1.2785  0.4663
 4293TIP3    H234295   5.445   0.554  13.531  0.7884 -0.5077  0.9989
 4294TIP3   OH234296   3.550   4.299   0.219 -0.5493 -0.4449 -0.0066
 4294TIP3    H134297   3.634   4.340   0.240 -2.0607  1.7127  2.3077
 4294TIP3    H234298   3.560   4.209   0.251  1.2514 -0.6540 -0.9647
 4295TIP3   OH234299   0.977   0.814  11.652 -0.4165  0.4611  0.3025
 4295TIP3    H134300   1.035   0.802  11.578 -0.8195  0.6378 -0.0478
 4295TIP3    H234301   0.905   0.753  11.638  1.3127 -2.2987  2.4868
 4296TIP3   OH234302   2.698   3.036  15.251  0.3392 -0.0542 -0.3218
 4296TIP3    H134303   2.702   2.962  15.190 -0.8225 -0.8766  0.5619
 4296TIP3    H234304   2.620   3.020  15.303  1.0675  0.8463  1.1124
 4297TIP3   OH234305   6.210   4.241   3.479  0.1753 -0.4438 -0.5185
 4297TIP3    H134306   6.148   4.303   3.517  2.6225 -0.0036  3.4613
 4297TIP3    H234307   6.292   4.290   3.474  1.5714 -2.5432  0.2832
 4298TIP3   OH234308   3.593   6.428   4.881 -0.3240 -0.1482  0.0466
 4298TIP3    H134309   3.627   6.345   4.915 -1.6568 -0.6040  0.3368
 4298TIP3    H234310   3.622   6.431   4.790 -1.6354 -1.7522 -0.4699
 4299TIP3   OH234311   4.738   3.763   5.853 -0.5270 -0.5642 -0.4569
 4299TIP3    H134312   4.772   3.720   5.931  0.4968  0.2332 -0.4486
 4299TIP3    H234313   4.813   3.766   5.793 -0.4530  1.5531 -0.3097
 4300TIP3   OH234314   2.166   2.115  10.929 -0.0238  0.0056  0.4646
 4300TIP3    H134315   2.141   2.195  10.883  0.9874  0.1972  0.2090
 4300TIP3    H234316   2.174   2.141  11.021 -0.3635  0.0330  0.4866
 4301TIP3   OH234317   6.345   5.318  16.281  0.3626 -0.0179  0.0295
 4301TIP3    H134318   6.412   5.382  16.304  0.5968  0.6454 -2.3229
 4301TIP3    H234319   6.266   5.370  16.266 -0.4684 -0.6929  1.7082
 4302TIP3   OH234320   5.229   2.022  11.275 -0.3303 -0.6217  0.0703
 4302TIP3    H134321   5.170   2.004  11.202 -1.7090  1.2535  0.6734
 4302TIP3    H234322   5.284   2.094  11.245 -1.3572  0.6191  1.0819
 4303TIP3   OH234323   0.739   3.925  15.760  0.0754 -0.5146 -0.3295
 4303TIP3    H134324   0.775   3.900  15.845 -2.0121 -0.4109  0.6440
 4303TIP3    H234325   0.774   4.013  15.744 -0.2585 -0.1310  0.9108
 4304TIP3   OH234326   3.246   6.249  10.592  0.1118  1.1413 -0.6026
 4304TIP3    H134327   3.232   6.339  10.623 -1.9072  0.7624 -0.2486
 4304TIP3    H234328   3.217   6.194  10.665  0.7297  0.2033 -1.0491
 4305TIP3   OH234329   3.546   0.971  14.992 -0.1456 -0.1732 -0.3345
 4305TIP3    H134330   3.592   1.008  14.917  1.0817  0.4864  0.7034
 4305TIP3    H234331   3.525   1.047  15.048 -1.4057 -0.6022 -0.1868
 4306TIP3   OH234332   1.035   1.464  16.186 -0.0508 -0.2568  0.3250
 4306TIP3    H134333   1.021   1.390  16.127  1.5946 -0.8947  0.6826
 4306TIP3    H234334   1.102   1.517  16.142 -2.1603  1.8066 -0.5831
 4307TIP3   OH234335   1.362   4.432  11.150  0.1441  0.1945 -0.0721
 4307TIP3    H134336   1.339   4.343  11.176 -0.1752  0.6711  1.3966
 4307TIP3    H234337   1.311   4.448  11.070 -0.6356 -0.5617  0.2585
 4308TIP3   OH234338   4.487   1.569   5.182 -0.0283  0.6636  0.2773
 4308TIP3    H134339   4.578   1.584   5.155  1.1090 -1.1233  2.7588
 4308TIP3    H234340   4.467   1.642   5.241  0.5477  0.0026  1.3160
 4309TIP3   OH234341   6.804   3.952  11.910 -0.4999 -0.0810  0.1273
 4309TIP3    H134342   6.780   3.861  11.898  1.0919 -0.5568  0.2887
 4309TIP3    H234343   6.780   3.972  12.000  1.1342 -1.0347  0.8111
 4310TIP3   OH234344   5.597   3.293   0.600  0.3719 -0.3876  0.0083
 4310TIP3    H134345   5.571   3.385   0.612  0.6679 -0.4790  1.7415
 4310TIP3    H234346   5.593   3.278   0.506 -1.2353  0.9419 -0.1705
 4311TIP3   OH234347   5.960   3.358   0.482 -0.1261 -0.3838  0.1524
 4311TIP3    H134348   5.906   3.394   0.553  0.7978  0.7216  0.3315
 4311TIP3    H234349   5.948   3.420   0.410  1.0855  0.0418  0.2870
 4312TIP3   OH234350   5.209   6.641   5.254 -0.1894 -0.3264 -0.1845
 4312TIP3    H134351   5.132   6.586   5.269 -0.9623  0.1396 -2.1085
 4312TIP3    H234352   5.181   6.729   5.280 -0.9981  0.1868 -2.5526
 4313TIP3   OH234353   3.513   1.821   0.892 -0.0931 -0.2270  0.2111
 4313TIP3    H134354   3.474   1.828   0.805  2.9050  1.4690 -1.1573
 4313TIP3    H234355   3.463   1.880   0.947 -0.8478  0.1393 -0.8484
 4314TIP3   OH234356   1.686   1.793  16.224  0.1769 -0.6683  0.0080
 4314TIP3    H134357   1.662   1.883  16.246  0.3814 -0.4232 -0.7302
 4314TIP3    H234358   1.777   1.799  16.194  0.2571 -1.1507  0.1476
 4315TIP3   OH234359   1.997   2.471   5.497 -0.5503 -0.2611 -0.1116
 4315TIP3    H134360   2.062   2.518   5.550  1.3300 -0.2433 -2.2458
 4315TIP3    H234361   1.966   2.536   5.435 -0.4994 -0.9646 -0.8886
 4316TIP3   OH234362   0.828   4.824  13.303 -0.1418  0.3814  0.9934
 4316TIP3    H134363   0.897   4.865  13.251  0.0084  0.3019  1.1279
 4316TIP3    H234364   0.775   4.777  13.239  1.0962 -1.2281  1.0917
 4317TIP3   OH234365   0.215   4.660  16.599  0.0968  0.0581  0.1801
 4317TIP3    H134366   0.252   4.573  16.584  0.5588  0.4801 -1.3124
 4317TIP3    H234367   0.292   4.717  16.608 -0.1846  0.1850  2.2020
 4318TIP3   OH234368   2.709   3.868   4.816  0.5202 -0.3276 -0.0600
 4318TIP3    H134369   2.702   3.893   4.908 -0.9326  2.4196 -0.8218
 4318TIP3    H234370   2.803   3.860   4.800  0.8645  0.7958  1.2708
 4319TIP3   OH234371   3.431   0.371   1.264 -0.0081  0.2612 -0.4853
 4319TIP3    H134372   3.467   0.452   1.299 -1.0288 -0.1451  1.6830
 4319TIP3    H234373   3.362   0.347   1.326 -0.0025 -2.0583 -1.2811
 4320TIP3   OH234374   2.813   3.832  14.158 -0.3422 -0.1579 -0.5295
 4320TIP3    H134375   2.720   3.852  14.149  0.0305  1.1225 -1.8808
 4320TIP3    H234376   2.817   3.771  14.231 -2.2356 -0.2051 -0.4145
 4321TIP3   OH234377   2.306   2.371  14.102 -0.4899  0.1721 -0.0388
 4321TIP3    H134378   2.395   2.373  14.135 -0.3751 -1.2720 -0.1734
 4321TIP3    H234379   2.283   2.462  14.088  1.3661  0.5402 -1.0475
 4322TIP3   OH234380   3.516   3.075   4.244  0.2753 -0.2219 -0.6266
 4322TIP3    H134381   3.546   3.057   4.154 -0.7632  0.9479 -1.2456
 4322TIP3    H234382   3.423   3.096   4.234 -0.2255 -1.4526  0.9317
 4323TIP3   OH234383   5.356   1.528  15.042 -0.7891 -0.1111 -0.5113
 4323TIP3    H134384   5.397   1.559  15.123  0.9411 -1.0538 -0.9727
 4323TIP3    H234385   5.266   1.559  15.048 -0.8702 -0.5867  2.0054
 4324TIP3   OH234386   2.303   1.130   1.374  0.1434 -0.0140  0.3132
 4324TIP3    H134387   2.231   1.180   1.336  0.2133 -0.4937 -0.4634
 4324TIP3    H234388   2.353   1.194   1.425  0.8584  0.9601 -1.5320
 4325TIP3   OH234389   2.146   3.058  11.196 -0.1482 -0.8104 -0.1148
 4325TIP3    H134390   2.240   3.049  11.180  0.4463  0.2626  2.2354
 4325TIP3    H234391   2.108   3.074  11.110  2.1427  1.1253 -0.8915
 4326TIP3   OH234392   5.597   6.479   6.534 -0.1882 -0.0121 -0.6155
 4326TIP3    H134393   5.556   6.427   6.603 -1.5232 -0.9693 -2.0429
 4326TIP3    H234394   5.594   6.569   6.566 -2.1095 -0.2406 -0.0162
 4327TIP3   OH234395   0.930   3.818  16.222 -0.0955  0.1129  0.3068
 4327TIP3    H134396   0.840   3.820  16.254  0.3100  1.6413  1.4819
 4327TIP3    H234397   0.966   3.736  16.256 -1.3708 -1.1830 -1.2835
 4328TIP3   OH234398   2.088   3.904  16.006  0.0893 -0.1758  0.5616
 4328TIP3    H134399   2.159   3.840  16.011 -1.0822 -1.9231 -2.7280
 4328TIP3    H234400   2.019   3.869  16.062  0.4787 -0.2820  0.9824
 4329TIP3   OH234401   5.600   3.639  13.119 -0.4805 -0.4348 -0.5183
 4329TIP3    H134402   5.519   3.659  13.165 -0.1640  0.7734 -0.4494
 4329TIP3    H234403   5.658   3.713  13.139 -0.1673 -0.0898 -2.4732
 4330TIP3   OH234404   6.384   6.724   0.628 -0.1757  0.2235  0.0216
 4330TIP3    H134405   6.428   6.640   0.643 -0.5695 -0.8674 -3.7586
 4330TIP3    H234406   6.300   6.715   0.672 -0.8653 -2.1424 -1.5604
 4331TIP3   OH234407   3.455   6.283   1.473 -0.1626 -0.3124  0.3779
 4331TIP3    H134408   3.462   6.346   1.401 -1.4770 -1.0275 -0.4320
 4331TIP3    H234409   3.499   6.324   1.546 -0.0286  1.0623 -0.4432
 4332TIP3   OH234410   5.739   5.897  14.145  0.4492  0.0798  0.0897
 4332TIP3    H134411   5.654   5.890  14.188 -0.2031  3.2668 -0.3976
 4332TIP3    H234412   5.768   5.807  14.134 -2.6285 -1.1151  0.7048
 4333TIP3   OH234413   5.858   6.185  16.340 -0.1716 -0.0568 -0.0061
 4333TIP3    H134414   5.788   6.152  16.283 -0.6666  0.1291  0.4921
 4333TIP3    H234415   5.910   6.108  16.361 -1.1713 -0.4879  0.9437
 4334TIP3   OH234416   6.357   2.402  12.674 -0.0476  0.2407 -0.2319
 4334TIP3    H134417   6.314   2.487  12.668  0.3604  0.3626 -1.8677
 4334TIP3    H234418   6.344   2.362  12.588  1.6904 -0.4029 -0.2467
 4335TIP3   OH234419   5.143   0.470  16.373 -0.2420  0.4693 -0.1096
 4335TIP3    H134420   5.075   0.405  16.391 -0.3201  0.0640 -1.7294
 4335TIP3    H234421   5.211   0.422  16.326  0.1705  1.3386 -0.4315
 4336TIP3   OH234422   5.088   6.342  15.183  0.6226 -0.0407 -0.2066
 4336TIP3    H134423   5.169   6.364  15.229  0.5421 -3.0896  1.6553
 4336TIP3    H234424   5.022   6.333  15.252 -0.1767 -2.0084 -1.1393
 4337TIP3   OH234425   0.142   0.052   3.907 -0.0100  0.3128 -0.0161
 4337TIP3    H134426   0.198  -0.025   3.916 -2.9905 -1.8643  1.8728
 4337TIP3    H234427   0.138   0.090   3.995 -1.8815  0.0436  0.0620
 4338TIP3   OH234428   2.049   1.733  15.172 -0.2381 -0.0714 -0.5326
 4338TIP3    H134429   2.084   1.692  15.093  3.5250  1.0845  0.3188
 4338TIP3    H234430   2.054   1.664  15.239  3.1471  0.6198  0.1542
 4339TIP3   OH234431   4.856   2.192  11.252  0.1721 -0.4673  0.1825
 4339TIP3    H134432   4.774   2.240  11.262  0.2391 -0.4159  0.4910
 4339TIP3    H234433   4.873   2.155  11.339  0.1311 -1.0353 -0.0449
 4340TIP3   OH234434   4.459   4.469   4.132 -0.6888  0.3034  0.4713
 4340TIP3    H134435   4.551   4.459   4.156 -0.9641  0.0823  1.4853
 4340TIP3    H234436   4.461   4.506   4.044  0.3829 -1.4646 -0.3130
 4341TIP3   OH234437   2.498   5.222  11.894  0.2611  0.3891  0.0876
 4341TIP3    H134438   2.416   5.218  11.943 -0.0528  0.4987 -0.4202
 4341TIP3    H234439   2.535   5.134  11.903 -0.5456 -0.0577 -0.7458
 4342TIP3   OH234440   5.472   3.128   2.757  0.5405  0.8513 -0.6873
 4342TIP3    H134441   5.413   3.184   2.807 -0.1340  0.3706 -0.9307
 4342TIP3    H234442   5.437   3.130   2.668  0.7455  0.3609 -0.7808
 4343TIP3   OH234443   3.876   1.767   0.446  0.2414  0.2435  0.7255
 4343TIP3    H134444   3.907   1.790   0.534  0.1154  0.8699  0.6113
 4343TIP3    H234445   3.954   1.776   0.391  0.0977  0.8170  0.6105
 4344TIP3   OH234446   0.141   5.292   4.465  0.2191 -0.5614  0.5334
 4344TIP3    H134447   0.143   5.363   4.530  0.6958  0.2382 -0.3336
 4344TIP3    H234448   0.051   5.261   4.467  0.4133 -1.1014  2.1505
 4345TIP3   OH234449   4.592   6.608  16.639  0.8443  0.0520 -0.4584
 4345TIP3    H134450   4.561   6.689  16.680  3.3548  1.1804 -0.6166
 4345TIP3    H234451   4.658   6.574  16.698 -0.2675 -2.0463 -0.3216
 4346TIP3   OH234452   2.972   5.116  12.687  0.4271 -0.2967  0.6110
 4346TIP3    H134453   2.981   5.207  12.715  2.0977 -0.4236  0.5931
 4346TIP3    H234454   3.014   5.113  12.601  1.3514 -1.2921  1.0745
 4347TIP3   OH234455   2.005   2.211   0.168  0.1649 -0.3204 -0.2855
 4347TIP3    H134456   2.083   2.254   0.132  1.5273 -0.2824  2.4028
 4347TIP3    H234457   1.965   2.277   0.224 -0.2214 -1.1887  0.4876
 4348TIP3   OH234458   0.552   2.754  15.692 -0.3505 -0.5754  0.3553
 4348TIP3    H134459   0.543   2.668  15.733 -1.1876 -0.0517  1.2877
 4348TIP3    H234460   0.497   2.749  15.614 -1.2993 -0.5151  1.0132
 4349TIP3   OH234461   1.038   3.358  13.184 -0.1727  0.0998  0.1848
 4349TIP3    H134462   0.987   3.277  13.172  0.6353 -0.4734  0.4885
 4349TIP3    H234463   0.976   3.420  13.223 -0.9096 -0.2497 -0.4175
 4350TIP3   OH234464   0.296   2.112  15.977 -0.0036 -0.3918 -0.0976
 4350TIP3    H134465   0.294   2.031  15.925 -1.2225 -0.2738 -0.2638
 4350TIP3    H234466   0.389   2.136  15.979  0.2969 -1.4150 -0.6338
 4351TIP3   OH234467   2.208   6.098  11.546 -0.8792  0.3488  0.0908
 4351TIP3    H134468   2.126   6.148  11.553 -2.6159 -2.4451  2.0887
 4351TIP3    H234469   2.200   6.051  11.464 -1.6271 -0.4001  0.5787
 4352TIP3   OH234470   6.144   4.604  15.697  0.7496 -0.3100  0.0237
 4352TIP3    H134471   6.139   4.512  15.721  0.7915 -0.0920  0.8698
 4352TIP3    H234472   6.120   4.652  15.776 -0.9246  0.3884 -0.8471
 4353TIP3   OH234473   5.425   0.905  11.625  0.1519 -0.0037  0.1379
 4353TIP3    H134474   5.463   0.952  11.550 -2.1564  1.4547 -0.2365
 4353TIP3    H234475   5.458   0.951  11.702 -0.4538  0.9567 -0.1591
 4354TIP3   OH234476   5.610   3.081  14.335 -0.3085 -0.2400 -0.2750
 4354TIP3    H134477   5.538   3.038  14.289 -1.0516 -0.3464  0.9640
 4354TIP3    H234478   5.630   3.024  14.409  0.1175  0.4722  0.1768
 4355TIP3   OH234479   1.918   4.566   5.782  0.1724  0.0107 -0.0791
 4355TIP3    H134480   1.973   4.521   5.846  0.4452  0.5278  0.0595
 4355TIP3    H234481   1.924   4.658   5.806 -0.9091  0.0584  0.0449
 4356TIP3   OH234482   0.287   2.170   1.645  0.1323  1.0075 -0.2868
 4356TIP3    H134483   0.268   2.258   1.614  1.1021  1.6173  0.8266
 4356TIP3    H234484   0.381   2.168   1.659 -0.0328  0.1808  0.8593
 4357TIP3   OH234485   6.594   2.683  12.688 -0.3248 -0.0483  0.2637
 4357TIP3    H134486   6.512   2.640  12.663  0.0753 -1.8002  1.7208
 4357TIP3    H234487   6.662   2.628  12.649  0.1919 -0.0723  1.1869
 4358TIP3   OH234488   4.869   0.143   4.185  0.4107  0.0871 -0.2703
 4358TIP3    H134489   4.925   0.092   4.127  2.1729  1.0941  0.4476
 4358TIP3    H234490   4.922   0.220   4.207 -0.1136 -0.2854  2.6929
 4359TIP3   OH234491   2.991   4.844  16.373  0.2306  0.1080 -0.2645
 4359TIP3    H134492   3.054   4.908  16.406 -1.7293  2.4170 -0.6887
 4359TIP3    H234493   2.907   4.872  16.411 -0.6319 -2.6638  0.0662
 4360TIP3   OH234494   2.218   1.872  16.189 -0.2800 -0.0609  0.6323
 4360TIP3    H134495   2.288   1.808  16.175 -0.7442 -0.2612 -0.8678
 4360TIP3    H234496   2.260   1.942  16.240  1.1885  0.0946 -0.7108
 4361TIP3   OH234497   2.785   2.372   3.739  0.1857 -0.3322 -0.1027
 4361TIP3    H134498   2.814   2.329   3.658  1.3980 -0.5164  0.4125
 4361TIP3    H234499   2.788   2.466   3.718  2.5238 -0.2515  0.3243
 4362TIP3   OH234500   0.895   2.341   3.235 -0.0373 -0.7100 -0.2984
 4362TIP3    H134501   0.985   2.311   3.218  0.4471  0.6570 -0.2137
 4362TIP3    H234502   0.888   2.342   3.330  0.6476  1.3813 -0.2353
 4363TIP3   OH234503   6.563   6.353   2.179 -0.1272  0.2490  0.1629
 4363TIP3    H134504   6.541   6.282   2.239  0.5142  0.5824  0.8065
 4363TIP3    H234505   6.502   6.424   2.202 -1.3115 -0.3418 -1.0146
 4364TIP3   OH234506   0.330   1.873  11.214 -0.2792 -0.3105 -0.4355
 4364TIP3    H134507   0.384   1.951  11.204  0.8846 -1.3642 -2.9953
 4364TIP3    H234508   0.242   1.902  11.190 -0.6408  0.9932  2.0954
 4365TIP3   OH234509   0.741   1.165  16.669 -0.3177  0.0593 -0.1218
 4365TIP3    H134510   0.832   1.194  16.668 -0.4821  0.6360  0.7472
 4365TIP3    H234511   0.737   1.099  16.738 -0.6111  0.1826 -0.0195
 4366TIP3   OH234512   6.171   5.811  14.934  0.1965 -0.7330 -0.6085
 4366TIP3    H134513   6.140   5.720  14.928  1.2187 -1.0853 -0.7385
 4366TIP3    H234514   6.247   5.814  14.875  0.4311  0.0949 -0.2754
 4367TIP3   OH234515   6.646   4.536   1.211 -0.3057 -0.1872  0.0975
 4367TIP3    H134516   6.650   4.441   1.205  0.6073 -0.1067 -0.9057
 4367TIP3    H234517   6.554   4.555   1.230 -0.4757 -1.2630  0.4307
 4368TIP3   OH234518   3.253   1.804  16.047  0.3489  0.5435 -0.3608
 4368TIP3    H134519   3.225   1.756  15.969  0.7011 -0.9950  0.4287
 4368TIP3    H234520   3.256   1.738  16.116  2.8806  1.2339  0.3014
 4369TIP3   OH234521   3.466   1.673   3.284 -0.5450 -0.4378 -0.0928
 4369TIP3    H134522   3.503   1.756   3.252 -0.6016 -0.7296 -0.9325
 4369TIP3    H234523   3.391   1.700   3.337 -1.4191  0.0185 -1.5114
 4370TIP3   OH234524   6.348   4.007   2.478  0.1148  0.7419  0.0518
 4370TIP3    H134525   6.431   4.025   2.433  0.1533  1.9085  0.5534
 4370TIP3    H234526   6.354   3.915   2.503 -0.1449 -0.1382 -2.7710
 4371TIP3   OH234527   2.715   0.055   1.569 -0.0836 -0.2248  0.5516
 4371TIP3    H134528   2.762   0.019   1.494  1.3330  0.4775  1.0650
 4371TIP3    H234529   2.784   0.092   1.625 -1.3352  3.2160  0.0868
 4372TIP3   OH234530   6.136   1.735  16.110  0.1585  0.1002 -0.0734
 4372TIP3    H134531   6.230   1.718  16.106  0.0965 -0.1980 -0.3185
 4372TIP3    H234532   6.123   1.809  16.050  0.1631 -0.1943 -0.4412
 4373TIP3   OH234533   0.219   1.944   4.585  0.7017  0.6078 -0.2325
 4373TIP3    H134534   0.148   1.996   4.546  1.0024  2.0253  1.0004
 4373TIP3    H234535   0.175   1.867   4.621 -0.0738  0.9641 -0.3766
 4374TIP3   OH234536   1.336   0.140   5.932  0.1836 -0.3696  0.3776
 4374TIP3    H134537   1.382   0.064   5.967  1.7369  0.4696  0.2322
 4374TIP3    H234538   1.276   0.166   6.002 -0.5115 -1.8060  0.3609
 4375TIP3   OH234539   5.599   6.403   3.943 -0.2300 -0.4133  0.2283
 4375TIP3    H134540   5.519   6.354   3.924 -0.5645  0.3082 -0.3028
 4375TIP3    H234541   5.571   6.470   4.006  0.0787 -0.5155  0.4722
 4376TIP3   OH234542   5.277   5.301  13.438  0.5592  0.1003  0.3414
 4376TIP3    H134543   5.364   5.289  13.401  1.6096  0.3207  2.5676
 4376TIP3    H234544   5.239   5.372  13.387  2.0317  0.5844 -0.1350
 4377TIP3   OH234545   2.339   4.111  14.804  0.4832  0.1366 -0.0665
 4377TIP3    H134546   2.400   4.184  14.811  1.3927 -0.5603 -0.4421
 4377TIP3    H234547   2.358   4.073  14.718 -1.1964  0.5119 -0.6424
 4378TIP3   OH234548   6.317   2.061   4.667  0.1149 -0.1894 -0.4737
 4378TIP3    H134549   6.236   2.110   4.679  0.0152 -0.1511 -1.2534
 4378TIP3    H234550   6.301   1.977   4.710 -1.7533 -1.6667 -3.6764
 4379TIP3   OH234551   2.721   2.666   0.553  0.0354  0.0387 -0.0952
 4379TIP3    H134552   2.743   2.612   0.629  2.6910 -0.3566 -1.0305
 4379TIP3    H234553   2.762   2.751   0.571  0.7749 -0.0852 -1.0711
 4380TIP3   OH234554   1.178   3.901   3.076  0.0058  0.4284  1.0582
 4380TIP3    H134555   1.194   3.855   3.158  1.1560  1.4626  1.4394
 4380TIP3    H234556   1.233   3.855   3.012 -1.8732 -1.2124  0.5186
 4381TIP3   OH234557   1.286   3.714  15.552 -0.5452  0.4610 -0.3970
 4381TIP3    H134558   1.253   3.624  15.551  0.5625  0.0408 -0.4346
 4381TIP3    H234559   1.249   3.752  15.631 -2.1788  0.4321 -1.1153
 4382TIP3   OH234560   1.158   4.166  13.000  0.1647 -0.4073 -0.6282
 4382TIP3    H134561   1.125   4.168  13.090 -2.1224  1.5353 -1.4068
 4382TIP3    H234562   1.251   4.144  13.009  0.2992  0.8777  2.3134
 4383TIP3   OH234563   3.018   4.052   2.199  0.3340  0.2047  0.6710
 4383TIP3    H134564   3.021   3.970   2.250 -0.8168 -0.4017 -0.1902
 4383TIP3    H234565   2.931   4.087   2.216  0.0958  0.2119 -0.5441
 4384TIP3   OH234566   6.007   0.309  11.093  0.9229  0.9637  0.0761
 4384TIP3    H134567   5.940   0.374  11.116  0.4375  0.8420 -0.9282
 4384TIP3    H234568   5.958   0.240  11.049  1.3908 -0.2229  1.3378
 4385TIP3   OH234569   4.128   4.754   0.281  0.1858 -0.0639 -0.4228
 4385TIP3    H134570   4.223   4.750   0.271  0.0599 -3.3593 -1.6277
 4385TIP3    H234571   4.108   4.690   0.349 -1.1585  1.7723  1.0404
 4386TIP3   OH234572   5.092   5.622  12.903  0.4393  0.0379 -0.2168
 4386TIP3    H134573   5.093   5.527  12.915 -2.4355 -0.3114 -1.7095
 4386TIP3    H234574   5.051   5.656  12.982 -1.0737 -0.3295 -0.7891
 4387TIP3   OH234575   6.705   3.996  11.504  0.0856 -0.9597 -1.0178
 4387TIP3    H134576   6.716   3.921  11.562  2.0763  0.7193  0.9407
 4387TIP3    H234577   6.627   4.040  11.537  1.8578  0.6534  1.3945
 4388TIP3   OH234578   2.905   5.126  11.427 -0.2971 -0.0442  0.0182
 4388TIP3    H134579   2.929   5.113  11.335  0.2546 -0.8902  0.2757
 4388TIP3    H234580   2.812   5.104  11.430 -0.7964  1.7752 -0.6835
 4389TIP3   OH234581   2.581   6.051   1.460 -0.3680 -0.3711  0.0444
 4389TIP3    H134582   2.493   6.058   1.422 -1.6227 -0.8096  2.6694
 4389TIP3    H234583   2.590   6.130   1.513  0.3167 -0.9384  0.7821
 4390TIP3   OH234584   3.063   0.748  12.703  0.0712  0.8170 -0.2784
 4390TIP3    H134585   3.007   0.764  12.779 -0.1849 -0.4966 -0.1736
 4390TIP3    H234586   3.072   0.834  12.662 -0.8292  1.3131  0.5226
 4391TIP3   OH234587   1.260   1.474  12.344 -0.3054 -0.1693  0.2215
 4391TIP3    H134588   1.334   1.413  12.339 -1.6914 -1.8273 -0.7952
 4391TIP3    H234589   1.292   1.553  12.301  1.3292 -0.3439  1.0278
 4392TIP3   OH234590   5.523   1.834  15.640 -0.0830 -0.3098 -0.3594
 4392TIP3    H134591   5.575   1.913  15.658 -1.1936  0.7522 -1.6176
 4392TIP3    H234592   5.499   1.841  15.548 -0.3312 -2.0697 -0.4596
 4393TIP3   OH234593   2.043   2.990   4.548  0.1812  0.0895 -0.5475
 4393TIP3    H134594   1.951   3.014   4.538  0.3856  0.9995 -0.3629
 4393TIP3    H234595   2.063   2.941   4.468 -0.4330 -0.0176 -0.6425
 4394TIP3   OH234596   3.077   3.457   4.623 -0.4383  0.0814  0.5408
 4394TIP3    H134597   3.154   3.418   4.581 -0.5227 -0.0688  0.5255
 4394TIP3    H234598   3.102   3.549   4.638  1.0853 -0.6933  3.6430
 4395TIP3   OH234599   6.466   2.568   1.803  0.0368 -0.4492  1.1054
 4395TIP3    H134600   6.487   2.483   1.841 -1.0775 -0.5521  1.5354
 4395TIP3    H234601   6.381   2.590   1.841 -0.1311  0.4091  0.2483
 4396TIP3   OH234602   3.057   4.457  15.108  0.1305 -0.2110  0.5071
 4396TIP3    H134603   3.152   4.459  15.097  0.0539 -1.1155 -0.6213
 4396TIP3    H234604   3.043   4.408  15.189  0.6284 -1.2867 -0.0267
 4397TIP3   OH234605   3.716   4.785   4.704  0.4881 -0.3436  0.1699
 4397TIP3    H134606   3.693   4.877   4.694 -1.1201 -0.9108 -2.0333
 4397TIP3    H234607   3.632   4.741   4.719  0.5518 -1.8882 -3.1020
 4398TIP3   OH234608   2.399   1.808  10.786 -0.2982  0.4857 -0.2953
 4398TIP3    H134609   2.329   1.872  10.777  2.6472  4.1164  0.2676
 4398TIP3    H234610   2.444   1.809  10.702  0.4274 -0.0751  0.0693
 4399TIP3   OH234611   6.135   2.876   0.797 -0.0882 -0.3084  0.1248
 4399TIP3    H134612   6.042   2.899   0.803 -0.5128 -1.3494 -1.7414
 4399TIP3    H234613   6.178   2.958   0.773 -0.7905 -0.1782 -0.7464
 4400TIP3   OH234614   5.028   4.618   2.990 -0.2825 -0.2129  0.1344
 4400TIP3    H134615   4.961   4.560   3.026 -0.4692 -0.7588 -1.0170
 4400TIP3    H234616   5.087   4.637   3.063 -1.0430 -0.6704  0.8756
 4401TIP3   OH234617   0.340   4.908  14.886 -0.3458 -0.2933 -0.2873
 4401TIP3    H134618   0.409   4.933  14.826 -0.9020  2.0118 -0.0497
 4401TIP3    H234619   0.381   4.844  14.945  1.2908  0.2872 -0.7557
 4402TIP3   OH234620   2.925   4.429   2.400 -0.5570 -0.4881  0.0620
 4402TIP3    H134621   2.847   4.466   2.441 -1.1497 -1.5023 -0.1122
 4402TIP3    H234622   2.909   4.437   2.306 -0.0393  0.1210  0.0181
 4403TIP3   OH234623   1.242   4.501  12.060  0.2777  0.2366  0.2752
 4403TIP3    H134624   1.295   4.467  11.988 -0.7861  0.3432 -0.5940
 4403TIP3    H234625   1.218   4.589  12.032 -1.3506 -0.2349  0.0464
 4404TIP3   OH234626   1.375   1.223   5.199 -0.5361  0.4827  0.1207
 4404TIP3    H134627   1.345   1.309   5.168 -0.3612  0.4037 -0.2631
 4404TIP3    H234628   1.314   1.161   5.160  0.9148  0.1905 -1.7838
 4405TIP3   OH234629   0.060   0.557   1.663 -0.1286  0.2240 -0.1056
 4405TIP3    H134630   0.119   0.565   1.738  0.7940  2.2807 -0.9684
 4405TIP3    H234631   0.079   0.471   1.627  1.7278  0.4627  0.1890
 4406TIP3   OH234632   4.039   1.640   0.642  0.3890  0.4401  0.1742
 4406TIP3    H134633   4.079   1.557   0.668 -1.0869 -0.5370 -0.5255
 4406TIP3    H234634   4.107   1.686   0.593  1.1754 -0.4399  0.4338
 4407TIP3   OH234635   1.015   4.795  11.402 -0.6716 -0.0064  0.4097
 4407TIP3    H134636   1.091   4.756  11.359  1.1549  3.8498 -0.3132
 4407TIP3    H234637   0.944   4.783  11.339 -0.2068 -1.8542  0.1698
 4408TIP3   OH234638   5.056   0.490  12.871 -0.1589 -0.0063 -0.0166
 4408TIP3    H134639   5.063   0.469  12.778  1.1871 -1.2489  0.3308
 4408TIP3    H234640   5.144   0.478  12.906 -0.2900  1.9334  1.1572
 4409TIP3   OH234641   3.954   2.227  15.654  0.1360 -1.0167  0.3720
 4409TIP3    H134642   3.960   2.137  15.686 -2.9601 -0.8608  1.7635
 4409TIP3    H234643   3.962   2.281  15.732  0.7491 -0.1331 -0.2886
 4410TIP3   OH234644   2.939   4.768   3.084  0.1510 -0.5668  0.9316
 4410TIP3    H134645   2.908   4.692   3.035 -0.9809  0.7461 -0.4577
 4410TIP3    H234646   2.949   4.736   3.174 -1.6271 -2.0003  0.6632
 4411TIP3   OH234647   3.105   0.424  15.411  0.5501 -0.3037 -0.2248
 4411TIP3    H134648   3.118   0.501  15.357  2.8252  0.3737  1.1749
 4411TIP3    H234649   3.136   0.351  15.357  1.3968  0.1716 -0.3966
 4412TIP3   OH234650   4.671   5.577   1.386 -0.0858  0.6110  0.1998
 4412TIP3    H134651   4.619   5.608   1.312  0.0544  0.9258  0.2314
 4412TIP3    H234652   4.716   5.499   1.353 -0.0046  0.7648 -0.0531
 4413TIP3   OH234653   4.078   0.005  13.361 -0.7327  0.7303 -0.0312
 4413TIP3    H134654   3.996  -0.041  13.377  0.0377 -0.7755 -0.2238
 4413TIP3    H234655   4.097  -0.012  13.268  0.4328 -0.0588  0.3333
 4414TIP3   OH234656   0.434   2.748  15.448 -0.2160 -0.2057 -0.0457
 4414TIP3    H134657   0.461   2.736  15.356 -0.5012  0.5698 -0.2390
 4414TIP3    H234658   0.423   2.843  15.457  1.8829 -0.0272  1.3653
 4415TIP3   OH234659   6.745   5.319   0.210 -0.5027 -0.2621 -0.0107
 4415TIP3    H134660   6.709   5.405   0.232  0.5209  0.4169 -0.8762
 4415TIP3    H234661   6.676   5.276   0.160 -1.3061 -0.2585  1.0487
 4416TIP3   OH234662   0.771   5.854   2.962  0.8140  0.8832  0.3114
 4416TIP3    H134663   0.748   5.852   3.055 -2.6871  3.0010 -0.3433
 4416TIP3    H234664   0.861   5.888   2.961  0.9617  0.8028  2.8865
 4417TIP3   OH234665   5.352   4.301   5.064 -0.2684 -0.1731  0.0298
 4417TIP3    H134666   5.342   4.219   5.016 -0.2319 -0.6897  0.8890
 4417TIP3    H234667   5.290   4.295   5.136 -0.5986  0.7608 -0.1590
 4418TIP3   OH234668   4.946   6.061  15.106  0.4025  0.1924  0.5659
 4418TIP3    H134669   5.020   6.044  15.164 -0.1811 -0.1151  1.2339
 4418TIP3    H234670   4.913   5.975  15.082  0.5098  0.3234 -0.0541
 4419TIP3   OH234671   4.233   3.786   3.814  0.1348  0.1281  0.2586
 4419TIP3    H134672   4.323   3.773   3.784 -0.4666 -0.2453 -1.5226
 4419TIP3    H234673   4.204   3.699   3.842  0.8492  0.5564  2.5727
 4420TIP3   OH234674   5.310   6.541   4.987  0.1401 -0.4088  0.3392
 4420TIP3    H134675   5.290   6.568   5.077  1.7711 -0.7106  0.8088
 4420TIP3    H234676   5.380   6.600   4.959  0.5849 -1.2080 -0.2538
 4421TIP3   OH234677   3.544   5.802  15.538 -0.5455  0.2459  0.2388
 4421TIP3    H134678   3.546   5.713  15.502 -3.1758 -0.1645  0.9041
 4421TIP3    H234679   3.566   5.791  15.631 -1.0228  0.2792  0.3542
 4422TIP3   OH234680   4.696   6.179   0.882  0.1397 -0.2079  0.2181
 4422TIP3    H134681   4.706   6.248   0.817  1.3286 -0.5378  0.0326
 4422TIP3    H234682   4.699   6.098   0.830 -2.3509 -0.4324  0.2820
 4423TIP3   OH234683   4.958   1.551   1.269 -0.2120  0.0301  0.4639
 4423TIP3    H134684   5.046   1.533   1.303 -0.6540  0.3387  1.8402
 4423TIP3    H234685   4.941   1.480   1.207  0.8860 -0.2047  0.4190
 4424TIP3   OH234686   1.109   3.238   6.076 -0.5305 -0.1261 -0.0917
 4424TIP3    H134687   1.096   3.332   6.061  1.8678  0.3989  0.6770
 4424TIP3    H234688   1.071   3.222   6.162  0.1273  0.4193  0.3068
 4425TIP3   OH234689   6.192   4.977  16.169 -0.6520 -0.2354 -0.0604
 4425TIP3    H134690   6.131   5.048  16.149 -0.5369 -0.1433 -0.0885
 4425TIP3    H234691   6.274   5.003  16.125 -0.8363 -0.7724 -0.7358
 4426TIP3   OH234692   1.979   4.846  13.650  0.4659 -0.0192  0.3497
 4426TIP3    H134693   1.885   4.843  13.632  0.3314  0.8925  0.8261
 4426TIP3    H234694   1.984   4.844  13.746  0.9086  0.4672  0.3377
 4427TIP3   OH234695   4.517   2.074  14.492  0.1945  0.7162 -0.0307
 4427TIP3    H134696   4.450   2.064  14.560 -0.4467  1.8999 -0.4663
 4427TIP3    H234697   4.590   2.117  14.536  0.3378  0.1970  0.2424
 4428TIP3   OH234698   1.098   6.332   1.560 -0.2935 -0.1847  1.2635
 4428TIP3    H134699   1.169   6.348   1.498 -0.0584 -0.5822  1.4269
 4428TIP3    H234700   1.087   6.237   1.561  1.0336 -0.3998  3.2479
 4429TIP3   OH234701   1.791   5.648   3.913  0.2910 -0.1426  0.6101
 4429TIP3    H134702   1.745   5.728   3.888  2.0175  0.7997  0.3153
 4429TIP3    H234703   1.735   5.578   3.881 -1.9950  0.8555  2.1675
 4430TIP3   OH234704   5.441   2.728   1.140  0.0441  0.4045 -0.6326
 4430TIP3    H134705   5.348   2.710   1.128  0.2264 -0.2185 -1.1638
 4430TIP3    H234706   5.470   2.762   1.055  0.1555  1.2711 -0.2595
 4431TIP3   OH234707   2.542   1.156  14.952  0.2078 -0.6123  0.1255
 4431TIP3    H134708   2.540   1.067  14.920 -1.0011 -0.2297 -0.9436
 4431TIP3    H234709   2.633   1.184  14.941  0.4407 -1.4728 -0.1923
 4432TIP3   OH234710   6.584   3.715   4.699  0.1755 -0.0569 -0.0710
 4432TIP3    H134711   6.530   3.782   4.658  1.0413 -0.0324 -1.2033
 4432TIP3    H234712   6.521   3.650   4.732 -0.6673  1.1728  0.8676
 4433TIP3   OH234713   2.439   6.118   4.875 -0.0247 -0.1989  0.4023
 4433TIP3    H134714   2.514   6.065   4.848  1.6593  2.2328 -0.0427
 4433TIP3    H234715   2.382   6.057   4.921  1.8211 -2.3376  0.0391
 4434TIP3   OH234716   4.945   3.225  12.686 -0.1004  0.0962  0.6483
 4434TIP3    H134717   5.016   3.260  12.632 -2.1904  1.8218 -1.1536
 4434TIP3    H234718   4.968   3.250  12.776  0.9256  1.7846 -0.0486
 4435TIP3   OH234719   0.289   2.216  13.755 -0.2638  0.6327 -0.2341
 4435TIP3    H134720   0.309   2.302  13.716  2.1061 -0.3928 -1.5134
 4435TIP3    H234721   0.353   2.207  13.825  0.9367 -0.8946 -1.4579
 4436TIP3   OH234722   3.488   0.256   3.754  0.4096 -0.0645  0.0287
 4436TIP3    H134723   3.543   0.187   3.717 -1.3306 -1.4710 -0.0599
 4436TIP3    H234724   3.476   0.231   3.845  2.1960  1.7783  0.8447
 4437TIP3   OH234725   5.176   6.174   5.457  0.1003 -0.2531 -0.0939
 4437TIP3    H134726   5.152   6.197   5.368  1.1148  1.9755  0.1459
 4437TIP3    H234727   5.245   6.109   5.449  1.1538  0.9505 -0.9819
 4438TIP3   OH234728   3.919   3.940   3.590 -0.0799 -0.0905 -0.0371
 4438TIP3    H134729   3.969   4.022   3.582 -1.2118  0.4989 -1.8402
 4438TIP3    H234730   3.872   3.933   3.506 -2.3335 -1.0510  1.2220
 4439TIP3   OH234731   4.290   2.751   0.426 -0.5990 -0.1634  0.2184
 4439TIP3    H134732   4.368   2.765   0.373 -0.5937  1.2575  0.5751
 4439TIP3    H234733   4.222   2.802   0.383 -1.4581 -1.6776 -0.3036
 4440TIP3   OH234734   0.717   5.515   2.830 -0.4057 -0.2695 -0.1035
 4440TIP3    H134735   0.769   5.592   2.809 -1.4979  0.6608  0.5293
 4440TIP3    H234736   0.749   5.448   2.769  1.9495  0.0518  0.6422
 4441TIP3   OH234737   1.873   6.337  15.944 -0.2073  0.2605  0.2961
 4441TIP3    H134738   1.965   6.310  15.934  0.0230  0.1798  2.1307
 4441TIP3    H234739   1.847   6.300  16.029 -2.6321 -1.5608 -1.1060
 4442TIP3   OH234740   3.368   1.560   4.084 -0.1266  1.0068 -0.3864
 4442TIP3    H134741   3.415   1.485   4.121 -0.4201  0.7288 -0.5721
 4442TIP3    H234742   3.419   1.585   4.008  0.1626  1.2147 -0.1259
 4443TIP3   OH234743   1.758   2.440   4.905 -0.2168 -0.4039  0.2954
 4443TIP3    H134744   1.741   2.395   4.823 -0.1116 -0.2044  0.1629
 4443TIP3    H234745   1.768   2.532   4.881  0.9898 -0.4942  0.3611
 4444TIP3   OH234746   4.600   0.291   5.104  0.6596  0.6437 -0.5559
 4444TIP3    H134747   4.616   0.385   5.100  0.3900  0.6730 -1.0643
 4444TIP3    H234748   4.538   0.281   5.177  0.1196  0.9499 -0.9610
 4445TIP3   OH234749   3.093   0.622  15.724  0.1194 -0.2718 -0.2966
 4445TIP3    H134750   3.188   0.624  15.710  0.1255 -1.1569 -0.4164
 4445TIP3    H234751   3.063   0.706  15.690  0.9386  0.3110  0.3765
 4446TIP3   OH234752   2.189   3.533  15.526 -0.1309  0.0301 -0.2343
 4446TIP3    H134753   2.100   3.498  15.531 -0.1693  0.0077 -0.9495
 4446TIP3    H234754   2.212   3.554  15.617 -0.9308  0.2030 -0.0632
 4447TIP3   OH234755   4.463   0.197  11.862 -0.1756 -0.1678 -0.0202
 4447TIP3    H134756   4.507   0.232  11.784  2.5633 -0.5745  1.2382
 4447TIP3    H234757   4.533   0.181  11.924 -1.9972 -2.2153  1.6767
 4448TIP3   OH234758   3.324   2.616  10.519  0.7677  0.5456 -0.5733
 4448TIP3    H134759   3.233   2.586  10.514  0.5627  0.8452  0.8013
 4448TIP3    H234760   3.328   2.690  10.458  0.3377 -0.0255 -1.3087
 4449TIP3   OH234761   6.527   0.658   0.092  0.4975  0.6023  0.3140
 4449TIP3    H134762   6.507   0.721   0.162 -1.2066  0.0654  0.3743
 4449TIP3    H234763   6.622   0.661   0.083  0.4867  3.1338  0.3475
 4450TIP3   OH234764   0.361   6.352   0.287  0.2831  0.3195  0.0516
 4450TIP3    H134765   0.336   6.353   0.194  3.2223 -0.1924 -0.8323
 4450TIP3    H234766   0.445   6.396   0.290  2.2608 -3.1579  1.7688
 4451TIP3   OH234767   5.532   1.682  14.337  0.3603  0.2966  0.3814
 4451TIP3    H134768   5.578   1.730  14.267  1.6223 -0.6074  0.5591
 4451TIP3    H234769   5.527   1.592  14.304 -2.9020  0.6326 -0.4147
 4452TIP3   OH234770   1.501   4.139   0.809 -0.1762  0.4468  0.0781
 4452TIP3    H134771   1.482   4.047   0.827 -0.7612  0.3592 -0.9123
 4452TIP3    H234772   1.594   4.148   0.830  0.1990 -0.6912 -0.9614
 4453TIP3   OH234773   2.761   0.932   3.673 -0.4793  0.1155  0.3528
 4453TIP3    H134774   2.714   0.964   3.750 -2.4867 -1.1579 -0.2870
 4453TIP3    H234775   2.845   0.979   3.675 -1.4359  1.8708  1.9776
 4454TIP3   OH234776   1.833   0.407   4.206 -0.7518 -0.2524  0.0822
 4454TIP3    H134777   1.799   0.381   4.292  0.9297 -2.6099  0.1292
 4454TIP3    H234778   1.859   0.324   4.165  2.6482  1.1101 -0.8555
 4455TIP3   OH234779   4.546   2.301  11.635  0.9177  0.1820 -0.5004
 4455TIP3    H134780   4.611   2.238  11.606  1.0234  0.3439 -0.6195
 4455TIP3    H234781   4.597   2.380  11.655  0.7105  0.4598 -1.0350
 4456TIP3   OH234782   6.497   6.732  13.834  0.5119  0.0553  0.5737
 4456TIP3    H134783   6.535   6.645  13.832 -1.4665 -0.8341 -0.8534
 4456TIP3    H234784   6.444   6.733  13.914 -0.9722 -0.7628 -0.3727
 4457TIP3   OH234785   4.862   2.232  12.614  0.0059 -0.0814  0.6375
 4457TIP3    H134786   4.813   2.153  12.591 -0.5762  0.4341  0.0788
 4457TIP3    H234787   4.874   2.226  12.709  0.7216 -1.2604  0.5026
 4458TIP3   OH234788   5.117   0.318  16.083 -0.5097  0.0294 -0.0408
 4458TIP3    H134789   5.057   0.244  16.074 -0.8315 -0.1658  2.9383
 4458TIP3    H234790   5.192   0.294  16.029 -1.2737 -1.7231 -0.4031
 4459TIP3   OH234791   6.684   1.202   1.828 -0.3901 -0.2611  0.4427
 4459TIP3    H134792   6.635   1.275   1.866 -0.1077  0.6771 -0.9078
 4459TIP3    H234793   6.617   1.146   1.789 -0.4661  0.5764 -0.6619
 4460TIP3   OH234794   0.095   6.526  14.777 -0.3749 -0.0819 -0.3164
 4460TIP3    H134795   0.002   6.541  14.760 -0.6125 -1.3688 -0.2720
 4460TIP3    H234796   0.096   6.477  14.860  0.4067  0.7225  0.1634
 4461TIP3   OH234797   6.090   5.161   0.699  0.0695  0.2028 -0.8943
 4461TIP3    H134798   6.048   5.204   0.773 -0.1445  0.7323 -1.3158
 4461TIP3    H234799   6.064   5.213   0.623  1.8983  0.8624 -1.1225
 4462TIP3   OH234800   6.027   1.885   5.443  0.0171  0.5680 -0.2929
 4462TIP3    H134801   6.100   1.916   5.389 -1.2551 -0.4199 -2.7513
 4462TIP3    H234802   5.964   1.957   5.440  0.5023  1.0720  1.1039
 4463TIP3   OH234803   6.320   1.899  12.110  0.2750 -0.0946 -0.2765
 4463TIP3    H134804   6.355   1.986  12.090  3.0442 -1.0968 -0.2760
 4463TIP3    H234805   6.374   1.840  12.059  0.6929 -2.0291  2.2166
 4464TIP3   OH234806   0.420   1.140  12.907  0.3622  0.1040 -0.4724
 4464TIP3    H134807   0.508   1.172  12.883 -0.3902  1.9778 -0.9702
 4464TIP3    H234808   0.433   1.048  12.928  2.2261 -0.0052 -1.8215
 4465TIP3   OH234809   5.133   2.190  14.899  0.2999  0.3781 -0.3713
 4465TIP3    H134810   5.075   2.221  14.829 -0.3568 -1.0290 -0.4846
 4465TIP3    H234811   5.074   2.154  14.965  1.0120 -2.4613 -1.1396
 4466TIP3   OH234812   0.293   5.190  11.193 -0.6000  0.2052 -0.2043
 4466TIP3    H134813   0.278   5.232  11.278 -1.5439  0.3806 -0.4454
 4466TIP3    H234814   0.206   5.164  11.164 -0.1419 -1.0310 -0.5235
 4467TIP3   OH234815   6.253   4.733  14.397 -0.2515  0.3308 -0.3703
 4467TIP3    H134816   6.237   4.667  14.464 -0.4873  1.8297  1.1216
 4467TIP3    H234817   6.224   4.692  14.315  0.1200 -1.5821  0.4031
 4468TIP3   OH234818   3.288   5.710   0.522 -0.0544 -0.5176 -0.5937
 4468TIP3    H134819   3.233   5.741   0.594 -0.4154  1.3750 -1.6059
 4468TIP3    H234820   3.303   5.617   0.541 -0.3352 -0.1412  1.7523
 4469TIP3   OH234821   6.427   4.881  11.161  0.6844 -0.3555  0.0759
 4469TIP3    H134822   6.333   4.862  11.156  0.8254 -0.9165 -0.7964
 4469TIP3    H234823   6.459   4.861  11.073  1.2687  1.8974 -0.2722
 4470TIP3   OH234824   5.347   4.459  13.322  0.3393 -0.4091 -0.1431
 4470TIP3    H134825   5.404   4.460  13.399  1.5447  0.5789 -1.0203
 4470TIP3    H234826   5.349   4.548  13.289 -1.4714 -0.4262 -0.4139
 4471TIP3   OH234827   6.473   1.178  11.626 -0.1296  0.2772 -0.0934
 4471TIP3    H134828   6.444   1.229  11.702  0.3079  2.0651 -1.0535
 4471TIP3    H234829   6.554   1.136  11.654 -1.0842 -0.8593  1.0824
 4472TIP3   OH234830   3.472   0.247   3.344  0.2502 -0.0813 -0.4169
 4472TIP3    H134831   3.430   0.164   3.366  0.8731 -0.4712 -0.6852
 4472TIP3    H234832   3.478   0.247   3.249  0.3302  0.2291 -0.4126
 4473TIP3   OH234833   5.460   0.783   1.420  0.0557  0.2363 -0.0140
 4473TIP3    H134834   5.543   0.739   1.400  0.3030  0.4637  0.4834
 4473TIP3    H234835   5.477   0.875   1.401 -0.6450  0.0583 -1.6247
 4474TIP3   OH234836   3.896   2.691  15.059 -0.5209 -0.2469 -0.6223
 4474TIP3    H134837   3.817   2.726  15.019 -1.0499  0.0896  0.6556
 4474TIP3    H234838   3.968   2.737  15.015 -1.0560 -0.0653 -1.3249
 4475TIP3   OH234839   1.751   2.319   1.931  0.2733 -0.2517  0.0014
 4475TIP3    H134840   1.838   2.350   1.959 -0.4019  0.3877  1.4901
 4475TIP3    H234841   1.761   2.304   1.837  1.6760  0.9601 -0.0936
 4476TIP3   OH234842   2.580   2.103  13.125 -0.4196  0.3477  0.1828
 4476TIP3    H134843   2.503   2.159  13.132  0.1428  0.9921  1.7298
 4476TIP3    H234844   2.545   2.017  13.102 -1.3842  1.0784 -1.2855
 4477TIP3   OH234845   1.267   0.437   2.725 -0.3607  0.3210 -0.5182
 4477TIP3    H134846   1.225   0.390   2.653 -0.8138  0.3927 -0.3019
 4477TIP3    H234847   1.360   0.436   2.703 -0.2726 -1.2433 -0.2043
 4478TIP3   OH234848   3.189   4.581   6.339 -0.6291  0.7950  0.4655
 4478TIP3    H134849   3.171   4.623   6.423 -1.4871 -0.4256  0.9204
 4478TIP3    H234850   3.233   4.499   6.361 -1.1693  0.3027 -0.2422
 4479TIP3   OH234851   4.094   4.621  11.024 -0.3840 -0.3561  0.1018
 4479TIP3    H134852   4.069   4.545  11.077 -2.7095  0.4984  0.3629
 4479TIP3    H234853   4.070   4.596  10.935 -0.8405 -0.0741  0.1419
 4480TIP3   OH234854   3.493   5.196   6.516  0.6562  0.0718  0.1142
 4480TIP3    H134855   3.586   5.213   6.535  0.6205  0.5580 -0.1196
 4480TIP3    H234856   3.484   5.219   6.423  0.3675 -0.2532  0.0633
 4481TIP3   OH234857   5.001   2.216   3.365 -0.0839  0.2295  0.0002
 4481TIP3    H134858   5.004   2.151   3.435 -0.5433  1.3549  1.1108
 4481TIP3    H234859   5.081   2.201   3.315 -0.7969 -2.0148 -0.5878
 4482TIP3   OH234860   6.647   5.322  15.474 -0.2937  0.2129 -0.0689
 4482TIP3    H134861   6.727   5.311  15.525  0.8593  1.5122 -1.4906
 4482TIP3    H234862   6.676   5.317  15.383 -2.1217 -1.0484 -0.6514
 4483TIP3   OH234863   4.052   6.412  13.412  0.3384  0.5725 -0.4492
 4483TIP3    H134864   4.143   6.435  13.392  0.0141  3.1135  0.5385
 4483TIP3    H234865   4.019   6.488  13.461 -1.0507 -2.0802  3.1303
 4484TIP3   OH234866   2.551   6.652   4.840 -0.2100 -0.1812  0.5079
 4484TIP3    H134867   2.543   6.567   4.884  1.3638 -0.5827  0.0808
 4484TIP3    H234868   2.512   6.714   4.902  3.3370 -0.4869  3.3989
 4485TIP3   OH234869   6.166   2.351   1.253  0.2680  0.9059  0.0839
 4485TIP3    H134870   6.185   2.379   1.343  0.7931  2.3433 -0.4367
 4485TIP3    H234871   6.111   2.274   1.263  1.6648  0.0457  1.6396
 4486TIP3   OH234872   6.494   6.754  10.415 -0.3846  0.0910  0.2975
 4486TIP3    H134873   6.523   6.727  10.502 -2.5964  0.1877  1.1239
 4486TIP3    H234874   6.555   6.824  10.390  0.4834 -0.1618  1.6250
 4487TIP3   OH234875   2.361   5.910   5.542 -0.0599  0.5579  0.5018
 4487TIP3    H134876   2.338   5.820   5.519 -0.9319 -0.0178  3.3029
 4487TIP3    H234877   2.322   5.924   5.628  2.9162  2.4483  1.7145
 4488TIP3   OH234878   2.430   5.839   0.340  0.6937 -0.1843 -0.2343
 4488TIP3    H134879   2.509   5.846   0.394  0.2159  1.1972  0.3327
 4488TIP3    H234880   2.411   5.745   0.337  2.2740 -0.5279 -0.2814
 4489TIP3   OH234881   6.380   0.950  11.448  0.0658 -0.2526  0.1848
 4489TIP3    H134882   6.288   0.926  11.437  0.1191 -0.3255 -0.0989
 4489TIP3    H234883   6.381   1.006  11.526 -0.2758  0.0823 -0.0507
 4490TIP3   OH234884   5.014   3.257  15.814 -0.1841  0.6686 -0.1967
 4490TIP3    H134885   5.030   3.333  15.757  0.2989  0.6042 -0.1540
 4490TIP3    H234886   4.935   3.280  15.862 -1.4599  0.1184 -1.9133
 4491TIP3   OH234887   4.267   1.152   4.527 -0.1000 -0.3920  0.3669
 4491TIP3    H134888   4.219   1.070   4.540 -1.3311  0.5937  2.6149
 4491TIP3    H234889   4.230   1.189   4.447 -1.7734 -0.5859  1.0215
 4492TIP3   OH234890   5.213   3.622  15.499 -0.3870 -0.4000 -0.1155
 4492TIP3    H134891   5.123   3.646  15.521 -0.1246  0.4768  0.0543
 4492TIP3    H234892   5.218   3.633  15.404  0.3230  2.4756  0.1714
 4493TIP3   OH234893   1.622   4.134  16.146  0.5161 -0.3748  0.0825
 4493TIP3    H134894   1.615   4.135  16.242 -0.1319 -0.7006  0.0492
 4493TIP3    H234895   1.648   4.044  16.125  0.6366 -0.3087 -0.0431
 4494TIP3   OH234896   2.043   4.570  12.917 -0.4552  0.2716  0.1314
 4494TIP3    H134897   2.049   4.479  12.889 -0.6944 -0.0656  1.1335
 4494TIP3    H234898   2.122   4.611  12.881  0.8974 -0.8862  1.6228
 4495TIP3   OH234899   2.443   6.772   5.337 -0.0884  0.2405  0.1615
 4495TIP3    H134900   2.507   6.811   5.396  1.0728 -0.6247 -0.4810
 4495TIP3    H234901   2.396   6.709   5.391  0.8437 -0.4207  0.2218
 4496TIP3   OH234902   2.402   4.211  16.248  0.1452 -0.6467  0.5981
 4496TIP3    H134903   2.420   4.131  16.197  1.1778 -0.0502 -0.0156
 4496TIP3    H234904   2.364   4.271  16.184  0.4280 -0.2604  0.7975
 4497TIP3   OH234905   4.248   0.307  13.108 -0.5674  0.0922  0.2061
 4497TIP3    H134906   4.248   0.213  13.089  2.0729  0.1512 -0.3797
 4497TIP3    H234907   4.225   0.312  13.201  0.9735 -1.2911  0.7000
 4498TIP3   OH234908   0.175   0.177   6.444 -0.4280 -0.6194 -0.4900
 4498TIP3    H134909   0.236   0.104   6.454 -1.5224 -1.4863  0.1393
 4498TIP3    H234910   0.212   0.230   6.374  1.0848 -1.0618 -0.0692
 4499TIP3   OH234911   3.085   5.185   2.530  0.1920 -0.4324 -0.3472
 4499TIP3    H134912   3.150   5.191   2.600  1.1536 -2.7578 -0.9492
 4499TIP3    H234913   3.017   5.248   2.554  2.4193  1.7764  0.5484
 4500TIP3   OH234914   3.751   3.322   2.596  0.1140 -0.3189  0.1465
 4500TIP3    H134915   3.776   3.267   2.670 -0.3073 -0.1835  0.3928
 4500TIP3    H234916   3.809   3.398   2.602 -2.6034  1.8246  2.8908
 4501TIP3   OH234917   3.070   5.961   3.599 -0.2727 -0.2464  0.1683
 4501TIP3    H134918   3.022   5.878   3.597  1.8871 -1.5831 -1.0817
 4501TIP3    H234919   3.101   5.969   3.689 -0.7279 -0.6642  0.3648
 4502TIP3   OH234920   3.453   5.552  11.285  0.8973  0.1755 -0.1928
 4502TIP3    H134921   3.477   5.572  11.194  4.6821  1.5929  0.9338
 4502TIP3    H234922   3.428   5.637  11.322 -1.1406 -0.4768  0.0449
 4503TIP3   OH234923   0.704   0.605  15.547  0.4488 -0.2664 -0.0468
 4503TIP3    H134924   0.759   0.527  15.540  2.1861  0.9271 -0.5042
 4503TIP3    H234925   0.671   0.619  15.458  1.7136  0.5670 -0.4096
 4504TIP3   OH234926   6.660   5.485   4.969 -0.1128 -0.1451 -0.3774
 4504TIP3    H134927   6.705   5.437   4.900  1.0588 -0.4046  0.5519
 4504TIP3    H234928   6.667   5.577   4.943 -0.0808 -0.2718 -0.8260
 4505TIP3   OH234929   3.500   0.597   1.853 -0.5370 -0.6701 -0.6270
 4505TIP3    H134930   3.438   0.534   1.816 -0.9758 -1.1764  0.8962
 4505TIP3    H234931   3.480   0.598   1.946 -1.5158  2.7783 -0.7083
 4506TIP3   OH234932   4.446   2.668   5.761 -0.2082  0.0217  0.2914
 4506TIP3    H134933   4.387   2.706   5.696  0.5536  0.3349 -0.2426
 4506TIP3    H234934   4.413   2.699   5.845 -0.9361 -0.0051  0.0250
 4507TIP3   OH234935   5.393   6.130  13.000  0.9907  0.0871  0.1885
 4507TIP3    H134936   5.312   6.108  13.047  0.5499  2.1284  0.4595
 4507TIP3    H234937   5.363   6.166  12.917  1.5664  1.3649  0.5119
 4508TIP3   OH234938   5.495   2.036   1.307  0.5775  0.5016  0.2014
 4508TIP3    H134939   5.511   2.003   1.395  0.4246  2.1127  0.8611
 4508TIP3    H234940   5.463   2.125   1.320 -1.3217  0.1293 -1.3910
 4509TIP3   OH234941   4.300   4.501  15.111 -0.1560 -0.3613  0.4619
 4509TIP3    H134942   4.357   4.449  15.168 -1.9585 -0.3835  2.3684
 4509TIP3    H234943   4.314   4.591  15.139 -0.0364 -0.2217 -0.0363
 4510TIP3   OH234944   0.155   2.544   1.055  0.0279 -0.3745  0.7986
 4510TIP3    H134945   0.147   2.639   1.051  0.2527 -0.3649  0.4604
 4510TIP3    H234946   0.197   2.521   0.972 -0.3213 -0.8012  0.7385
 4511TIP3   OH234947   0.944   6.586  14.102  0.3816 -0.4104 -0.0972
 4511TIP3    H134948   0.999   6.507  14.104  1.9291  0.6151 -0.7193
 4511TIP3    H234949   0.872   6.564  14.043 -1.6306 -2.8193  2.9339
 4512TIP3   OH234950   4.963   2.779   5.762 -0.5237  0.2359 -0.1169
 4512TIP3    H134951   5.038   2.749   5.813 -0.5344 -0.7881 -0.6622
 4512TIP3    H234952   4.897   2.710   5.776  0.1699 -1.1819 -3.0845
 4513TIP3   OH234953   5.780   5.404   0.320 -0.1597  0.9060  0.2411
 4513TIP3    H134954   5.829   5.447   0.250  0.4371  1.4357  0.9581
 4513TIP3    H234955   5.763   5.316   0.288  2.0355  0.4047  0.2950
 4514TIP3   OH234956   5.376   0.812  12.074 -0.6308  0.2875  0.0685
 4514TIP3    H134957   5.421   0.750  12.016 -0.4455  0.3404  0.1574
 4514TIP3    H234958   5.438   0.830  12.144 -1.2721 -0.6545  0.9026
 4515TIP3   OH234959   0.301   4.255   0.695  0.1720  0.0995  0.1733
 4515TIP3    H134960   0.374   4.306   0.730  0.6770  0.4047 -1.2523
 4515TIP3    H234961   0.335   4.166   0.687  0.1158  0.0669  0.3042
 4516TIP3   OH234962   0.080   4.998  10.485 -0.6373  0.1234 -0.1132
 4516TIP3    H134963   0.123   5.083  10.497  0.4424 -0.4554  0.3100
 4516TIP3    H234964   0.001   5.018  10.434 -0.5389  1.4054  0.1922
 4517TIP3   OH234965   0.241   3.846   0.069 -0.2738 -0.2230  0.8474
 4517TIP3    H134966   0.335   3.839   0.087  0.4029  2.3779 -1.1130
 4517TIP3    H234967   0.221   3.772   0.012  1.0377  0.1869 -0.1884
 4518TIP3   OH234968   4.545   3.633  15.229 -0.4801 -0.0697 -0.3497
 4518TIP3    H134969   4.558   3.538  15.237 -0.3453 -0.0732 -0.6066
 4518TIP3    H234970   4.505   3.644  15.143  1.8271  0.3180 -1.4592
 4519TIP3   OH234971   4.955   2.722  15.463 -0.0128  0.2000  0.1641
 4519TIP3    H134972   4.922   2.810  15.480 -0.5908  0.2274 -0.9931
 4519TIP3    H234973   5.047   2.726  15.487  0.0469  1.2172 -0.1957
 4520TIP3   OH234974   0.252   5.889  14.956  0.8699 -0.1670 -0.3878
 4520TIP3    H134975   0.313   5.826  14.995  0.1443 -0.4831  0.2691
 4520TIP3    H234976   0.189   5.834  14.908  0.6676  0.1048 -0.4347
 4521TIP3   OH234977   2.112   3.294   1.298 -0.3990 -0.0947  0.2164
 4521TIP3    H134978   2.176   3.338   1.354  1.5356  1.4168 -2.9302
 4521TIP3    H234979   2.035   3.352   1.300 -0.5399 -0.3008  1.5780
 4522TIP3   OH234980   3.021   5.689  13.183 -0.0577 -0.0543  0.3638
 4522TIP3    H134981   3.034   5.780  13.158 -0.8045 -0.1758 -0.4990
 4522TIP3    H234982   3.109   5.652  13.185  0.0587 -0.0765 -2.2812
 4523TIP3   OH234983   1.962   3.703  13.169 -0.2330 -0.5639 -0.1302
 4523TIP3    H134984   1.871   3.715  13.140 -0.1694  0.5276  0.0997
 4523TIP3    H234985   2.015   3.733  13.095 -0.0671  2.3391  1.0544
 4524TIP3   OH234986   1.165   5.629  14.455  0.6556 -0.2389 -0.4931
 4524TIP3    H134987   1.094   5.693  14.447 -1.5969 -2.5081  0.1876
 4524TIP3    H234988   1.242   5.675  14.420 -1.2100  2.1587 -1.8042
 4525TIP3   OH234989   3.064   1.191  14.469  0.2440  0.2276  0.1504
 4525TIP3    H134990   3.037   1.241  14.546 -0.0755 -0.1695  0.2994
 4525TIP3    H234991   3.123   1.124  14.504 -0.2017 -0.1928  0.1045
 4526TIP3   OH234992   4.798   2.185   5.250  0.7401  0.3263 -0.0404
 4526TIP3    H134993   4.883   2.168   5.293 -0.5286 -0.0101  2.5571
 4526TIP3    H234994   4.775   2.274   5.277  0.4863  0.6275 -1.1960
 4527TIP3   OH234995   3.316   3.822   3.656 -0.0737 -0.3122 -0.3203
 4527TIP3    H134996   3.227   3.838   3.688  0.5319  0.5324  1.0010
 4527TIP3    H234997   3.372   3.871   3.715  1.2514 -0.3823 -1.4780
 4528TIP3   OH234998   1.878   5.381   4.215 -0.4827  0.4964 -0.1716
 4528TIP3    H134999   1.838   5.376   4.302 -1.8172  2.6986 -0.5933
 4528TIP3    H235000   1.809   5.355   4.155  0.5161 -1.2894 -0.6178
 4529TIP3   OH235001   6.514   6.089   3.455  0.2098 -0.0534 -0.6594
 4529TIP3    H135002   6.423   6.061   3.452  0.2489 -0.1060 -1.6521
 4529TIP3    H235003   6.563   6.021   3.409  1.0000 -0.8451  1.2298
 4530TIP3   OH235004   3.593   0.242  12.280 -0.1686 -0.4846  0.2542
 4530TIP3    H135005   3.565   0.315  12.224  0.2880  0.0676  0.7251
 4530TIP3    H235006   3.683   0.264  12.304  0.6494 -2.1300 -1.0882
 4531TIP3   OH235007   1.279   6.505   3.866  0.3397 -0.2318 -0.1434
 4531TIP3    H135008   1.298   6.517   3.959  1.7137 -1.7694 -0.1695
 4531TIP3    H235009   1.207   6.442   3.865  0.4511 -0.3612 -0.1118
 4532TIP3   OH235010   4.254   0.442   1.856  0.5540 -0.0114 -0.1882
 4532TIP3    H135011   4.296   0.364   1.820  0.8540  0.0024  0.1342
 4532TIP3    H235012   4.309   0.467   1.930  1.8647  1.9047 -1.6941
 4533TIP3   OH235013   4.424   3.286   0.750  0.3626  0.4433  0.5183
 4533TIP3    H135014   4.417   3.227   0.825  0.1104 -2.7923 -1.8352
 4533TIP3    H235015   4.340   3.278   0.705  1.7456 -0.8267 -2.1024
 4534TIP3   OH235016   1.825   0.303   2.038  0.1833  0.4911 -0.0985
 4534TIP3    H135017   1.863   0.331   2.121  0.7338  1.0929 -0.5381
 4534TIP3    H235018   1.734   0.282   2.058  0.2487  0.8718  0.6068
 4535TIP3   OH235019   0.920   5.639  12.773  0.0588 -0.0411  0.5229
 4535TIP3    H135020   0.971   5.586  12.712 -0.6860  0.2832 -0.3956
 4535TIP3    H235021   0.973   5.718  12.786  0.2683 -0.1575  0.3908
 4536TIP3   OH235022   0.734   0.138  13.022  0.0207 -0.0886  0.0792
 4536TIP3    H135023   0.742   0.149  12.927  1.6211 -0.1317  0.1881
 4536TIP3    H235024   0.643   0.162  13.041 -0.1015  0.6867 -1.3526
 4537TIP3   OH235025   5.547   0.169   5.750  1.0852 -0.3130 -0.6593
 4537TIP3    H135026   5.562   0.076   5.739 -0.8161 -0.7495  0.1585
 4537TIP3    H235027   5.474   0.190   5.692  0.7170  0.4125  0.0374
 4538TIP3   OH235028   1.090   0.601  12.555  0.4399  0.4408 -1.2666
 4538TIP3    H135029   1.155   0.552  12.604 -0.6195 -0.8997 -1.1569
 4538TIP3    H235030   1.071   0.678  12.610  0.7228 -0.0120 -0.5280
 4539TIP3   OH235031   5.890   4.318   0.830 -0.2291  0.4938 -0.0972
 4539TIP3    H135032   5.834   4.332   0.906 -0.2583 -0.0684 -0.0132
 4539TIP3    H235033   5.878   4.397   0.777  0.2503  1.1532  0.7510
 4540TIP3   OH235034   4.214   4.994   5.978  0.5887  0.6952 -0.2502
 4540TIP3    H135035   4.174   4.969   6.061  0.0500  1.9353 -0.1119
 4540TIP3    H235036   4.275   5.065   6.001 -0.4031  1.8428 -1.0432
 4541TIP3   OH235037   6.275   5.613  15.309  0.1231  0.2670 -0.1501
 4541TIP3    H135038   6.223   5.538  15.337  1.3869 -0.7990 -0.5378
 4541TIP3    H235039   6.329   5.579  15.238 -0.1038  1.8643 -1.1268
 4542TIP3   OH235040   2.646   2.549   3.514 -0.1781  0.3390 -0.1513
 4542TIP3    H135041   2.576   2.499   3.472 -0.4786 -0.5324  1.3026
 4542TIP3    H235042   2.602   2.596   3.586  0.8591 -1.1892  1.5669
 4543TIP3   OH235043   3.263   6.524  11.559  0.3695 -0.1239 -0.2398
 4543TIP3    H135044   3.278   6.453  11.497  1.6229  0.4341 -0.6311
 4543TIP3    H235045   3.333   6.514  11.624 -0.9385 -0.7075  1.1188
 4544TIP3   OH235046   2.208   4.100  10.952 -0.1228  0.0194  0.0468
 4544TIP3    H135047   2.234   4.190  10.970 -0.7687 -0.1740  2.3181
 4544TIP3    H235048   2.121   4.108  10.912 -0.8813  0.4134  1.6864
 4545TIP3   OH235049   1.219   1.110  11.692 -0.1354  0.0486 -0.0231
 4545TIP3    H135050   1.143   1.139  11.741 -1.2314  0.2291 -1.7325
 4545TIP3    H235051   1.187   1.038  11.638  0.3891  1.2451 -2.0792
 4546TIP3   OH235052   0.498   1.223   5.761 -0.2138  0.2705 -0.2837
 4546TIP3    H135053   0.425   1.247   5.819  0.6107  1.2233  0.3877
 4546TIP3    H235054   0.495   1.128   5.757 -1.2598  0.2739  0.0466
 4547TIP3   OH235055   6.051   6.361   5.080 -0.2220 -0.2048 -0.6427
 4547TIP3    H135056   6.130   6.415   5.081 -1.0625  1.0514  0.2266
 4547TIP3    H235057   6.023   6.356   5.171 -0.6714 -1.3877 -0.8200
 4548TIP3   OH235058   4.241   2.564   3.984  0.3604  0.4471  0.1667
 4548TIP3    H135059   4.219   2.585   3.893  2.4175  1.9728 -0.0675
 4548TIP3    H235060   4.201   2.634   4.035  0.9457  0.7755  0.1877
 4549TIP3   OH235061   4.793   0.233   1.133 -0.6283 -0.4985 -0.4607
 4549TIP3    H135062   4.810   0.323   1.104 -0.0222 -0.3960  0.1702
 4549TIP3    H235063   4.797   0.238   1.229 -0.7298 -1.1733 -0.4172
 4550TIP3   OH235064   6.073   4.586   2.877  0.1516 -0.2336 -0.3899
 4550TIP3    H135065   6.119   4.615   2.799 -0.1018  0.8211 -0.1575
 4550TIP3    H235066   6.043   4.666   2.919  1.1799 -0.6991  1.3555
 4551TIP3   OH235067   1.052   0.850   3.744 -0.3465 -0.3967  0.0175
 4551TIP3    H135068   0.998   0.891   3.812 -0.9357 -0.0008 -0.6696
 4551TIP3    H235069   1.129   0.817   3.790 -1.6312 -1.8735  1.2008
 4552TIP3   OH235070   2.686   1.056  13.243 -0.0005  0.1355 -0.0474
 4552TIP3    H135071   2.757   1.115  13.217  0.8089 -0.8155 -0.0359
 4552TIP3    H235072   2.626   1.058  13.168 -0.0831  1.0879  0.0202
 4553TIP3   OH235073   1.465   4.703  15.511  0.8279 -0.1412  0.4224
 4553TIP3    H135074   1.429   4.694  15.422  1.3155  1.2192  0.0676
 4553TIP3    H235075   1.547   4.654  15.509  1.1756  0.4534 -0.0904
 4554TIP3   OH235076   1.249   4.364  16.986  0.2939 -0.3720 -0.4248
 4554TIP3    H135077   1.263   4.270  16.970  0.6408 -0.0151 -2.6440
 4554TIP3    H235078   1.336   4.398  17.007  0.1475 -0.5659  0.4953
 4555TIP3   OH235079   1.766   5.398   1.780 -0.2805  0.1548 -0.3133
 4555TIP3    H135080   1.799   5.341   1.711 -1.7225 -0.9792 -0.1085
 4555TIP3    H235081   1.672   5.401   1.766 -0.6730 -0.5077  1.8728
 4556TIP3   OH235082   0.835   5.230   3.105 -0.5346  0.2379  0.1813
 4556TIP3    H135083   0.811   5.182   3.025 -0.3263 -0.0422  0.2854
 4556TIP3    H235084   0.770   5.300   3.111  0.8677  1.8460 -1.6178
 4557TIP3   OH235085   3.205   2.458   4.860  0.6897  0.4562  0.4961
 4557TIP3    H135086   3.201   2.450   4.764 -0.7547  0.4961  0.5301
 4557TIP3    H235087   3.171   2.374   4.892 -0.8399  1.1953  0.9311
 4558TIP3   OH235088   4.584   2.702  16.099 -0.1360 -0.0311  0.3413
 4558TIP3    H135089   4.587   2.607  16.091 -2.2687 -0.1649  0.3529
 4558TIP3    H235090   4.662   2.733  16.054  1.0687 -1.7995  1.0980
 4559TIP3   OH235091   4.511   2.475   4.543 -0.6029 -0.6001  0.1015
 4559TIP3    H135092   4.570   2.465   4.468 -2.4254  1.5805 -1.7741
 4559TIP3    H235093   4.440   2.414   4.527 -0.6367 -0.6642  0.4777
 4560TIP3   OH235094   1.705   0.419   0.058  0.6030  0.0418 -0.1663
 4560TIP3    H135095   1.670   0.414  -0.031  0.4655  2.8748 -0.3726
 4560TIP3    H235096   1.800   0.414   0.047  0.5604 -0.3743 -0.3780
 4561TIP3   OH235097   4.231   1.302  13.428  0.0435 -0.2731 -0.1403
 4561TIP3    H135098   4.269   1.246  13.360 -0.1525 -0.5639 -0.0125
 4561TIP3    H235099   4.306   1.329  13.481  0.4060  1.1132 -1.2883
 4562TIP3   OH235100   6.701   5.232   4.532  0.1985 -0.3547 -0.2416
 4562TIP3    H135101   6.668   5.260   4.446 -1.0612  2.3457  1.0110
 4562TIP3    H235102   6.637   5.168   4.562  1.1549 -2.0688 -1.6198
 4563TIP3   OH235103   6.592   1.375   3.279  0.7449 -0.8077 -0.4502
 4563TIP3    H135104   6.526   1.410   3.219 -0.8830 -1.3426  0.9261
 4563TIP3    H235105   6.639   1.309   3.229  0.1425 -0.5103 -1.4271
 4564TIP3   OH235106   0.263   4.468   0.142  0.1285  0.2559 -0.8792
 4564TIP3    H135107   0.173   4.493   0.123  0.8086  3.2251 -0.7753
 4564TIP3    H235108   0.309   4.480   0.059  0.6074 -0.2449 -0.6893
 4565TIP3   OH235109   6.074   1.635   1.139 -0.1275 -0.1914  0.0060
 4565TIP3    H135110   6.085   1.712   1.084  0.3638 -0.3894 -0.1808
 4565TIP3    H235111   6.161   1.619   1.175 -0.1275 -0.9187 -0.3061
 4566TIP3   OH235112   3.525   2.059   3.050 -0.3021 -0.4654  0.2259
 4566TIP3    H135113   3.463   2.083   2.981 -0.5357  0.3214  0.6860
 4566TIP3    H235114   3.511   2.125   3.118  2.9775  1.4964 -0.7823
 4567TIP3   OH235115   6.754   1.185  13.091  0.4218 -0.1255  0.3969
 4567TIP3    H135116   6.736   1.119  13.025 -1.8874  0.8844 -0.0914
 4567TIP3    H235117   6.840   1.220  13.067  0.3030 -0.8229 -1.1574
 4568TIP3   OH235118   6.722   4.519   5.098  0.1892  0.2191 -0.2093
 4568TIP3    H135119   6.806   4.482   5.124 -0.4554 -0.4248  1.0294
 4568TIP3    H235120   6.745   4.601   5.054  1.4797 -0.1697 -0.3179
 4569TIP3   OH235121   0.555   0.487   2.327 -0.1980  0.0878 -0.2603
 4569TIP3    H135122   0.643   0.474   2.363 -0.3937  1.1341  0.6480
 4569TIP3    H235123   0.569   0.537   2.247  0.0735 -0.3943 -0.5239
 4570TIP3   OH235124   5.253   6.038  14.398  0.0199 -0.0946  0.5916
 4570TIP3    H135125   5.229   6.039  14.306 -0.4724 -1.0671  0.6970
 4570TIP3    H235126   5.170   6.046  14.445  0.1424 -0.7929  0.9449
 4571TIP3   OH235127   0.560   5.663  15.895  0.5492  0.3464 -0.1125
 4571TIP3    H135128   0.519   5.730  15.842  1.8009  1.4577  0.2584
 4571TIP3    H235129   0.654   5.675  15.881  0.8146 -1.7281 -0.5033
 4572TIP3   OH235130   0.313   6.635  17.094 -0.3714 -0.0828  0.0069
 4572TIP3    H135131   0.385   6.687  17.129 -0.4871 -0.7568  1.3288
 4572TIP3    H235132   0.310   6.657  17.001  1.3358  0.2007 -0.0218
 4573TIP3   OH235133   1.497   1.617  16.117 -0.0956 -0.0953  0.5035
 4573TIP3    H135134   1.570   1.649  16.169 -1.2678  0.6208  1.7705
 4573TIP3    H235135   1.442   1.693  16.102 -0.9794 -0.7652  0.2340
 4574TIP3   OH235136   6.471   3.585  15.468  0.1550 -0.2309 -0.2878
 4574TIP3    H135137   6.499   3.597  15.377 -0.6034  1.3878 -0.3429
 4574TIP3    H235138   6.433   3.497  15.470 -0.1634 -0.1443 -1.6238
 4575TIP3   OH235139   0.949   1.109  14.677 -0.5853  0.4822  0.0634
 4575TIP3    H135140   0.912   1.048  14.741 -2.6208 -0.1374 -1.6094
 4575TIP3    H235141   0.967   1.188  14.728  1.0630 -1.0521  2.0592
 4576TIP3   OH235142   1.596   3.009  16.560 -0.2531  0.2202 -0.4169
 4576TIP3    H135143   1.531   2.944  16.587 -0.8186  0.8697 -0.1800
 4576TIP3    H235144   1.621   3.053  16.642  0.6372 -0.1563 -0.4800
 4577TIP3   OH235145   4.964   2.788  16.939  0.6919 -0.3284  0.3733
 4577TIP3    H135146   4.897   2.725  16.968  0.0415  0.5961  0.9277
 4577TIP3    H235147   5.045   2.737  16.939 -0.0007 -1.4896 -0.3537
 4578TIP3   OH235148   6.803   4.731   5.800  0.4502  0.2545 -0.3646
 4578TIP3    H135149   6.729   4.674   5.818 -0.3115  1.5037  0.5887
 4578TIP3    H235150   6.839   4.751   5.886  0.1976  1.8506 -0.6098
 4579TIP3   OH235151   5.341   2.986  11.538  0.0088  0.2297 -0.3902
 4579TIP3    H135152   5.412   2.959  11.481  0.1233  0.4060 -0.3325
 4579TIP3    H235153   5.305   3.065  11.497 -1.3840 -0.8880 -1.4461
 4580TIP3   OH235154   1.259   4.351  13.646  0.4892 -0.5776  0.2281
 4580TIP3    H135155   1.173   4.380  13.674  0.1352 -0.6177 -0.7778
 4580TIP3    H235156   1.289   4.293  13.716 -0.6433 -1.1982  0.2202
 4581TIP3   OH235157   5.352   5.444  12.515 -0.1872  0.0058  0.4352
 4581TIP3    H135158   5.310   5.528  12.494  0.3110 -0.1917 -1.5658
 4581TIP3    H235159   5.440   5.452  12.478  0.2165 -1.0203  1.1478
 4582TIP3   OH235160   0.935   1.260   4.332 -0.2407  0.2986  0.0997
 4582TIP3    H135161   0.867   1.302   4.279  0.9082  0.9852 -0.8890
 4582TIP3    H235162   0.919   1.292   4.421 -1.3363  0.2704 -0.0727
 4583TIP3   OH235163   0.814   6.394  16.913  0.1429  0.1299  0.2553
 4583TIP3    H135164   0.811   6.416  16.820  2.1284 -0.4468  0.0066
 4583TIP3    H235165   0.907   6.383  16.932 -0.2762 -0.5507  2.1358
 4584TIP3   OH235166   5.957   1.815  11.674  0.2316  0.4033 -0.4229
 4584TIP3    H135167   5.969   1.788  11.765 -0.6661 -0.5787 -0.5777
 4584TIP3    H235168   5.896   1.889  11.680  0.8600  0.9177 -0.1768
 4585TIP3   OH235169   5.202   3.122  15.096 -0.2100  0.2669  0.2722
 4585TIP3    H135170   5.147   3.089  15.026  0.9442 -0.7814 -0.1901
 4585TIP3    H235171   5.292   3.105  15.066  0.3432  0.9971  1.4251
 4586TIP3   OH235172   4.056   3.718   4.129  0.2581  0.2787  0.4666
 4586TIP3    H135173   3.975   3.766   4.142 -0.5823 -0.8962 -0.1942
 4586TIP3    H235174   4.032   3.646   4.071  1.4523 -0.9394  1.4142
 4587TIP3   OH235175   0.936   2.049  10.572  0.0004 -0.0669  0.7366
 4587TIP3    H135176   0.854   1.999  10.569  0.5649 -0.9541 -0.7165
 4587TIP3    H235177   0.918   2.127  10.519  0.7469 -1.3626 -1.5474
 4588TIP3   OH235178   3.247   5.635  14.684  0.5121  0.1583  0.2598
 4588TIP3    H135179   3.250   5.686  14.764  1.5582  0.5797 -0.0321
 4588TIP3    H235180   3.175   5.672  14.634 -0.7299 -0.6879  1.3668
 4589TIP3   OH235181   2.264   1.348  14.833  0.3727  0.1516  0.2426
 4589TIP3    H135182   2.302   1.342  14.921 -0.7276 -0.1566  0.7258
 4589TIP3    H235183   2.292   1.433  14.800  1.6873 -0.1766  0.4561
 4590TIP3   OH235184   4.369   3.036   2.977 -0.4523 -0.8327 -0.4040
 4590TIP3    H135185   4.381   2.961   2.919 -0.2343 -1.8449  0.9088
 4590TIP3    H235186   4.453   3.082   2.974 -0.3998 -0.9440 -0.7680
 4591TIP3   OH235187   4.758   0.385   3.170 -0.1489  0.9856  0.5391
 4591TIP3    H135188   4.674   0.428   3.155 -1.6612 -1.7262  0.6304
 4591TIP3    H235189   4.767   0.323   3.098  0.1475 -1.0496  2.2242
 4592TIP3   OH235190   3.667   2.291  15.844 -0.6052 -0.3027  0.0457
 4592TIP3    H135191   3.653   2.311  15.937 -0.4309  3.2533 -0.5547
 4592TIP3    H235192   3.753   2.329  15.824 -1.4724  0.7552 -1.9476
 4593TIP3   OH235193   6.342   1.967   3.722 -0.2198  0.0759 -0.0402
 4593TIP3    H135194   6.268   2.022   3.694  1.7584  2.4203 -0.9761
 4593TIP3    H235195   6.333   1.963   3.818 -2.3453 -0.9908 -0.2204
 4594TIP3   OH235196   4.134   1.565  10.679  0.5723 -0.3216  0.2582
 4594TIP3    H135197   4.047   1.603  10.693 -0.8354 -3.1238 -0.2282
 4594TIP3    H235198   4.137   1.546  10.586  1.4844 -0.7472  0.3674
 4595TIP3   OH235199   5.733   1.541   1.515 -0.2774  0.2430  0.1848
 4595TIP3    H135200   5.657   1.549   1.459 -0.9034 -1.1994  0.7893
 4595TIP3    H235201   5.698   1.531   1.603  0.4502 -2.8323  0.2347
 4596TIP3   OH235202   0.304   0.426  14.234  0.2818 -0.5817  0.1846
 4596TIP3    H135203   0.370   0.357  14.231  2.0492  1.0601 -0.8011
 4596TIP3    H235204   0.262   0.422  14.148  1.2909  0.3489 -0.3806
 4597TIP3   OH235205   6.025   3.528  11.511  0.8407 -0.1225  0.7842
 4597TIP3    H135206   5.991   3.616  11.527 -1.3734 -0.5390 -1.0845
 4597TIP3    H235207   6.119   3.541  11.495  0.4688  1.9833 -0.0210
 4598TIP3   OH235208   5.024   1.451  11.773 -0.4220  0.1712  0.0837
 4598TIP3    H135209   4.964   1.504  11.721  0.0452  0.5186 -0.1113
 4598TIP3    H235210   4.971   1.377  11.803 -1.0055  0.5962  0.1167
 4599TIP3   OH235211   6.598   2.880  16.235  0.1626 -0.2705  0.2485
 4599TIP3    H135212   6.535   2.818  16.198 -0.1983  0.6207 -0.6898
 4599TIP3    H235213   6.634   2.926  16.159  0.8002  0.3073  0.8835
 4600TIP3   OH235214   3.536   4.182   1.515 -0.6007 -0.1988  0.5146
 4600TIP3    H135215   3.445   4.187   1.487 -0.2923  0.2277 -0.4792
 4600TIP3    H235216   3.560   4.090   1.502 -0.1468  0.1853 -1.7974
 4601TIP3   OH235217   1.188   3.192  14.719 -0.0357  0.1795 -0.1922
 4601TIP3    H135218   1.222   3.267  14.767  2.8856 -1.2968  0.2929
 4601TIP3    H235219   1.098   3.183  14.748  0.1628  2.2392  1.2709
 4602TIP3   OH235220   2.860   5.610  12.005  0.0419 -0.1663 -0.0560
 4602TIP3    H135221   2.926   5.601  11.936  2.8491 -3.6345  2.6993
 4602TIP3    H235222   2.793   5.545  11.982  0.0857 -0.1071 -0.3587
 4603TIP3   OH235223   1.755   6.656  15.532 -0.1071 -0.8219  0.6270
 4603TIP3    H135224   1.838   6.678  15.489 -0.5559  0.0972  0.2079
 4603TIP3    H235225   1.779   6.635  15.622  0.5463 -0.1504  0.6194
 4604TIP3   OH235226   2.621   4.454  15.059 -0.0614 -0.1083 -0.0059
 4604TIP3    H135227   2.528   4.450  15.035 -0.3825 -0.3778  1.2229
 4604TIP3    H235228   2.622   4.506  15.140  0.6672 -1.3672  0.8299
 4605TIP3   OH235229   3.957   2.876  16.126  0.2100 -0.5449  0.2801
 4605TIP3    H135230   3.993   2.794  16.092 -0.4946 -1.6515  2.0411
 4605TIP3    H235231   3.918   2.852  16.211 -1.2932  1.3214  0.1989
 4606TIP3   OH235232   3.093   0.323  16.895  0.6562 -0.4450 -0.3436
 4606TIP3    H135233   3.106   0.230  16.877  2.4254  0.0058 -1.6536
 4606TIP3    H235234   3.025   0.350  16.833  0.2572 -0.8099 -0.0733
 4607TIP3   OH235235   3.402   6.669   4.210  0.1108  0.0871  0.2508
 4607TIP3    H135236   3.496   6.665   4.226 -0.2056 -1.1006  2.1072
 4607TIP3    H235237   3.369   6.731   4.275 -0.5653 -0.7813  0.7690
 4608TIP3   OH235238   1.242   3.619   3.767 -0.3072 -0.3988 -0.0481
 4608TIP3    H135239   1.306   3.548   3.761 -1.2529 -1.5143  1.8448
 4608TIP3    H235240   1.265   3.664   3.848 -0.0238  1.2020 -0.9790
 4609TIP3   OH235241   0.391   2.484  13.902  0.1260 -0.6583  0.1272
 4609TIP3    H135242   0.392   2.545  13.828 -1.0711 -0.9377 -0.1385
 4609TIP3    H235243   0.318   2.514  13.956  1.0167 -0.4232  1.2454
 4610TIP3   OH235244   1.530   3.752   2.966  0.3161 -0.0524 -0.3787
 4610TIP3    H135245   1.557   3.817   2.901 -1.0344 -0.4337 -1.3749
 4610TIP3    H235246   1.536   3.668   2.920  0.1371 -0.4228  0.2557
 4611TIP3   OH235247   4.200   5.429   2.973 -0.0860  0.2533 -0.4743
 4611TIP3    H135248   4.288   5.391   2.971 -0.5051 -1.1329  2.1000
 4611TIP3    H235249   4.207   5.499   3.038 -0.8208  0.2310 -0.3680
 4612TIP3   OH235250   3.106   4.724   5.481 -0.2893 -0.2538 -0.0845
 4612TIP3    H135251   3.069   4.799   5.528 -0.4100  0.0136 -0.5987
 4612TIP3    H235252   3.145   4.762   5.402  0.5885 -0.6041  0.1718
 4613TIP3   OH235253   4.127   0.551   5.367  0.1522  0.2147 -0.7893
 4613TIP3    H135254   4.147   0.544   5.461 -0.3762 -1.0692 -0.7565
 4613TIP3    H235255   4.208   0.585   5.328  0.4790  0.4805  0.0919
 4614TIP3   OH235256   0.423   5.647  11.941  0.0501  0.2927  0.0883
 4614TIP3    H135257   0.499   5.705  11.941  0.5967 -0.3991  0.8664
 4614TIP3    H235258   0.451   5.570  11.991 -0.7032 -0.5815 -0.7886
 4615TIP3   OH235259   0.264   2.973   6.356  0.5053 -0.4164 -0.5283
 4615TIP3    H135260   0.294   3.062   6.376  1.4913 -0.4806 -1.6072
 4615TIP3    H235261   0.188   2.986   6.299 -1.1413 -0.2651  1.5760
 4616TIP3   OH235262   3.375   1.068  16.988 -0.2173 -0.0974 -0.2037
 4616TIP3    H135263   3.370   1.127  17.063 -2.2778  0.8940 -1.0318
 4616TIP3    H235264   3.305   1.004  17.004  1.4849 -1.9143  0.2973
 4617TIP3   OH235265   0.764   0.372   0.457  0.3155 -0.2391 -0.1162
 4617TIP3    H135266   0.754   0.436   0.527 -3.3185 -0.1240 -0.5911
 4617TIP3    H235267   0.727   0.291   0.493  0.4467 -0.7801 -1.1483
 4618TIP3   OH235268   2.554   5.897  16.023  0.1089 -0.3300 -0.2110
 4618TIP3    H135269   2.561   5.804  16.043 -2.0071 -0.7010 -0.8804
 4618TIP3    H235270   2.549   5.939  16.108 -1.5453 -1.1383  0.1334
 4619TIP3   OH235271   6.496   6.647   5.189  0.0036  0.1811  0.4710
 4619TIP3    H135272   6.559   6.655   5.261  0.4094 -1.7698  0.4083
 4619TIP3    H235273   6.430   6.713   5.206  1.2875  1.2798  1.3759
 4620TIP3   OH235274   6.731   1.323  15.440 -0.1432  0.0058 -0.0538
 4620TIP3    H135275   6.704   1.237  15.473 -0.0059 -0.1916 -0.4414
 4620TIP3    H235276   6.659   1.351  15.384 -0.0408 -0.0147 -0.1988
 4621TIP3   OH235277   2.195   5.940   1.677  0.5179  0.6827  0.0693
 4621TIP3    H135278   2.167   5.925   1.767 -1.0910  1.6668 -0.2270
 4621TIP3    H235279   2.130   6.000   1.641  0.7289 -0.2351 -1.9775
 4622TIP3   OH235280   4.286   0.769  13.371  0.3196  0.3004 -0.1214
 4622TIP3    H135281   4.347   0.695  13.374  0.3161  0.3164  1.5434
 4622TIP3    H235282   4.299   0.807  13.284  0.1298 -1.7933 -1.1286
 4623TIP3   OH235283   2.017   4.931  12.787 -0.5055 -1.0413  0.2562
 4623TIP3    H135284   1.997   5.002  12.848 -0.7630  1.6019 -2.6330
 4623TIP3    H235285   2.113   4.930  12.783 -0.4718 -1.5206  0.9651
 4624TIP3   OH235286   5.021   3.986   5.077  0.0784 -0.3575  0.5250
 4624TIP3    H135287   4.958   3.995   5.006  1.1064 -0.3117 -0.4126
 4624TIP3    H235288   5.022   3.893   5.097  2.4364 -1.0270 -2.1030
 4625TIP3   OH235289   2.587   6.546  15.913  0.2746 -0.4138  0.1732
 4625TIP3    H135290   2.560   6.454  15.912 -0.7177 -0.1670 -2.2161
 4625TIP3    H235291   2.674   6.545  15.873 -0.9372 -0.0950 -2.6959
 4626TIP3   OH235292   4.508   3.479   4.699 -0.1183 -0.5095  0.3341
 4626TIP3    H135293   4.504   3.574   4.685  0.3949 -0.4697  0.4549
 4626TIP3    H235294   4.572   3.468   4.769 -0.2102 -0.9452  0.3500
 4627TIP3   OH235295   5.673   4.234   4.909 -0.7809  0.2025  0.6052
 4627TIP3    H135296   5.639   4.180   4.838 -1.0307 -0.1947  1.0225
 4627TIP3    H235297   5.766   4.242   4.890 -0.3249 -2.0119  1.5483
 4628TIP3   OH235298   0.567   4.312   4.577  0.1603  0.3388  0.1511
 4628TIP3    H135299   0.589   4.366   4.652  0.0358 -0.0133  0.4470
 4628TIP3    H235300   0.642   4.254   4.566  0.1080  0.2784  0.1084
 4629TIP3   OH235301   2.666   4.336  10.843  0.0766  0.5962  0.0166
 4629TIP3    H135302   2.700   4.372  10.761 -0.1059 -0.6657 -0.6421
 4629TIP3    H235303   2.645   4.245  10.822 -0.0484  0.2711  1.4523
 4630TIP3   OH235304   2.062   1.571   6.021  0.5610 -0.1465  0.3499
 4630TIP3    H135305   1.991   1.511   5.998  0.7375  0.5147 -2.3222
 4630TIP3    H235306   2.142   1.523   6.001  0.8163 -0.1983  1.4635
 4631TIP3   OH235307   5.806   5.171  13.157  0.1691  0.2680  0.2248
 4631TIP3    H135308   5.716   5.147  13.176  0.1901  0.5822  0.7365
 4631TIP3    H235309   5.812   5.169  13.062 -0.3310  0.0844  0.1966
 4632TIP3   OH235310   1.529   3.294   5.584 -0.4179  0.1102  0.1549
 4632TIP3    H135311   1.459   3.263   5.528 -0.9048 -1.5847  1.6001
 4632TIP3    H235312   1.507   3.260   5.671  2.0694 -0.3129  0.6991
 4633TIP3   OH235313   1.379   4.783   4.535 -0.2157 -0.3620  0.2929
 4633TIP3    H135314   1.425   4.819   4.612  1.0240 -1.6547  0.2059
 4633TIP3    H235315   1.406   4.839   4.463  0.4047 -0.4774  0.4286
 4634TIP3   OH235316   2.787   4.325   5.076 -0.4064  0.1974 -0.4882
 4634TIP3    H135317   2.874   4.303   5.111 -0.3273  1.2576 -0.0029
 4634TIP3    H235318   2.728   4.314   5.150 -0.3583  1.6162 -0.2096
 4635TIP3   OH235319   6.435   3.548   4.056  0.3878  0.1293  0.7477
 4635TIP3    H135320   6.399   3.540   4.144 -0.4779  0.5675  0.4416
 4635TIP3    H235321   6.527   3.573   4.070  0.4488 -0.5056  1.5233
 4636TIP3   OH235322   6.418   6.382  15.360 -0.1804  0.2291  0.3076
 4636TIP3    H135323   6.467   6.424  15.430  1.5427 -1.1398 -0.0137
 4636TIP3    H235324   6.414   6.448  15.290  0.1726  0.7696  0.7941
 4637TIP3   OH235325   1.497   1.736   0.755 -0.0296 -0.1181 -0.3887
 4637TIP3    H135326   1.545   1.684   0.820  0.1358  0.4599 -0.0436
 4637TIP3    H235327   1.536   1.823   0.760 -2.6927  1.1190  1.6954
 4638TIP3   OH235328   0.227   3.054  13.109 -0.3573 -0.2114  0.1510
 4638TIP3    H135329   0.168   2.979  13.122 -1.5144  0.3943 -1.3694
 4638TIP3    H235330   0.311   3.024  13.145 -1.6693 -0.8804  3.0208
 4639TIP3   OH235331   3.237   4.455   5.819  0.0665  0.1361 -0.5522
 4639TIP3    H135332   3.300   4.438   5.889 -1.1536  0.8813  0.8051
 4639TIP3    H235333   3.202   4.369   5.796  0.3707 -0.1059 -0.1212
 4640TIP3   OH235334   6.338   4.508  12.272  0.3173  0.3940  0.5146
 4640TIP3    H135335   6.273   4.442  12.295  3.0236 -2.1704  1.4645
 4640TIP3    H235336   6.361   4.549  12.356  0.4124  0.8036  0.2901
 4641TIP3   OH235337   5.969   4.770   1.197 -0.1910  0.0641 -0.0025
 4641TIP3    H135338   5.883   4.810   1.210 -0.5780 -0.9376  0.5946
 4641TIP3    H235339   6.000   4.807   1.114 -0.7679  1.1717  0.2564
 4642TIP3   OH235340   3.894   4.437   4.282  0.4964 -0.1193  0.7380
 4642TIP3    H135341   3.938   4.507   4.331 -2.9573  1.0869  2.4446
 4642TIP3    H235342   3.838   4.484   4.219 -0.1341 -1.4359  0.2803
 4643TIP3   OH235343   0.120   6.798   0.803  0.0695 -0.1189  0.1075
 4643TIP3    H135344   0.182   6.871   0.810 -1.2235  1.0782 -0.3585
 4643TIP3    H235345   0.130   6.766   0.714  0.6138 -0.4966  0.3008
 4644TIP3   OH235346   1.530   0.819   2.771  0.1677 -0.3148  0.0404
 4644TIP3    H135347   1.547   0.860   2.856  0.7220 -1.2699  0.4088
 4644TIP3    H235348   1.563   0.730   2.781 -1.1277 -0.8955 -0.6915
 4645TIP3   OH235349   4.770   0.194  15.461 -0.6705 -0.0224  0.3233
 4645TIP3    H135350   4.851   0.245  15.462 -0.3618 -0.5162  0.5244
 4645TIP3    H235351   4.798   0.103  15.470 -1.2019 -0.2696 -0.4345
 4646TIP3   OH235352   0.074   3.843  14.003 -0.1702 -0.1518  0.1064
 4646TIP3    H135353   0.028   3.913  14.049 -2.6250 -0.2198 -1.9983
 4646TIP3    H235354   0.115   3.792  14.072 -1.6389  1.0897  2.0110
 4647TIP3   OH235355   5.399   4.453  15.308 -0.3518 -0.2715 -0.1204
 4647TIP3    H135356   5.454   4.440  15.385 -0.7309 -1.2894 -0.0130
 4647TIP3    H235357   5.451   4.419  15.235 -1.8008 -3.8634  0.3044
 4648TIP3   OH235358   0.589   6.076   5.504 -0.2911  0.0387  0.3555
 4648TIP3    H135359   0.654   6.146   5.496 -0.4478  0.1275 -0.1493
 4648TIP3    H235360   0.641   5.995   5.500 -0.0258  0.1114  1.6458
 4649TIP3   OH235361   2.214   3.878   6.128  0.1201 -0.1200  0.0274
 4649TIP3    H135362   2.133   3.927   6.138  0.3869  0.4775 -0.7004
 4649TIP3    H235363   2.278   3.927   6.180  1.1548  2.1573 -3.1350
 4650TIP3   OH235364   0.187   0.452  16.158 -0.1628  0.4458 -0.7677
 4650TIP3    H135365   0.145   0.404  16.229  1.1227  0.4415  0.0124
 4650TIP3    H235366   0.118   0.462  16.092 -1.1445 -0.2716  0.1174
 4651TIP3   OH235367   3.022   0.615   1.870 -0.0423  0.6080  0.4489
 4651TIP3    H135368   2.967   0.584   1.941  0.6437 -0.8777  0.3774
 4651TIP3    H235369   2.964   0.616   1.793  0.1378 -1.6589  0.2116
 4652TIP3   OH235370   0.643   0.907   2.571  0.6836  0.1913 -0.1551
 4652TIP3    H135371   0.570   0.854   2.538 -1.2289  2.1761  0.5687
 4652TIP3    H235372   0.672   0.861   2.650 -0.0013 -0.5136 -0.3002
 4653TIP3   OH235373   3.877   1.706  11.462  0.2802  0.4003 -0.1934
 4653TIP3    H135374   3.965   1.724  11.496 -0.4758  2.3753  0.8974
 4653TIP3    H235375   3.822   1.696  11.540 -0.2441 -2.5084 -0.8231
 4654TIP3   OH235376   0.420   3.697   1.449 -0.0622  0.3691 -0.1145
 4654TIP3    H135377   0.392   3.700   1.358  0.3631  2.2631 -0.2254
 4654TIP3    H235378   0.386   3.614   1.482 -2.3674  0.7338 -1.3237
 4655TIP3   OH235379   1.404   1.190   0.499 -0.2966  0.0671  0.5973
 4655TIP3    H135380   1.342   1.118   0.507  0.1779 -0.3478  0.5619
 4655TIP3    H235381   1.355   1.267   0.526 -1.4160  0.0450 -1.2380
 4656TIP3   OH235382   2.153   2.963  11.710 -0.0875  0.4343 -0.6988
 4656TIP3    H135383   2.187   2.953  11.621  0.9008 -0.4683 -0.2478
 4656TIP3    H235384   2.066   3.000  11.699 -0.1951 -0.1794 -2.0681
 4657TIP3   OH235385   5.479   1.742  15.906  0.0106 -0.8762  0.4175
 4657TIP3    H135386   5.396   1.694  15.905 -1.4062  1.4073  1.3782
 4657TIP3    H235387   5.490   1.773  15.816  0.4230 -2.1063  0.0294
 4658TIP3   OH235388   5.420   1.282  13.827  0.3606 -0.0044  0.3692
 4658TIP3    H135389   5.451   1.244  13.745  2.7310  1.1442  0.6415
 4658TIP3    H235390   5.408   1.207  13.885 -0.9732 -0.7993 -0.8576
 4659TIP3   OH235391   1.638   6.407  16.595 -0.1160  0.2667 -0.5311
 4659TIP3    H135392   1.653   6.502  16.595 -1.9280  0.6032 -0.7069
 4659TIP3    H235393   1.671   6.377  16.510  1.8839  0.4401  0.1342
 4660TIP3   OH235394   3.748   3.563  16.787  0.5383  0.1455  0.3664
 4660TIP3    H135395   3.681   3.497  16.770  0.7610  0.2208 -0.9207
 4660TIP3    H235396   3.819   3.514  16.829  0.3213 -0.2500  0.2778
 4661TIP3   OH235397   6.643   4.233   3.304  0.5330 -0.2873  0.7660
 4661TIP3    H135398   6.697   4.293   3.253  1.7586  0.6685  3.0501
 4661TIP3    H235399   6.554   4.245   3.270  1.5784 -1.8731 -3.0880
 4662TIP3   OH235400   1.507   4.479   3.263 -0.2840 -0.1431  0.2081
 4662TIP3    H135401   1.569   4.533   3.311 -1.5471 -0.1143  1.8896
 4662TIP3    H235402   1.440   4.455   3.328 -1.4265 -1.1094 -1.2544
 4663TIP3   OH235403   5.087   5.041  10.994  0.0076 -0.3894  0.2095
 4663TIP3    H135404   5.063   5.039  10.901 -1.0317  0.5203  0.4380
 4663TIP3    H235405   5.119   5.130  11.008  0.1867 -0.5353  0.7210
 4664TIP3   OH235406   3.920   0.379  11.250  0.0659 -0.1086 -0.0538
 4664TIP3    H135407   3.974   0.458  11.258 -1.1159  0.5622  1.7646
 4664TIP3    H235408   3.855   0.387  11.319 -1.3993 -1.6744 -1.1760
 4665TIP3   OH235409   6.667   3.751   4.441  0.1003 -0.1184 -0.5660
 4665TIP3    H135410   6.651   3.716   4.529 -0.9326  0.3436 -0.5520
 4665TIP3    H235411   6.691   3.675   4.388  0.8774 -0.3801  0.1481
 4666TIP3   OH235412   5.593   3.886   3.249  0.5802 -0.0269  0.0799
 4666TIP3    H135413   5.618   3.961   3.304  1.5608 -0.6610  0.5170
 4666TIP3    H235414   5.672   3.833   3.243 -0.0541 -0.9463 -0.3660
 4667TIP3   OH235415   2.750   0.938   1.212  0.4247 -0.2543 -0.4465
 4667TIP3    H135416   2.765   1.018   1.162 -2.7665 -0.2953 -1.7520
 4667TIP3    H235417   2.727   0.969   1.300  2.5103  0.0170  0.0425
 4668TIP3   OH235418   4.719   3.608   1.529 -0.7481 -0.7513 -0.7350
 4668TIP3    H135419   4.695   3.516   1.541 -1.3961 -0.4355  0.5632
 4668TIP3    H235420   4.707   3.648   1.615 -0.9786  0.6676 -1.3872
 4669TIP3   OH235421   5.979   5.539  11.450  0.0256 -0.7449 -0.6717
 4669TIP3    H135422   5.924   5.557  11.526 -0.0996 -0.4917 -0.8216
 4669TIP3    H235423   6.025   5.458  11.473 -0.8760 -1.3002 -0.8133
 4670TIP3   OH235424   5.905   5.587   4.914  0.6051  0.8633  0.2645
 4670TIP3    H135425   5.820   5.546   4.929 -0.4339  2.9900  0.5901
 4670TIP3    H235426   5.955   5.569   4.994  0.6149 -0.6514 -0.0463
 4671TIP3   OH235427   6.182   1.720   4.145  0.6046  0.1475  0.5363
 4671TIP3    H135428   6.141   1.792   4.097 -1.5044 -0.9963  0.5423
 4671TIP3    H235429   6.200   1.756   4.232 -0.4642  0.6673  0.5542
 4672TIP3   OH235430   1.463   0.007  15.085  0.6487 -0.3477 -0.2663
 4672TIP3    H135431   1.549   0.008  15.128  0.1406 -0.2845  0.7861
 4672TIP3    H235432   1.403  -0.023  15.153  0.0062 -1.5738 -1.3328
 4673TIP3   OH235433   0.798   6.130   1.686  0.4940 -0.2084 -0.2021
 4673TIP3    H135434   0.866   6.108   1.749 -0.4052 -0.8826  0.5556
 4673TIP3    H235435   0.723   6.156   1.739  0.2109  0.7043 -1.0265
 4674TIP3   OH235436   0.645   3.636  13.949 -0.4868 -0.9997 -0.0016
 4674TIP3    H135437   0.708   3.604  14.013 -0.5756 -1.5165 -0.1682
 4674TIP3    H235438   0.562   3.638  13.996 -1.0468 -3.6994 -0.7328
 4675TIP3   OH235439   2.429   0.626   1.681  0.3801  0.2365  0.0198
 4675TIP3    H135440   2.498   0.673   1.634 -0.3240  3.5974  2.0541
 4675TIP3    H235441   2.362   0.611   1.615  1.7950 -0.5378 -1.3263
 4676TIP3   OH235442   5.175   1.768  16.449  0.3367 -0.1457  0.2698
 4676TIP3    H135443   5.251   1.738  16.499 -0.5452  0.7917  2.2929
 4676TIP3    H235444   5.109   1.788  16.515 -0.4650  2.4702 -1.1516
 4677TIP3   OH235445   0.713   3.553   2.329 -0.4477 -0.1345  0.1445
 4677TIP3    H135446   0.712   3.647   2.314  1.4962  0.1037  1.1044
 4677TIP3    H235447   0.665   3.541   2.411  1.8797  0.4828  1.7103
 4678TIP3   OH235448   0.588   6.033  12.151  0.6898 -0.0361 -0.0762
 4678TIP3    H135449   0.612   5.959  12.095  1.4916 -0.2353  0.5023
 4678TIP3    H235450   0.667   6.049  12.204 -0.5307 -0.9358  2.1622
 4679TIP3   OH235451   6.079   5.659   5.112 -0.0730 -0.1841  0.2326
 4679TIP3    H135452   6.172   5.639   5.104 -0.1266 -0.9518  1.2872
 4679TIP3    H235453   6.050   5.607   5.188 -1.1522  0.7386  0.4745
 4680TIP3   OH235454   3.062   6.407  15.438 -0.0153  0.0354 -0.1948
 4680TIP3    H135455   3.022   6.321  15.424 -0.8181  0.5313 -1.0511
 4680TIP3    H235456   3.121   6.419  15.363 -0.5386  0.5797 -0.5277
 4681TIP3   OH235457   6.694   2.545   3.759 -0.3915  0.3889  0.0010
 4681TIP3    H135458   6.671   2.467   3.708  1.6154 -0.4541  0.2775
 4681TIP3    H235459   6.761   2.589   3.706  0.7030  0.2505  1.2283
 4682TIP3   OH235460   5.425   1.409   2.733  0.1981  0.0907 -0.2864
 4682TIP3    H135461   5.432   1.441   2.823  1.1012  1.2168 -0.7329
 4682TIP3    H235462   5.374   1.477   2.688 -0.6575 -0.6931 -0.5404
 4683TIP3   OH235463   1.360   3.069   1.543  0.0759 -0.2347 -0.1214
 4683TIP3    H135464   1.454   3.085   1.533  0.3886 -0.7585  1.7058
 4683TIP3    H235465   1.346   3.065   1.637 -1.5473 -1.5803 -0.3846
 4684TIP3   OH235466   1.003   6.662  16.872 -0.6077 -0.3423 -0.5416
 4684TIP3    H135467   0.912   6.677  16.899 -1.5257 -2.6294 -2.0218
 4684TIP3    H235468   0.999   6.658  16.776  1.0735 -0.4955 -0.6336
 4685TIP3   OH235469   5.286   5.150   5.378 -1.0190 -0.3152 -0.0165
 4685TIP3    H135470   5.352   5.113   5.437  1.6095  0.1985 -2.4219
 4685TIP3    H235471   5.254   5.227   5.425  2.3079  1.1365  0.1657
 4686TIP3   OH235472   2.876   0.632   2.130 -0.5489 -0.7807  0.0953
 4686TIP3    H135473   2.925   0.561   2.172 -0.8844 -0.5170  0.9462
 4686TIP3    H235474   2.874   0.702   2.195  0.2426  0.2325 -0.9324
 4687TIP3   OH235475   5.945   0.827  16.599  0.7510 -0.1079  0.4083
 4687TIP3    H135476   5.969   0.786  16.516  1.7181 -1.3980  1.2671
 4687TIP3    H235477   6.019   0.885  16.619  1.3504 -1.0910  1.1541
 4688TIP3   OH235478   5.878   5.307  15.336 -0.0189  0.1692  0.1282
 4688TIP3    H135479   5.864   5.348  15.251  0.1936  0.3255  0.1664
 4688TIP3    H235480   5.796   5.321  15.383 -0.7648 -1.3940 -0.6484
 4689TIP3   OH235481   6.791   4.955   2.255 -0.3092  0.6951 -0.2230
 4689TIP3    H135482   6.809   5.011   2.331  0.7285 -1.3540  1.1279
 4689TIP3    H235483   6.775   4.869   2.293  2.5962 -0.9722 -2.4142
 4690TIP3   OH235484   0.269   6.655   1.131 -0.3436  0.2678  0.1774
 4690TIP3    H135485   0.237   6.731   1.180  0.8849  0.3617  0.8718
 4690TIP3    H235486   0.261   6.582   1.192 -0.4487  0.0557 -0.0903
 4691TIP3   OH235487   2.791   5.551   1.075 -0.3191 -0.1126 -0.6947
 4691TIP3    H135488   2.801   5.543   0.980 -0.6337 -0.7501 -0.6775
 4691TIP3    H235489   2.824   5.639   1.095  0.9619 -0.4523 -1.2153
 4692TIP3   OH235490   2.145   2.146  13.609 -0.5134  0.3264 -0.2095
 4692TIP3    H135491   2.053   2.130  13.628 -0.0712 -0.6583  1.3242
 4692TIP3    H235492   2.177   2.197  13.683  0.9206 -2.2903  1.1334
 4693TIP3   OH235493   4.015   5.750  13.608 -0.0435 -0.1625  0.0458
 4693TIP3    H135494   3.943   5.707  13.563  1.7830 -1.6068 -1.6856
 4693TIP3    H235495   4.051   5.811  13.544  1.0652 -0.4319  0.3879
 4694TIP3   OH235496   6.594   5.274  14.249 -0.2901  0.2610  0.3588
 4694TIP3    H135497   6.636   5.194  14.281  0.3149 -0.1982 -1.4445
 4694TIP3    H235498   6.520   5.242  14.196  0.9595  0.7644 -1.8074
 4695TIP3   OH235499   0.382   4.342   0.345  0.2418  0.5124  0.1291
 4695TIP3    H135500   0.407   4.255   0.315  1.4725  0.5700  0.9257
 4695TIP3    H235501   0.365   4.391   0.264  0.3908 -0.2166 -0.3565
 4696TIP3   OH235502   6.599   2.691   5.317 -0.2164  0.0291  0.3544
 4696TIP3    H135503   6.662   2.762   5.306  0.4122 -0.4903  0.5719
 4696TIP3    H235504   6.582   2.659   5.228  1.4318 -1.2042  0.4482
 4697TIP3   OH235505   3.521   1.708   5.523 -0.2236  0.1422 -0.1364
 4697TIP3    H135506   3.615   1.702   5.502 -0.7133 -2.2123 -2.0343
 4697TIP3    H235507   3.505   1.802   5.533  2.1017  0.6858 -0.8666
 4698TIP3   OH235508   5.060   0.688  14.490  0.8079  0.3351  0.0745
 4698TIP3    H135509   5.107   0.719  14.568 -0.8515  1.2174  0.7682
 4698TIP3    H235510   5.045   0.767  14.438  0.3010  0.0370 -0.2395
 4699TIP3   OH235511   2.475   0.707   5.665  0.0416 -0.1932  0.1016
 4699TIP3    H135512   2.388   0.673   5.639 -0.3712  1.1641 -0.3622
 4699TIP3    H235513   2.461   0.745   5.751  0.1489  0.1333 -0.0250
 4700TIP3   OH235514   6.430   6.249   5.877  0.0530  0.2457 -0.2934
 4700TIP3    H135515   6.356   6.210   5.925 -0.4449 -1.0786 -2.0159
 4700TIP3    H235516   6.506   6.200   5.907 -0.1784 -0.2360 -0.4826
 4701TIP3   OH235517   6.288   0.156  16.885  0.4835 -0.1566  0.0437
 4701TIP3    H135518   6.240   0.076  16.906  1.3442 -0.5601  0.5517
 4701TIP3    H235519   6.323   0.142  16.797 -0.7878  0.3761 -0.5608
 4702TIP3   OH235520   6.060   0.162  11.698 -0.1737  0.3902 -0.4069
 4702TIP3    H135521   6.150   0.194  11.700 -1.0131  3.0367 -1.1859
 4702TIP3    H235522   6.060   0.095  11.629  0.9037  1.4969 -1.5507
 4703TIP3   OH235523   2.876   3.390   5.958  0.1737 -0.6376  0.0812
 4703TIP3    H135524   2.964   3.429   5.956 -0.4461  0.8074 -0.5053
 4703TIP3    H235525   2.870   3.351   6.045  0.5793  1.2917  1.0349
 4704TIP3   OH235526   6.555   1.173  14.479  0.4884 -0.7276  0.5956
 4704TIP3    H135527   6.617   1.102  14.465  0.3794 -0.7324  0.1367
 4704TIP3    H235528   6.610   1.249  14.499  0.7102 -0.4569 -0.9435
 4705TIP3   OH235529   1.529   4.659  10.643  0.4092  0.6708  0.6403
 4705TIP3    H135530   1.553   4.750  10.662 -0.0426  1.1104 -0.7477
 4705TIP3    H235531   1.439   4.651  10.672  0.1214  0.9758 -0.1446
 4706TIP3   OH235532   1.415   1.715   1.160 -0.0395  0.0103 -0.7639
 4706TIP3    H135533   1.434   1.657   1.233  1.0652 -0.6505 -1.5501
 4706TIP3    H235534   1.406   1.802   1.199 -1.2599 -0.6000  0.3650
 4707TIP3   OH235535   0.683   0.982  13.452  0.0247  0.2918 -0.1424
 4707TIP3    H135536   0.759   1.027  13.488  1.1583 -1.1127 -0.6929
 4707TIP3    H235537   0.634   0.952  13.529  1.3160 -0.8794  0.2526
 4708TIP3   OH235538   0.577   0.602  14.094  0.1206  0.2239  0.2565
 4708TIP3    H135539   0.631   0.652  14.033  1.3024  1.1466  1.9546
 4708TIP3    H235540   0.499   0.578  14.044  1.1618  0.6409 -1.6776
 4709TIP3   OH235541   2.265   2.633   1.129  0.5698  0.2565  0.1976
 4709TIP3    H135542   2.212   2.559   1.098  1.4738 -0.0362 -0.7202
 4709TIP3    H235543   2.351   2.594   1.146  0.5475  0.7561  1.4776
 4710TIP3   OH235544   2.864   5.092  11.916  0.0952 -0.0052  0.4685
 4710TIP3    H135545   2.921   5.156  11.874  2.4526 -2.8261 -1.0146
 4710TIP3    H235546   2.814   5.053  11.844 -0.0353 -1.0205  1.0889
 4711TIP3   OH235547   1.351   2.923  12.376  0.1604 -0.3494  0.6677
 4711TIP3    H135548   1.421   2.976  12.415  1.7366 -1.5848 -0.3211
 4711TIP3    H235549   1.355   2.839  12.423 -1.7366  0.0576  1.6493
 4712TIP3   OH235550   3.594   6.564  13.386 -0.8216 -0.5587  0.1113
 4712TIP3    H135551   3.669   6.594  13.334 -1.0030  0.4844  0.4242
 4712TIP3    H235552   3.630   6.496  13.442 -0.1118 -0.1038  0.2231
 4713TIP3   OH235553   1.364   1.054   5.709  0.4629 -0.0498 -0.3152
 4713TIP3    H135554   1.381   1.058   5.804  1.6665 -0.6128 -0.4868
 4713TIP3    H235555   1.353   0.960   5.692 -0.5556  0.1160 -0.6162
 4714TIP3   OH235556   2.473   5.788  14.047 -0.6365  0.2902  0.0496
 4714TIP3    H135557   2.463   5.694  14.039  3.0104 -0.2156 -0.4276
 4714TIP3    H235558   2.418   5.825  13.977 -0.4173 -1.6462 -1.2121
 4715TIP3   OH235559   1.505   3.777   0.267  0.5527  0.1966 -0.2653
 4715TIP3    H135560   1.565   3.836   0.315 -0.5986 -0.3247  1.9725
 4715TIP3    H235561   1.563   3.716   0.223  1.7505  2.1236 -1.5303
 4716TIP3   OH235562   4.177   3.036   5.455  0.4733 -0.6157  0.2556
 4716TIP3    H135563   4.131   3.080   5.526 -0.4541 -1.5595  0.2658
 4716TIP3    H235564   4.229   3.105   5.414 -0.8100  0.4630  0.3671
 4717TIP3   OH235565   5.438   2.372   3.451 -0.1004 -0.3384 -0.1947
 4717TIP3    H135566   5.346   2.359   3.472 -0.2852 -0.1538 -0.8889
 4717TIP3    H235567   5.484   2.352   3.533 -0.8908  1.5833  0.7761
 4718TIP3   OH235568   4.557   3.207   2.298  0.4521 -0.0410  0.0691
 4718TIP3    H135569   4.595   3.140   2.242 -0.4461  1.5476 -2.6216
 4718TIP3    H235570   4.484   3.164   2.342  0.0790 -0.9284 -1.3741
 4719TIP3   OH235571   3.723   4.114   2.650 -0.2002  0.2047 -0.6779
 4719TIP3    H135572   3.681   4.113   2.736  1.0979 -1.4862 -0.0050
 4719TIP3    H235573   3.651   4.123   2.588 -1.1256  2.0718  0.5591
 4720TIP3   OH235574   5.665   0.215  11.177  0.9533 -0.0893 -0.2774
 4720TIP3    H135575   5.695   0.124  11.176 -0.8980 -0.7413 -2.3058
 4720TIP3    H235576   5.574   0.210  11.207  0.6234  0.9973 -1.0524
 4721TIP3   OH235577   6.702   3.868   2.449 -0.1738  0.0602 -0.3221
 4721TIP3    H135578   6.775   3.912   2.404  1.0271 -0.7167  0.7894
 4721TIP3    H235579   6.717   3.775   2.433  0.0029 -0.2051  1.2237
 4722TIP3   OH235580   5.218   2.994  16.707  0.2206  0.3365 -0.0616
 4722TIP3    H135581   5.206   2.899  16.698 -0.0115  0.4390 -0.8427
 4722TIP3    H235582   5.184   3.013  16.795  1.1546 -0.4379  0.4848
 4723TIP3   OH235583   2.257   3.908  13.020  0.2411  0.5516  0.8747
 4723TIP3    H135584   2.232   3.974  12.956  3.0370  1.0417  0.1621
 4723TIP3    H235585   2.272   3.829  12.968 -2.6379 -0.6757  1.6672
 4724TIP3   OH235586   0.218   2.709   5.144 -0.1900  0.7649 -0.6256
 4724TIP3    H135587   0.247   2.767   5.073 -1.9233  2.4307 -0.0412
 4724TIP3    H235588   0.132   2.742   5.169  0.0843 -0.1842  1.8401
 4725TIP3   OH235589   1.258   5.541  13.650  0.0382 -0.1074 -0.2940
 4725TIP3    H135590   1.247   5.549  13.744 -0.5118 -3.0983  0.0012
 4725TIP3    H235591   1.170   5.552  13.614 -0.4232 -2.3386 -0.0358
 4726TIP3   OH235592   5.311   5.443   1.265  0.0801  0.4391  0.1757
 4726TIP3    H135593   5.402   5.417   1.284 -0.4989 -0.9594  1.1773
 4726TIP3    H235594   5.308   5.448   1.169  0.7270 -1.5814 -0.0109
 4727TIP3   OH235595   0.963   6.034   5.243 -0.0772  0.0195 -0.4451
 4727TIP3    H135596   0.952   5.974   5.168 -0.3146 -0.9970  0.3778
 4727TIP3    H235597   1.054   6.021   5.270 -0.5471 -1.1593  0.6876
 4728TIP3   OH235598   3.044   4.402   3.600 -0.0608  0.1147  0.3846
 4728TIP3    H135599   2.956   4.384   3.568 -0.0574 -2.8694  1.6703
 4728TIP3    H235600   3.037   4.391   3.695  1.6266  0.0619  0.5283
 4729TIP3   OH235601   2.328   1.238   5.073 -0.0437 -0.6191 -0.2781
 4729TIP3    H135602   2.324   1.144   5.052 -0.0281 -0.1911 -2.3974
 4729TIP3    H235603   2.412   1.249   5.118  0.6345 -1.4067 -1.3135
 4730TIP3   OH235604   3.349   4.870  14.556 -0.2719 -0.0493  0.2260
 4730TIP3    H135605   3.418   4.934  14.538  0.3722 -0.0267  2.4569
 4730TIP3    H235606   3.298   4.909  14.627 -1.1489 -1.0938  0.1998
 4731TIP3   OH235607   4.618   0.610   2.300  0.4359 -0.3114  0.1031
 4731TIP3    H135608   4.587   0.594   2.389  1.2800  0.5830  0.5745
 4731TIP3    H235609   4.674   0.687   2.307 -2.7744  2.4490 -1.9359
 4732TIP3   OH235610   4.911   3.357   1.589 -0.1364  0.2990  0.8772
 4732TIP3    H135611   4.915   3.270   1.628  0.2450 -0.2770 -0.3943
 4732TIP3    H235612   4.831   3.357   1.537  0.4718  0.2789 -0.0752
 4733TIP3   OH235613   2.416   3.125   5.302 -0.5405  0.2437  0.2512
 4733TIP3    H135614   2.383   3.212   5.323 -1.0268 -0.2141  1.4397
 4733TIP3    H235615   2.510   3.137   5.290 -0.5274  0.8499  0.9163
 4734TIP3   OH235616   0.314   0.652  14.387 -0.0022  0.1588  0.2536
 4734TIP3    H135617   0.301   0.569  14.342 -0.9202  0.3084  0.2119
 4734TIP3    H235618   0.367   0.630  14.464  0.0923 -0.3986  0.0287
 4735TIP3   OH235619   0.334   1.855  12.441 -0.1163 -0.2026  0.0409
 4735TIP3    H135620   0.353   1.815  12.356 -1.0222 -0.4991 -0.0400
 4735TIP3    H235621   0.381   1.803  12.505 -0.4988 -0.8083 -0.1614
 4736TIP3   OH235622   0.165   6.525   5.902  0.4603  0.0565 -0.5317
 4736TIP3    H135623   0.254   6.494   5.884  1.0640  0.4778  1.5012
 4736TIP3    H235624   0.114   6.446   5.917  0.9594 -0.1425  0.1738
 4737TIP3   OH235625   3.018   4.915  15.769 -0.1287 -0.1338  0.1255
 4737TIP3    H135626   3.027   5.003  15.806  2.4412  0.6189 -1.9846
 4737TIP3    H235627   2.973   4.929  15.686 -0.7556 -0.9993  0.3108
 4738TIP3   OH235628   3.299   3.163   3.200  0.5543  0.5125 -0.1424
 4738TIP3    H135629   3.337   3.124   3.279  1.4301  1.2437 -0.1894
 4738TIP3    H235630   3.368   3.219   3.164 -0.6241  2.0819 -0.1049
 4739TIP3   OH235631   1.585   5.509  12.291  0.0706 -0.4835 -0.2463
 4739TIP3    H135632   1.528   5.540  12.220 -0.0488  0.8238  0.4008
 4739TIP3    H235633   1.673   5.534  12.263  0.1027 -0.5943 -0.2464
 4740TIP3   OH235634   1.488   0.179  13.242 -0.1184 -0.1980  0.2289
 4740TIP3    H135635   1.400   0.143  13.255  0.1833 -1.6816 -1.5243
 4740TIP3    H235636   1.487   0.215  13.154  1.6629 -2.4500 -0.8384
 4741TIP3   OH235637   5.451   0.528  13.337 -0.2557 -0.0178  0.0840
 4741TIP3    H135638   5.505   0.602  13.310  2.0518 -2.2418 -1.9429
 4741TIP3    H235639   5.390   0.515  13.265 -0.4794 -0.2545  0.3155
 4742TIP3   OH235640   2.365   5.223  12.314 -0.2301  0.2311  0.3307
 4742TIP3    H135641   2.349   5.267  12.231 -0.7433  1.4149  1.0205
 4742TIP3    H235642   2.312   5.144  12.310 -0.5889  0.4931 -0.2993
 4743TIP3   OH235643   5.689   0.950   1.244  0.1060 -0.5312  1.1180
 4743TIP3    H135644   5.765   1.008   1.236 -0.4604 -0.0082 -0.8249
 4743TIP3    H235645   5.657   0.965   1.333  0.1556  1.9460  0.7813
 4744TIP3   OH235646   2.568   3.870  15.507  0.3465 -0.1288 -0.4317
 4744TIP3    H135647   2.483   3.908  15.530  0.9095  0.1426  1.3941
 4744TIP3    H235648   2.632   3.925  15.552  1.2342 -2.7186  1.7675
 4745TIP3   OH235649   1.016   4.225   4.838  0.4560  0.2660  0.4126
 4745TIP3    H135650   1.082   4.217   4.769  1.3707 -0.8625  1.3832
 4745TIP3    H235651   1.005   4.320   4.849 -1.5061  0.5732 -2.8774
 4746TIP3   OH235652   3.038   1.891  12.524  0.1341  0.2128 -0.2533
 4746TIP3    H135653   3.010   1.833  12.595  0.9667  0.0592 -0.0440
 4746TIP3    H235654   2.961   1.897  12.468 -0.1133 -0.7452 -0.0479
 4747TIP3   OH235655   4.675   0.889  12.365 -0.1298 -0.1563 -0.0895
 4747TIP3    H135656   4.753   0.902  12.311  1.2734  0.7549  2.0163
 4747TIP3    H235657   4.639   0.977  12.379 -0.0920 -0.2829  0.9278
 4748TIP3   OH235658   4.503   6.808   5.379  0.1750 -0.4129  0.3920
 4748TIP3    H135659   4.557   6.768   5.312 -0.2377  0.0679 -0.2357
 4748TIP3    H235660   4.439   6.860   5.331 -0.7092 -0.7879  1.1231
 4749TIP3   OH235661   2.716   4.722   1.131  0.2401  0.0116  0.0466
 4749TIP3    H135662   2.729   4.805   1.177 -0.9479  1.3893 -1.9238
 4749TIP3    H235663   2.757   4.656   1.187  1.4012  1.9439  1.5897
 4750TIP3   OH235664   6.488   5.253  14.836 -0.2570  0.1459 -0.7827
 4750TIP3    H135665   6.496   5.233  14.929 -1.1897  0.5507 -0.5998
 4750TIP3    H235666   6.394   5.245  14.818  0.1989 -2.9203 -2.3995
 4751TIP3   OH235667   2.606   0.117  10.668  0.0951  0.3725  0.0063
 4751TIP3    H135668   2.574   0.070  10.745 -1.1021  1.0529 -0.0522
 4751TIP3    H235669   2.677   0.062  10.634 -1.1416 -1.3171  0.0207
 4752TIP3   OH235670   5.218   5.997  13.670 -0.2762 -0.6305  0.3707
 4752TIP3    H135671   5.135   5.993  13.719 -1.0231 -0.6260 -0.8477
 4752TIP3    H235672   5.246   5.906  13.663 -0.9034 -0.7707 -0.3922
 4753TIP3   OH235673   1.950   0.446  16.773  0.4366  0.0191  0.1852
 4753TIP3    H135674   1.950   0.375  16.709  1.5873 -0.4499  0.6994
 4753TIP3    H235675   1.984   0.521  16.725 -3.0475  1.0051 -1.1127
 4754TIP3   OH235676   1.725   2.131   5.303  0.7412 -0.9833  0.3815
 4754TIP3    H135677   1.802   2.089   5.265 -0.2416 -2.0790 -0.4656
 4754TIP3    H235678   1.756   2.169   5.385  1.9293 -2.4841  0.6740
 4755TIP3   OH235679   3.928   3.346  12.447 -0.4740  0.1271 -0.5028
 4755TIP3    H135680   3.878   3.281  12.398 -0.5110  0.4429 -0.8839
 4755TIP3    H235681   3.870   3.422  12.453 -0.5810 -0.0025  0.2735
 4756TIP3   OH235682   2.452   6.061  17.010  0.2836 -0.7693 -0.0849
 4756TIP3    H135683   2.523   6.104  17.056  0.4249 -0.9921 -0.0960
 4756TIP3    H235684   2.438   5.979  17.058 -1.0716  0.0100  0.9396
 4757TIP3   OH235685   2.557   0.525   1.924 -0.8044  0.4409  0.2367
 4757TIP3    H135686   2.518   0.533   1.837  0.8450  0.8414 -0.5017
 4757TIP3    H235687   2.597   0.611   1.940  0.6937 -0.2789  0.4734
 4758TIP3   OH235688   5.668   4.024   2.172  0.1813  0.0422  0.6670
 4758TIP3    H135689   5.681   4.056   2.262 -2.2407 -1.2114  1.5614
 4758TIP3    H235690   5.640   3.933   2.183  0.0380 -0.1909 -1.3763
 4759TIP3   OH235691   2.473   4.182   2.984  0.0558  0.0375 -0.7799
 4759TIP3    H135692   2.541   4.247   3.000  0.6392 -1.0201  1.5099
 4759TIP3    H235693   2.392   4.224   3.013  0.2086  0.2597 -0.6693
 4760TIP3   OH235694   6.256   2.554   2.488  0.4090  0.2207  0.1270
 4760TIP3    H135695   6.320   2.491   2.520 -1.6331 -2.3342 -0.5254
 4760TIP3    H235696   6.202   2.575   2.564 -1.9729 -2.7864 -0.5679
 4761TIP3   OH235697   2.569   2.092  12.573  0.1609  0.2445 -0.7007
 4761TIP3    H135698   2.629   2.026  12.609  0.5306 -0.6205 -2.7367
 4761TIP3    H235699   2.577   2.167  12.632  1.0306 -0.9059  0.7205
 4762TIP3   OH235700   4.605   2.615   5.120 -0.5652 -0.1054  0.1726
 4762TIP3    H135701   4.616   2.544   5.183 -2.2824 -1.6118 -1.0808
 4762TIP3    H235702   4.513   2.610   5.095 -0.3541  1.5852 -1.1369
 4763TIP3   OH235703   3.033   5.840  14.715 -0.3990  0.3311 -0.1534
 4763TIP3    H135704   3.023   5.915  14.656  1.4943  1.2533  0.5956
 4763TIP3    H235705   3.021   5.877  14.803  0.6025 -0.2083  0.2289
 4764TIP3   OH235706   0.876   0.910   0.033  0.3126 -0.3948 -0.1958
 4764TIP3    H135707   0.936   0.838   0.016  0.8830  0.7082 -3.6249
 4764TIP3    H235708   0.927   0.989   0.015 -0.8936  0.8251  1.4163
 4765TIP3   OH235709   1.702   3.282  12.722 -0.6799 -0.1530  0.2595
 4765TIP3    H135710   1.610   3.261  12.710 -0.6574 -0.0976 -0.0181
 4765TIP3    H235711   1.726   3.331  12.643  0.6333 -3.5843 -1.7185
 4766TIP3   OH235712   2.798   3.794   0.111 -0.1138 -0.3144 -0.0922
 4766TIP3    H135713   2.836   3.861   0.169 -0.2904 -0.5101  0.2539
 4766TIP3    H235714   2.849   3.800   0.030  1.7404 -1.6494  0.8984
 4767TIP3   OH235715   1.884   3.435  14.862 -0.3680 -0.4461 -0.7669
 4767TIP3    H135716   1.907   3.365  14.922 -0.1834 -0.2212 -0.5743
 4767TIP3    H235717   1.863   3.510  14.919 -0.5331 -0.3351 -0.9703
 4768TIP3   OH235718   1.436   1.769  15.055  0.2835 -0.4276  0.2455
 4768TIP3    H135719   1.465   1.860  15.052  0.6920 -0.5618 -1.3738
 4768TIP3    H235720   1.404   1.752  14.966  0.4566 -1.9283  0.4455
 4769TIP3   OH235721   6.410   4.406   1.297 -0.3027 -0.1437  0.0787
 4769TIP3    H135722   6.478   4.356   1.342 -0.1534 -0.5365 -0.5684
 4769TIP3    H235723   6.329   4.361   1.319 -0.2764 -0.0925  0.2826
 4770TIP3   OH235724   0.394   1.290   2.937  0.1689  0.1398  0.5729
 4770TIP3    H135725   0.314   1.251   2.901 -0.9715  0.2189  2.8373
 4770TIP3    H235726   0.426   1.224   2.999  1.8518  0.1398 -0.2699
 4771TIP3   OH235727   2.777   0.309   0.232 -0.2012 -0.3938  0.2597
 4771TIP3    H135728   2.833   0.251   0.181 -1.7922  0.0674 -2.1798
 4771TIP3    H235729   2.759   0.383   0.174 -0.9828  0.8687  2.0262
 4772TIP3   OH235730   5.673   4.465   1.915  0.0702  0.4150  0.3723
 4772TIP3    H135731   5.693   4.526   1.844  1.2812 -1.5454 -1.0593
 4772TIP3    H235732   5.759   4.439   1.949 -0.2366 -2.4516 -0.8223
 4773TIP3   OH235733   2.777   2.633  16.062 -0.1558 -0.4055  0.6892
 4773TIP3    H135734   2.775   2.552  16.011 -0.5020 -0.0499  0.1296
 4773TIP3    H235735   2.695   2.677  16.041  0.5345  0.6419  0.0809
 4774TIP3   OH235736   5.912   2.498  12.591  0.3971 -0.1493  0.3567
 4774TIP3    H135737   5.986   2.507  12.530 -1.5594 -1.3756 -2.3814
 4774TIP3    H235738   5.938   2.425  12.647  1.7148  0.1523  0.1933
 4775TIP3   OH235739   6.629   1.294  13.491 -0.2657 -0.0121 -0.1280
 4775TIP3    H135740   6.659   1.218  13.440 -0.3610  0.8121 -1.4712
 4775TIP3    H235741   6.677   1.368  13.453 -0.5772  0.6786  0.7958
 4776TIP3   OH235742   3.828   3.222   2.839  0.0189 -0.0655  0.2357
 4776TIP3    H135743   3.915   3.256   2.859 -0.1227  0.1150  0.5566
 4776TIP3    H235744   3.780   3.229   2.922 -0.6593  0.9502 -0.2123
 4777TIP3   OH235745   3.672   5.842  13.575  0.1496 -0.0530 -0.1290
 4777TIP3    H135746   3.648   5.782  13.645  1.4083 -0.0225  0.3524
 4777TIP3    H235747   3.648   5.796  13.494  0.0641 -0.7220  0.2736
 4778TIP3   OH235748   3.084   2.668   1.798  0.5779 -0.5856  0.0979
 4778TIP3    H135749   3.166   2.629   1.828  0.4869 -1.7519 -1.1097
 4778TIP3    H235750   3.016   2.609   1.829  0.3079 -0.4457 -0.2178
 4779TIP3   OH235751   6.564   2.114  12.282  0.0091 -0.1169 -0.6370
 4779TIP3    H135752   6.625   2.091  12.352  0.0228  3.6617  0.7881
 4779TIP3    H235753   6.620   2.126  12.205  0.5509 -0.3055 -0.2827
 4780TIP3   OH235754   2.187   5.663  11.953  0.5545  0.5477 -0.6174
 4780TIP3    H135755   2.094   5.685  11.958  1.0148  2.4209  0.3417
 4780TIP3    H235756   2.223   5.724  11.889  1.7921  2.4940  1.7829
 4781TIP3   OH235757   1.085   6.041  11.851  0.2685  0.0580 -0.2281
 4781TIP3    H135758   0.990   6.030  11.843  0.3681 -0.7994 -0.3483
 4781TIP3    H235759   1.096   6.115  11.910 -0.4919 -0.6028  0.7710
 4782TIP3   OH235760   5.284   5.997   0.380 -0.0736 -0.1918 -0.4123
 4782TIP3    H135761   5.250   5.910   0.361 -0.4336 -0.0489 -0.4403
 4782TIP3    H235762   5.299   6.037   0.295 -2.0598  0.5924 -0.4486
 4783TIP3   OH235763   2.327   5.238   1.083 -0.8878  1.1014  0.6784
 4783TIP3    H135764   2.399   5.293   1.053  1.3287 -1.5034  0.7993
 4783TIP3    H235765   2.301   5.188   1.006  0.4110 -0.9731  1.4907
 4784TIP3   OH235766   3.843   6.422  16.750 -0.8359  0.0961  0.9378
 4784TIP3    H135767   3.870   6.371  16.826 -0.8659  0.4013  1.1584
 4784TIP3    H235768   3.919   6.476  16.729 -0.6513 -0.3446  0.4379
 4785TIP3   OH235769   5.067   1.591  12.031  0.3523  0.2456 -0.1112
 4785TIP3    H135770   5.060   1.540  11.950  1.9655 -1.4311  0.7242
 4785TIP3    H235771   4.995   1.559  12.085 -0.5880  1.2050 -0.7543
 4786TIP3   OH235772   2.313   0.164   3.243 -0.2670 -0.6021 -0.2930
 4786TIP3    H135773   2.341   0.100   3.309 -1.7489 -0.6566  0.3141
 4786TIP3    H235774   2.269   0.232   3.294 -0.2883  0.0107 -1.1161
 4787TIP3   OH235775   2.003   6.759  15.448  0.1407 -0.6105  0.7201
 4787TIP3    H135776   2.052   6.787  15.525 -0.1819  0.0286  0.7087
 4787TIP3    H235777   1.967   6.841  15.412  1.1743 -0.7424 -0.7304
 4788TIP3   OH235778   6.675   2.716   2.307 -0.0651  0.0329  0.7001
 4788TIP3    H135779   6.667   2.623   2.284  2.7104 -0.4356  1.2920
 4788TIP3    H235780   6.690   2.760   2.224 -2.0555  0.0969  0.3352
 4789TIP3   OH235781   3.911   5.387   4.321 -0.5430  0.1265  0.3919
 4789TIP3    H135782   3.913   5.482   4.332 -0.7876 -0.0749  2.5354
 4789TIP3    H235783   4.002   5.360   4.332 -0.4714  0.0853 -0.2353
 4790TIP3   OH235784   5.974   4.173  13.804 -0.6269 -0.6629  0.0892
 4790TIP3    H135785   5.998   4.087  13.769  0.7067 -0.2124 -0.1396
 4790TIP3    H235786   6.032   4.186  13.879  0.0975  0.5785 -0.6577
 4791TIP3   OH235787   0.042   1.437  11.142  0.3968 -0.4693  0.4617
 4791TIP3    H135788   0.100   1.425  11.067 -0.8112  0.0167 -0.5759
 4791TIP3    H235789  -0.034   1.383  11.123 -0.7460  1.0851  0.4287
 4792TIP3   OH235790   3.445   1.694   4.627 -0.0774  0.0205  0.2960
 4792TIP3    H135791   3.484   1.682   4.714 -0.1579 -1.2032  0.1849
 4792TIP3    H235792   3.403   1.780   4.630  0.2600  0.1562  1.3329
 4793TIP3   OH235793   6.158   2.599   4.458 -0.4341 -0.0549 -0.4136
 4793TIP3    H135794   6.243   2.617   4.497  0.2493 -0.6689 -1.5842
 4793TIP3    H235795   6.134   2.681   4.414 -1.0937  0.5589  1.0077
 4794TIP3   OH235796   3.333   6.267  13.122  0.0372  0.4208 -0.4028
 4794TIP3    H135797   3.342   6.317  13.041 -0.7926  2.6791  0.7995
 4794TIP3    H235798   3.238   6.255  13.132  0.2099 -1.2796 -0.5469
 4795TIP3   OH235799   3.185   1.582  16.644 -0.1050  0.0061 -0.1814
 4795TIP3    H135800   3.127   1.634  16.589  0.1410  0.7038  0.2003
 4795TIP3    H235801   3.213   1.509  16.588  1.3883  1.5273 -1.5347
 4796TIP3   OH235802   3.795   6.065  13.674 -0.3088  0.2980  0.6151
 4796TIP3    H135803   3.753   5.979  13.662 -0.4234  0.5220 -0.7553
 4796TIP3    H235804   3.883   6.054  13.638 -1.0848  1.3554 -1.7904
 4797TIP3   OH235805   2.439   5.863  12.521 -0.0388 -0.1523 -0.0895
 4797TIP3    H135806   2.394   5.923  12.462  3.3927 -0.4174 -3.3721
 4797TIP3    H235807   2.512   5.914  12.556 -0.0427 -1.0206  1.2842
 4798TIP3   OH235808   3.744   4.463  11.751 -0.4061 -0.3850 -0.0209
 4798TIP3    H135809   3.820   4.521  11.746 -1.3237  0.8642 -0.0076
 4798TIP3    H235810   3.760   4.409  11.828  0.4855 -0.1592 -0.0385
 4799TIP3   OH235811   2.806   0.489  15.548  0.7263  0.0999  0.2010
 4799TIP3    H135812   2.798   0.572  15.502 -0.0528 -0.0659  0.0302
 4799TIP3    H235813   2.725   0.480  15.597  1.3521  0.0627  1.2734
 4800TIP3   OH235814   5.262   2.057   5.864  0.7987  0.3636  0.0743
 4800TIP3    H135815   5.291   2.141   5.828  0.6369  0.7635  0.8675
 4800TIP3    H235816   5.326   1.994   5.831  0.0499  0.5286 -1.8091
 4801TIP3   OH235817   6.401   2.570  15.854 -0.1176 -0.3430  0.4976
 4801TIP3    H135818   6.484   2.530  15.876  0.2494 -0.0522 -0.3233
 4801TIP3    H235819   6.336   2.501  15.868  0.3124 -0.7033  0.7164
 4802TIP3   OH235820   0.164   3.430  16.294 -0.0554  0.4156 -0.6093
 4802TIP3    H135821   0.251   3.403  16.265  0.0837  0.6140 -0.3820
 4802TIP3    H235822   0.119   3.458  16.214 -0.1446 -0.3191 -0.8214
 4803TIP3   OH235823   2.146   5.198  12.612  0.4930  0.2810 -0.1241
 4803TIP3    H135824   2.084   5.133  12.577 -0.4532  0.8224  0.4807
 4803TIP3    H235825   2.129   5.277  12.561  0.1601  0.6404  0.5312
 4804TIP3   OH235826   6.313   0.099   4.575  0.4360  0.2318 -0.3282
 4804TIP3    H135827   6.331   0.131   4.664  1.3670  2.8980 -1.3518
 4804TIP3    H235828   6.326   0.005   4.580  1.8015  0.4555  2.0830
 4805TIP3   OH235829   4.587   4.578  11.175  0.1939 -0.2399  0.0826
 4805TIP3    H135830   4.650   4.582  11.247 -1.4994 -2.2046  1.8093
 4805TIP3    H235831   4.627   4.517  11.113 -0.1237 -1.8706  1.3980
 4806TIP3   OH235832   2.028   6.592  16.028 -0.1449 -0.2734 -0.1149
 4806TIP3    H135833   2.113   6.595  15.985 -0.8507  1.8081 -1.5457
 4806TIP3    H235834   2.007   6.684  16.046 -1.9252 -0.7531  0.5022
 4807TIP3   OH235835   2.021   0.023   5.284  0.1199 -0.2711 -0.6689
 4807TIP3    H135836   2.023   0.114   5.315  2.1278 -0.1922 -0.9083
 4807TIP3    H235837   1.952  -0.018   5.336 -0.9885  1.4156 -0.7028
 4808TIP3   OH235838   0.965   4.377   4.169 -0.2102  0.1243  0.2035
 4808TIP3    H135839   0.908   4.452   4.183  1.0374  1.0101  0.6469
 4808TIP3    H235840   1.041   4.392   4.226  0.5114 -0.9867 -0.4116
 4809TIP3   OH235841   5.068   4.939  13.610  0.5289  0.8926 -0.0521
 4809TIP3    H135842   5.163   4.953  13.616  0.7875 -0.5617 -0.4644
 4809TIP3    H235843   5.049   4.948  13.517  0.8828 -2.1859 -0.5248
 4810TIP3   OH235844   0.974   1.302   5.579  0.4176  0.8072 -0.2952
 4810TIP3    H135845   1.006   1.222   5.621 -0.2707  1.5629  1.8255
 4810TIP3    H235846   1.046   1.331   5.523  0.8009 -1.0857 -0.8485
 4811TIP3   OH235847   1.407   4.340  14.944  0.0973 -0.5211  0.3514
 4811TIP3    H135848   1.347   4.298  15.006 -0.1344  0.1480  0.5928
 4811TIP3    H235849   1.463   4.269  14.913  1.0160 -0.6631  2.2283
 4812TIP3   OH235850   5.179   0.247   0.765 -0.0390  0.0485  0.1738
 4812TIP3    H135851   5.151   0.161   0.733 -2.6502  0.4870  1.1098
 4812TIP3    H235852   5.122   0.265   0.839  1.7133  1.8088  1.1889
 4813TIP3   OH235853   5.119   3.996  17.024  0.7242  0.0667  0.2164
 4813TIP3    H135854   5.063   3.965  17.096 -0.3848  0.8530 -0.2842
 4813TIP3    H235855   5.082   3.955  16.946  0.9310  0.4961 -0.1060
 4814TIP3   OH235856   2.559   0.093  13.024 -0.3441 -0.2785 -0.5642
 4814TIP3    H135857   2.600   0.099  13.110 -0.8761  0.1201 -0.3270
 4814TIP3    H235858   2.472   0.131  13.037 -0.1127  0.6095 -1.4770
 4815TIP3   OH235859   1.873   2.989  13.300  0.2207  0.5097 -0.1301
 4815TIP3    H135860   1.889   3.011  13.392 -0.1115  1.7553 -0.3478
 4815TIP3    H235861   1.927   3.052  13.251 -0.6576  0.7719 -0.7931
 4816TIP3   OH235862   2.434   4.425   1.882  0.2862 -0.0287 -0.0967
 4816TIP3    H135863   2.471   4.468   1.959  1.1365 -0.8910 -0.0105
 4816TIP3    H235864   2.389   4.496   1.835 -2.4455  0.1137  2.4207
 4817TIP3   OH235865   1.679   1.672   2.726  0.0405  0.3901 -0.2543
 4817TIP3    H135866   1.594   1.714   2.740 -1.0730 -1.6179 -0.5747
 4817TIP3    H235867   1.732   1.738   2.681 -1.4831  1.5435 -0.4222
 4818TIP3   OH235868   5.267   1.503  13.846  0.3252  0.0465 -0.0091
 4818TIP3    H135869   5.335   1.436  13.854 -0.4892 -0.6766  1.0924
 4818TIP3    H235870   5.236   1.517  13.935 -2.7904 -1.5760 -0.7262
 4819TIP3   OH235871   0.074   6.687   6.280 -0.4995  0.7043  0.0928
 4819TIP3    H135872   0.081   6.630   6.357 -1.9891 -1.7020 -1.4236
 4819TIP3    H235873   0.154   6.670   6.231 -0.3280  0.9647  0.2771
 4820TIP3   OH235874   3.026   4.050   5.577 -0.0186  0.1011 -0.3183
 4820TIP3    H135875   2.936   4.037   5.607  0.3750 -0.1225  0.7894
 4820TIP3    H235876   3.062   3.962   5.572 -0.1347  0.1142 -1.6832
 4821TIP3   OH235877   4.630   5.144  13.190  0.0688 -0.4734 -0.1274
 4821TIP3    H135878   4.677   5.101  13.262 -0.2624 -1.8699 -0.7116
 4821TIP3    H235879   4.542   5.108  13.194  0.0942 -0.7069 -1.3384
 4822TIP3   OH235880   3.370   1.258  14.723  0.2078  0.0553 -0.0537
 4822TIP3    H135881   3.347   1.306  14.644  0.5985  1.7061  0.8015
 4822TIP3    H235882   3.455   1.218  14.703 -1.3539 -2.7522 -1.7769
 4823TIP3   OH235883   3.721   3.483  15.539  0.5411 -0.8101 -0.7570
 4823TIP3    H135884   3.773   3.553  15.580  1.6043 -0.1617 -2.9974
 4823TIP3    H235885   3.745   3.404  15.587  2.4732 -0.2647 -0.7243
 4824TIP3   OH235886   1.327   3.396  16.743 -0.5298 -0.0385  0.2791
 4824TIP3    H135887   1.243   3.419  16.705 -2.0019 -2.2287  1.9715
 4824TIP3    H235888   1.348   3.468  16.802 -1.0717  0.6189 -0.3127
 4825TIP3   OH235889   2.575   2.093  10.679 -1.0280  0.9806 -0.2882
 4825TIP3    H135890   2.582   2.009  10.633 -2.9496 -0.6858  2.1797
 4825TIP3    H235891   2.492   2.129  10.650 -1.3023  0.8746  0.3396
 4826TIP3   OH235892   2.572   2.399  15.087  0.0775 -0.2901  0.3386
 4826TIP3    H135893   2.583   2.482  15.041 -0.7026  0.4398  1.4342
 4826TIP3    H235894   2.531   2.422  15.170  1.0768 -1.6215  1.2487
 4827TIP3   OH235895   0.310   2.733  14.912 -0.8935 -0.1918  0.2157
 4827TIP3    H135896   0.283   2.793  14.843 -0.0725  0.4644  0.4407
 4827TIP3    H235897   0.253   2.656  14.901 -1.1033  0.0963 -0.8747
 4828TIP3   OH235898   4.646   1.405  12.993  0.3311  0.1163  0.3920
 4828TIP3    H135899   4.698   1.463  12.937 -0.0066  0.0110 -0.0375
 4828TIP3    H235900   4.611   1.339  12.932  0.4100 -0.3211  0.8153
 4829TIP3   OH235901   5.936   2.678   0.053  0.2175 -0.6423  0.2135
 4829TIP3    H135902   5.939   2.772   0.033 -1.0258 -0.2571  1.6178
 4829TIP3    H235903   6.021   2.645   0.025  0.2859  0.6854 -1.2832
 4830TIP3   OH235904   3.684   5.256  14.651 -0.4755 -0.4665 -0.2074
 4830TIP3    H135905   3.735   5.328  14.689  0.0774 -1.7404  1.5664
 4830TIP3    H235906   3.729   5.177  14.680 -1.9489 -1.5763 -0.8458
 4831TIP3   OH235907   2.012   0.879   2.522  0.4760 -0.4678  0.2935
 4831TIP3    H135908   2.068   0.938   2.472 -0.5999  1.3086  1.0920
 4831TIP3    H235909   1.950   0.937   2.567 -1.4336 -2.2979  0.1557
 4832TIP3   OH235910   5.622   5.848   3.727  0.0911 -0.3964 -0.1911
 4832TIP3    H135911   5.658   5.934   3.752 -0.5850 -0.0116 -0.5192
 4832TIP3    H235912   5.533   5.867   3.698 -0.8385 -1.5098  1.8090
 4833TIP3   OH235913   3.592   2.818  10.302 -0.1376 -0.0760 -0.2824
 4833TIP3    H135914   3.657   2.777  10.246 -0.1523  0.2570 -0.5486
 4833TIP3    H235915   3.625   2.805  10.391 -0.6450 -1.5501 -0.2762
 4834TIP3   OH235916   3.519   6.103  12.440  0.3111 -0.2266 -0.5706
 4834TIP3    H135917   3.476   6.189  12.438  0.5790 -0.1076 -2.5155
 4834TIP3    H235918   3.565   6.097  12.356 -0.2416 -2.5580 -0.7588
 4835TIP3   OH235919   3.805   2.385  13.373  0.8042 -0.1291  0.3832
 4835TIP3    H135920   3.803   2.402  13.279 -0.2429  0.8775  0.5566
 4835TIP3    H235921   3.765   2.299  13.383  0.9642 -0.2607 -0.0922
 4836TIP3   OH235922   1.693   3.346   1.406 -0.0384  0.2894 -0.3477
 4836TIP3    H135923   1.664   3.406   1.475 -1.4324  2.0427 -2.3450
 4836TIP3    H235924   1.626   3.352   1.339 -0.8906 -4.4464 -0.2462
 4837TIP3   OH235925   3.044   3.497   2.835  0.7308  0.1107  0.0204
 4837TIP3    H135926   3.066   3.446   2.913 -0.1636  0.5072  0.5577
 4837TIP3    H235927   2.953   3.474   2.816  0.1474  1.7865  0.5412
 4838TIP3   OH235928   2.947   2.015   5.436 -0.5252 -0.4298  0.7914
 4838TIP3    H135929   2.861   2.045   5.408 -0.6990  1.1922  2.7965
 4838TIP3    H235930   2.929   1.952   5.506 -0.0677 -1.9315 -0.3890
 4839TIP3   OH235931   4.589   1.146  12.433 -0.4794  0.0545  0.5246
 4839TIP3    H135932   4.563   1.123  12.522 -0.9437  0.4665  0.5015
 4839TIP3    H235933   4.507   1.162  12.387 -0.2148  0.8240  0.2947
 4840TIP3   OH235934   4.682   2.809   1.002 -0.4178 -0.2300  0.1111
 4840TIP3    H135935   4.628   2.753   1.058 -1.5288  0.8723  0.1755
 4840TIP3    H235936   4.621   2.873   0.965  0.6547  0.3497 -0.7224
 4841TIP3   OH235937   5.106   2.075   3.613  0.4946 -0.5981 -0.0019
 4841TIP3    H135938   5.152   2.118   3.685 -0.1171 -0.0919  0.0936
 4841TIP3    H235939   5.173   2.020   3.572  0.7563 -1.1787  1.1682
 4842TIP3   OH235940   6.713   6.739  15.702  0.1831 -0.0724  0.1538
 4842TIP3    H135941   6.734   6.790  15.624 -0.5544 -0.6149 -0.4069
 4842TIP3    H235942   6.798   6.723  15.744  0.5703  0.3160 -0.4736
 4843TIP3   OH235943   2.429   6.087   3.650  0.0048  0.4229  0.2475
 4843TIP3    H135944   2.489   6.025   3.690  1.5685  0.1643 -2.2665
 4843TIP3    H235945   2.347   6.039   3.642  0.7314 -0.7965 -0.1926
 4844TIP3   OH235946   3.302   1.832   1.332 -0.1099 -0.5383  0.8064
 4844TIP3    H135947   3.214   1.803   1.359 -1.6214  0.6074 -2.3369
 4844TIP3    H235948   3.329   1.768   1.266  0.8507 -0.1877  0.8526
 4845TIP3   OH235949   0.834   2.005   3.119  0.0107 -0.2901 -0.0057
 4845TIP3    H135950   0.821   1.943   3.048  1.7746 -0.3548 -0.3062
 4845TIP3    H235951   0.745   2.031   3.144 -0.7391 -2.1847 -0.5001
 4846TIP3   OH235952   4.112   6.729  12.460 -0.0588 -0.1029 -0.3444
 4846TIP3    H135953   4.132   6.822  12.446 -0.8944  0.1653  0.1081
 4846TIP3    H235954   4.020   6.729  12.487 -0.4099 -1.1622 -1.4442
 4847TIP3   OH235955   3.197   0.679  16.283 -0.5490  0.7494 -0.3214
 4847TIP3    H135956   3.203   0.633  16.367 -1.0987  0.5126 -0.4069
 4847TIP3    H235957   3.160   0.764  16.305 -0.5825  0.7321 -0.3120
 4848TIP3   OH235958   4.167   5.868   1.478  0.6249 -0.4042 -0.2620
 4848TIP3    H135959   4.252   5.855   1.519  0.4219 -0.9491  0.0029
 4848TIP3    H235960   4.113   5.797   1.512  0.5622 -1.1487 -1.8215
 4849TIP3   OH235961   1.627   2.966   3.440 -0.0925 -0.6835 -0.5784
 4849TIP3    H135962   1.662   2.967   3.351 -0.0685  1.0227 -0.5914
 4849TIP3    H235963   1.555   3.030   3.438 -0.6801 -1.2894  0.4042
 4850TIP3   OH235964   5.138   2.712   5.950  0.4780  1.1331  0.1716
 4850TIP3    H135965   5.115   2.692   6.041 -0.6743  0.3062 -0.2663
 4850TIP3    H235966   5.183   2.796   5.954  1.3377  0.6320  1.6104
 4851TIP3   OH235967   2.585   0.391  11.984 -0.1083  0.1103  0.9879
 4851TIP3    H135968   2.561   0.314  12.037 -0.3501 -0.7261 -0.2811
 4851TIP3    H235969   2.629   0.449  12.045  0.3406 -1.1700  1.9357
 4852TIP3   OH235970   0.010   3.425  15.088  0.0818  0.3669  0.3580
 4852TIP3    H135971   0.050   3.344  15.057 -0.6174 -0.2194  0.9491
 4852TIP3    H235972   0.060   3.494  15.046  1.7920 -0.3339  1.1519
 4853TIP3   OH235973   3.966   0.137  11.720  0.1275  0.4111 -0.2352
 4853TIP3    H135974   3.887   0.164  11.673  0.8833  0.4786 -1.5055
 4853TIP3    H235975   3.937   0.128  11.811 -1.8894 -1.7371 -0.9779
 4854TIP3   OH235976   4.424   3.813  12.273 -0.5172 -0.2606  0.4747
 4854TIP3    H135977   4.379   3.821  12.357 -0.8437 -2.0651  0.5180
 4854TIP3    H235978   4.401   3.726  12.242  0.4991 -0.0494 -0.9701
 4855TIP3   OH235979   4.685   3.435   5.894 -0.1034 -0.4113 -0.0582
 4855TIP3    H135980   4.723   3.522   5.885 -0.6610 -0.2564 -1.0103
 4855TIP3    H235981   4.655   3.431   5.984  0.4122  0.1785  0.1478
 4856TIP3   OH235982   4.928   0.144  16.163 -0.2788 -0.0142 -0.5072
 4856TIP3    H135983   4.832   0.139  16.170 -0.2946  0.1323 -0.6248
 4856TIP3    H235984   4.953   0.204  16.234 -0.3386  0.5309 -0.9406
 4857TIP3   OH235985   0.542   2.389   0.507 -0.3096 -0.8543  0.1852
 4857TIP3    H135986   0.451   2.362   0.503 -0.8896  1.0876 -1.5629
 4857TIP3    H235987   0.585   2.344   0.435 -0.1720 -0.7858  0.2221
 4858TIP3   OH235988   5.070   0.685   5.607 -0.2659 -0.2625 -0.4681
 4858TIP3    H135989   5.093   0.778   5.611 -0.1715 -0.3452  1.2809
 4858TIP3    H235990   5.133   0.641   5.664 -1.3939 -1.1724  0.1286
 4859TIP3   OH235991   2.615   2.870   3.494 -0.3093 -0.0012  0.5322
 4859TIP3    H135992   2.551   2.821   3.546  0.0158  0.2169  1.1428
 4859TIP3    H235993   2.612   2.959   3.529  0.4340 -0.0208  0.6603
 4860TIP3   OH235994   1.641   4.616  14.976  0.1114  0.7000  0.3247
 4860TIP3    H135995   1.552   4.624  14.943 -0.1052  0.0196  0.7385
 4860TIP3    H235996   1.683   4.553  14.918 -0.0166  0.1608  0.8045
 4861TIP3   OH235997   1.369   3.851   5.778 -0.4702 -0.4701  0.1908
 4861TIP3    H135998   1.377   3.823   5.687 -0.6917  2.0761 -0.7123
 4861TIP3    H235999   1.418   3.933   5.782 -1.0754 -0.1462  2.1875
 4862TIP3   OH236000   1.550   4.708  10.977 -0.2075 -0.0025  1.0949
 4862TIP3    H136001   1.474   4.697  10.920  0.5412 -0.1370  0.0966
 4862TIP3    H236002   1.520   4.768  11.045 -0.9532  0.6402  0.2282
 4863TIP3   OH236003   4.426   0.613   5.748  0.3260  0.3705  0.6635
 4863TIP3    H136004   4.336   0.580   5.741  0.4938  0.0329  0.0359
 4863TIP3    H236005   4.417   0.695   5.797 -0.2043 -0.1289  1.4223
 4864TIP3   OH236006   1.478   4.542   0.331  0.1979 -0.5147  0.2054
 4864TIP3    H136007   1.417   4.535   0.405  0.9770 -0.2426  0.8946
 4864TIP3    H236008   1.564   4.552   0.373  0.5574  0.5020 -0.7361
 4865TIP3   OH236009   1.000   0.063  11.381  0.5932 -0.1143  0.0985
 4865TIP3    H136010   0.960  -0.018  11.412  2.6821 -1.7126 -1.0500
 4865TIP3    H236011   1.089   0.061  11.417  1.2618  0.7269 -1.3891
 4866TIP3   OH236012   5.481   3.161  13.992  0.0806  0.2784  0.6816
 4866TIP3    H136013   5.423   3.226  13.953  1.8748  0.2413 -2.3026
 4866TIP3    H236014   5.423   3.108  14.048 -2.4460  1.1945 -0.9071
 4867TIP3   OH236015   3.986   6.431   0.438  0.2978 -0.3700  0.3693
 4867TIP3    H136016   3.936   6.398   0.512  1.5712 -0.6078  1.1513
 4867TIP3    H236017   4.002   6.523   0.459 -0.7012  0.0028 -0.3973
 4868TIP3   OH236018   3.278   2.072  16.250  0.0347 -0.1824  0.1531
 4868TIP3    H136019   3.208   2.029  16.201 -0.4891 -0.5561  1.1866
 4868TIP3    H236020   3.330   1.999  16.285  1.7055  0.0853 -1.6068
 4869TIP3   OH236021   3.486   5.265  10.952 -0.3188 -0.0384 -0.3889
 4869TIP3    H136022   3.566   5.276  10.901  0.2811 -1.2463  0.2649
 4869TIP3    H236023   3.500   5.187  11.004 -1.1012  0.8900  1.3124
 4870TIP3   OH236024   4.941   1.603  14.204  0.3527 -0.7803  0.4528
 4870TIP3    H136025   4.879   1.530  14.207  1.3915 -1.6533  1.5899
 4870TIP3    H236026   4.946   1.626  14.111  0.5072 -2.6103 -0.0278
 4871TIP3   OH236027   5.325   1.990   2.686 -0.7349 -0.1917  0.0969
 4871TIP3    H136028   5.342   1.981   2.592 -1.5377  0.0295 -0.0731
 4871TIP3    H236029   5.396   1.941   2.728 -0.3758 -0.2997 -0.6226
 4872TIP3   OH236030   3.060   1.649   4.465 -0.0474 -0.5218 -0.9623
 4872TIP3    H136031   3.066   1.616   4.376 -0.0014 -0.7192 -0.8855
 4872TIP3    H236032   3.141   1.620   4.507  1.1875  1.7738 -1.5866
 4873TIP3   OH236033   2.451   0.072  10.876  0.7971  0.1190  0.2355
 4873TIP3    H136034   2.480   0.019  10.950 -0.5523  0.5982  1.1498
 4873TIP3    H236035   2.381   0.020  10.835  0.4494  0.5576  0.2693
 4874TIP3   OH236036   0.155   0.913  13.929  0.2987 -0.0035  0.4432
 4874TIP3    H136037   0.099   0.977  13.885  0.2493  0.3096  0.9506
 4874TIP3    H236038   0.145   0.932  14.022  1.0633 -0.0961  0.5550
 4875TIP3   OH236039   6.705   2.014  14.519 -0.0110  0.4156  0.2177
 4875TIP3    H136040   6.768   2.013  14.591  1.8464  1.1499 -1.3133
 4875TIP3    H236041   6.727   1.937  14.466  0.5947  1.4718 -1.1143
 4876TIP3   OH236042   4.654   2.102  14.214 -0.1650  0.2665 -0.0108
 4876TIP3    H136043   4.575   2.100  14.159 -0.0194  0.9790 -0.2559
 4876TIP3    H236044   4.623   2.078  14.301 -0.6312  0.3821 -0.1390
 4877TIP3   OH236045   6.196   2.496   4.183 -0.0855  0.2681  0.2795
 4877TIP3    H136046   6.268   2.453   4.138 -0.4329  0.5649 -0.5838
 4877TIP3    H236047   6.226   2.505   4.273 -0.6240 -3.2944  0.9674
 4878TIP3   OH236048   2.788   2.304   5.684 -0.4512 -0.3065  0.3312
 4878TIP3    H136049   2.746   2.231   5.729 -1.5035  1.1939  1.9286
 4878TIP3    H236050   2.716   2.365   5.665  0.5739  1.0202  0.5212
 4879TIP3   OH236051   5.928   5.916   2.814  0.1541 -0.7262 -0.4049
 4879TIP3    H136052   5.897   5.857   2.746  3.8179 -1.5636 -1.5804
 4879TIP3    H236053   5.955   5.859   2.885  0.6629 -0.2272 -0.1875
 4880TIP3   OH236054   3.339   0.732   4.058  0.4442 -0.2584 -0.1574
 4880TIP3    H136055   3.267   0.791   4.036  1.2488  0.5010 -0.8667
 4880TIP3    H236056   3.401   0.787   4.106  0.2015 -1.0999  1.1558
 4881TIP3   OH236057   5.267   4.637  11.336  0.4067 -0.5046  0.3737
 4881TIP3    H136058   5.227   4.608  11.254  0.6717 -1.8210  0.6936
 4881TIP3    H236059   5.244   4.730  11.342 -3.3835 -1.3253  1.0095
 4882TIP3   OH236060   3.769   6.439   1.927  0.0634 -0.0000  0.0215
 4882TIP3    H136061   3.851   6.485   1.907 -0.0362 -0.0192 -0.4447
 4882TIP3    H236062   3.723   6.497   1.988 -0.1996  0.6692 -0.7996
 4883TIP3   OH236063   6.806   3.002  15.481  0.2117 -0.0608  0.0703
 4883TIP3    H136064   6.838   2.959  15.560  2.5860 -1.0378 -1.2966
 4883TIP3    H236065   6.858   3.082  15.475  1.9089 -1.1880 -1.6867
 4884TIP3   OH236066   4.516   0.159   0.797  0.2054 -0.7465 -0.1350
 4884TIP3    H136067   4.548   0.092   0.736  1.3242 -1.0877  0.7893
 4884TIP3    H236068   4.454   0.211   0.746  0.2802 -1.7046 -1.2336
 4885TIP3   OH236069   3.519   1.907  11.239 -0.5674 -0.1351  0.4507
 4885TIP3    H136070   3.489   1.949  11.319  1.8625  2.1780  0.2567
 4885TIP3    H236071   3.443   1.855  11.210 -2.5606  1.4022  2.5476
 4886TIP3   OH236072   1.141   5.151  13.873  0.2725  0.2442 -0.0430
 4886TIP3    H136073   1.092   5.103  13.807  1.3231 -0.5475 -0.2632
 4886TIP3    H236074   1.114   5.242  13.861  0.0393  0.0367 -1.2002
 4887TIP3   OH236075   5.150   4.022  14.413 -0.6689  0.2073  0.4226
 4887TIP3    H136076   5.059   4.049  14.400 -0.6695 -0.4331 -1.1289
 4887TIP3    H236077   5.194   4.045  14.332  0.8316  1.4170  1.5161
 4888TIP3   OH236078   4.390   4.016   3.944 -0.1500 -0.3676 -0.1341
 4888TIP3    H136079   4.372   4.024   3.850  2.2411  0.1353 -0.6186
 4888TIP3    H236080   4.472   4.064   3.956 -0.4745 -0.3209  2.2523
 4889TIP3   OH236081   0.431   6.420   2.028  0.1010  0.4053  0.1112
 4889TIP3    H136082   0.439   6.325   2.029  1.0840  0.4818 -0.0928
 4889TIP3    H236083   0.387   6.440   1.945 -1.0656  0.0730  0.6271
 4890TIP3   OH236084   6.794   4.686  15.451  0.2150  0.0729 -0.3089
 4890TIP3    H136085   6.717   4.721  15.496  1.2845  1.1184  0.8181
 4890TIP3    H236086   6.798   4.594  15.477  0.6127  0.5726  1.5646
 4891TIP3   OH236087   3.500   2.988  11.324  0.3986  0.6242  0.1194
 4891TIP3    H136088   3.470   2.945  11.244  0.4226  1.1744 -0.1951
 4891TIP3    H236089   3.435   3.057  11.340 -1.3704 -1.4220  2.3443
 4892TIP3   OH236090   0.080   4.943  14.010 -0.3727 -0.7992 -0.1256
 4892TIP3    H136091   0.011   4.996  13.969  0.1801  0.0680  0.0348
 4892TIP3    H236092   0.069   4.856  13.972 -1.5258 -0.6731 -0.1346
 4893TIP3   OH236093   6.037   6.685   5.854 -0.0007  0.0237 -0.9167
 4893TIP3    H136094   6.126   6.680   5.887  0.0199  1.6344 -0.6055
 4893TIP3    H236095   5.983   6.656   5.928  0.2070  0.5365 -0.5521
 4894TIP3   OH236096   4.377   3.472   3.525  0.0880  0.4408  0.0332
 4894TIP3    H136097   4.466   3.463   3.559  0.5867  0.6082 -1.1673
 4894TIP3    H236098   4.366   3.566   3.511 -1.0156  0.6503  1.9965
 4895TIP3   OH236099   6.277   2.869  14.748  0.0147  0.4559 -0.2944
 4895TIP3    H136100   6.339   2.887  14.819  0.7936  2.1813 -1.3612
 4895TIP3    H236101   6.207   2.820  14.791  2.0084 -1.4829  0.9809
 4896TIP3   OH236102   1.969   0.624  15.031  0.2423 -0.0288  0.6898
 4896TIP3    H136103   1.934   0.646  14.944 -1.1128 -0.0489  1.1970
 4896TIP3    H236104   1.950   0.530  15.041  0.1780  0.0290  1.1028
 4897TIP3   OH236105   1.126   0.445  11.679  0.0305 -1.0062 -0.0586
 4897TIP3    H136106   1.066   0.506  11.636  0.8280  0.3695  0.6970
 4897TIP3    H236107   1.078   0.412  11.755 -0.3838 -1.2839 -0.4383
 4898TIP3   OH236108   0.991   3.773  15.519  0.2855  0.0080 -0.9104
 4898TIP3    H136109   0.918   3.755  15.460 -0.4779 -0.9235  0.2805
 4898TIP3    H236110   1.003   3.691  15.568  1.5019  0.4602 -0.4161
 4899TIP3   OH236111   4.261   1.715   0.483 -0.4754 -0.5435 -0.4732
 4899TIP3    H136112   4.327   1.692   0.549 -1.1577  2.0222  1.2716
 4899TIP3    H236113   4.268   1.647   0.416  2.1877 -1.7316  0.8860
 4900TIP3   OH236114   2.576   2.885  16.070  0.2764 -0.0076 -0.4994
 4900TIP3    H136115   2.535   2.972  16.074 -1.8279 -0.9413  4.1630
 4900TIP3    H236116   2.516   2.833  16.016 -0.7789  0.4685  0.1761
 4901TIP3   OH236117   2.557   0.601  15.985 -0.1179 -0.0268  0.4981
 4901TIP3    H136118   2.474   0.562  16.013  0.0516 -0.3264  0.5803
 4901TIP3    H236119   2.563   0.578  15.892  0.9409 -1.9302  0.9844
 4902TIP3   OH236120   4.587   5.538  16.599  0.7766 -0.7398  0.2681
 4902TIP3    H136121   4.620   5.499  16.680 -2.6780 -0.9587  1.7582
 4902TIP3    H236122   4.590   5.632  16.615  1.9897 -0.6782 -0.2281
 4903TIP3   OH236123   3.364   5.796   5.571  0.4208 -0.2929  0.3207
 4903TIP3    H136124   3.430   5.864   5.587  0.8440 -0.5059 -0.4704
 4903TIP3    H236125   3.291   5.843   5.531  0.3471 -0.1619  0.6041
 4904TIP3   OH236126   3.033   4.237  16.432 -0.3302  0.6819 -0.1318
 4904TIP3    H136127   3.114   4.185  16.425 -0.7804 -0.1887  0.8919
 4904TIP3    H236128   3.063   4.324  16.455  0.2771 -0.0567  2.1271
 4905TIP3   OH236129   3.466   0.962  16.487  0.2512  0.2981 -0.7524
 4905TIP3    H136130   3.405   0.925  16.550 -0.0163  1.1782 -0.4872
 4905TIP3    H236131   3.519   0.887  16.458 -1.0446 -0.5156 -1.1143
 4906TIP3   OH236132   2.561   6.518   3.416 -0.5121  0.1560  0.3923
 4906TIP3    H136133   2.576   6.606   3.451  0.7256 -0.3375  1.1746
 4906TIP3    H236134   2.578   6.526   3.322  1.1119  0.4413  0.6885
 4907TIP3   OH236135   0.758   5.999  13.021  0.2190  0.2133  0.5597
 4907TIP3    H136136   0.754   6.016  13.115  1.7151 -3.2271  1.4085
 4907TIP3    H236137   0.839   5.949  13.009  0.7197  1.5530 -2.8146
 4908TIP3   OH236138   4.282   1.907  14.688 -0.0297  0.1965  0.1963
 4908TIP3    H136139   4.347   1.845  14.656  1.1207  0.7870  1.2827
 4908TIP3    H236140   4.200   1.857  14.689 -0.3141  0.2295 -3.8947
 4909TIP3   OH236141   3.509   2.133   0.720  0.0749 -0.7765  0.4815
 4909TIP3    H136142   3.435   2.194   0.716  0.4652 -0.2347  1.2184
 4909TIP3    H236143   3.470   2.047   0.703 -0.7576 -0.5211  1.0303
 4910TIP3   OH236144   5.329   2.616  14.355 -0.0375  0.3531  0.1673
 4910TIP3    H136145   5.245   2.618  14.399  1.5538 -2.5785  3.8907
 4910TIP3    H236146   5.334   2.529  14.316  0.9125  0.8651 -0.9273
 4911TIP3   OH236147   2.707   5.008  16.257  0.5212 -0.3388  0.1886
 4911TIP3    H136148   2.730   5.098  16.279 -1.4044 -0.1730  1.8000
 4911TIP3    H236149   2.717   4.960  16.339  0.9043 -1.4722 -0.5037
 4912TIP3   OH236150   0.584   0.583   2.072 -0.1051  0.4324  0.2368
 4912TIP3    H136151   0.651   0.648   2.054  0.6266  0.0147  1.3573
 4912TIP3    H236152   0.503   0.634   2.083  0.2917  1.0671  0.2305
 4913TIP3   OH236153   2.933   5.871  13.790 -0.1600 -0.3576  0.1690
 4913TIP3    H136154   2.997   5.877  13.720  0.3384 -0.8337  0.5747
 4913TIP3    H236155   2.898   5.960  13.799 -0.6954 -0.4241 -1.1014
 4914TIP3   OH236156   0.281   3.144   3.615  0.4703 -0.4816  0.4174
 4914TIP3    H136157   0.208   3.207   3.611  0.0934 -0.9565 -2.1989
 4914TIP3    H236158   0.323   3.162   3.698 -0.2715  2.5411  0.2628
 4915TIP3   OH236159   3.331   3.952   4.693 -0.2283  0.3481 -0.3118
 4915TIP3    H136160   3.407   4.002   4.664  0.9063 -1.0038  0.2150
 4915TIP3    H236161   3.329   3.965   4.788 -1.0961  0.9211 -0.3893
 4916TIP3   OH236162   5.974   2.541   1.649  0.5446  0.1485  0.2995
 4916TIP3    H136163   5.941   2.526   1.737 -3.2021  0.2959 -0.9212
 4916TIP3    H236164   5.928   2.477   1.594  0.8163  1.7103 -1.8940
 4917TIP3   OH236165   1.161   2.285   3.162 -0.2605  0.2940 -0.3650
 4917TIP3    H136166   1.226   2.218   3.183 -0.6556  0.3281  1.0002
 4917TIP3    H236167   1.150   2.277   3.067  2.3103  0.8099 -0.8052
 4918TIP3   OH236168   1.269   1.176  10.381 -0.3141  0.5458 -0.0583
 4918TIP3    H136169   1.236   1.112  10.317 -0.9956 -0.4600  1.2632
 4918TIP3    H236170   1.210   1.251  10.373 -1.1200 -0.0531  0.2138
 4919TIP3   OH236171   4.089   0.001  15.939 -0.1217 -0.2830  0.0356
 4919TIP3    H136172   4.069   0.042  16.024 -1.2517  0.1527 -0.4198
 4919TIP3    H236173   4.012  -0.052  15.919  0.7686 -1.5837 -0.0293
 4920TIP3   OH236174   6.411   2.045   0.954  0.0248 -0.2178 -0.2721
 4920TIP3    H136175   6.416   2.132   0.915  1.3441  0.4424  1.2440
 4920TIP3    H236176   6.491   2.037   1.006 -0.1167 -2.3031 -0.2847
 4921TIP3   OH236177   6.039   2.457  14.021 -0.3248 -0.2181  0.3028
 4921TIP3    H136178   5.967   2.398  14.042 -0.1485 -1.5215 -2.4264
 4921TIP3    H236179   6.118   2.408  14.043 -0.1031  1.1986  3.2609
 4922TIP3   OH236180   6.512   5.236   4.781 -0.7815 -0.3271 -0.2776
 4922TIP3    H136181   6.424   5.202   4.799 -0.6081 -0.8087 -0.3256
 4922TIP3    H236182   6.497   5.324   4.746 -1.1752  0.3469  1.4788
 4923TIP3   OH236183   2.940   4.933   4.764 -0.7119 -0.3244  0.1206
 4923TIP3    H136184   2.868   4.978   4.719 -1.0784 -1.0211  0.0026
 4923TIP3    H236185   3.019   4.972   4.726 -0.9790  1.6529  1.4335
 4924TIP3   OH236186   1.789   6.527   5.239 -0.2074 -0.3963  0.6597
 4924TIP3    H136187   1.820   6.559   5.154 -0.5669  0.0568  0.6942
 4924TIP3    H236188   1.868   6.497   5.284  0.1838  0.6457  0.7020
 4925TIP3   OH236189   0.488   3.211   6.371 -0.1604  0.1413  0.3735
 4925TIP3    H136190   0.521   3.287   6.420  0.1805  0.5095 -0.4159
 4925TIP3    H236191   0.396   3.204   6.398 -0.8744  2.2682 -1.2485
 4926TIP3   OH236192   4.981   1.318   1.101  0.1533 -0.1346 -0.0355
 4926TIP3    H136193   4.948   1.229   1.112 -0.7415  0.0277 -1.2978
 4926TIP3    H236194   5.073   1.307   1.076  0.1649 -0.6734  0.2293
 4927TIP3   OH236195   1.810   3.927   3.794  0.0558 -0.3644  0.0769
 4927TIP3    H136196   1.737   3.873   3.763 -0.5403  0.2111  0.4524
 4927TIP3    H236197   1.888   3.878   3.769 -0.4395 -0.6906 -0.8971
 4928TIP3   OH236198   5.248   5.655   1.773 -0.6141  0.0434  0.0688
 4928TIP3    H136199   5.155   5.652   1.754 -0.4870 -1.7644 -0.4451
 4928TIP3    H236200   5.273   5.746   1.760 -2.2933  0.5440  0.2051
 4929TIP3   OH236201   0.920   1.467   0.416  0.3579 -0.0551 -0.6825
 4929TIP3    H136202   0.996   1.420   0.450  1.0045  1.1687 -0.3818
 4929TIP3    H236203   0.954   1.551   0.388 -1.2204  1.4733  1.6170
 4930TIP3   OH236204   0.146   3.939  10.418 -0.0887 -0.0774 -0.3303
 4930TIP3    H136205   0.213   4.001  10.447 -1.4086  1.9244 -1.3948
 4930TIP3    H236206   0.186   3.853  10.434  1.7592  0.9820  1.3059
 4931TIP3   OH236207   1.877   6.463  11.051  0.4881  0.1332  0.1800
 4931TIP3    H136208   1.961   6.419  11.043  1.1280  1.5342 -1.6817
 4931TIP3    H236209   1.900   6.556  11.061 -0.7586  0.8549 -2.6295
 4932TIP3   OH236210   5.575   3.388   3.029 -0.8973  0.2511  0.1504
 4932TIP3    H136211   5.515   3.316   3.048 -0.8310  0.4678  1.2306
 4932TIP3    H236212   5.531   3.466   3.063 -0.5125  0.5808 -0.0900
 4933TIP3   OH236213   2.550   3.049  11.385 -0.0671  0.3322  0.7217
 4933TIP3    H136214   2.545   3.035  11.479  0.4719  0.8412  0.8358
 4933TIP3    H236215   2.564   3.143  11.376  1.1804  0.1112  0.1914
 4934TIP3   OH236216   2.915   1.153   2.324 -0.3320 -0.1852  0.1275
 4934TIP3    H136217   2.954   1.238   2.345  1.4886 -0.6267 -1.2713
 4934TIP3    H236218   2.937   1.097   2.399 -0.5455  0.2596  0.5269
 4935TIP3   OH236219   3.640   5.533   4.953 -0.0168  0.0188  0.4162
 4935TIP3    H136220   3.675   5.492   5.032  0.4230 -1.3543 -0.4513
 4935TIP3    H236221   3.717   5.567   4.907 -0.2746  0.8541  0.5879
 4936TIP3   OH236222   5.215   5.008   0.013  0.7290 -0.1651  0.6338
 4936TIP3    H136223   5.303   4.971   0.018  0.6295 -0.3447  1.0877
 4936TIP3    H236224   5.169   4.950  -0.048  1.0736  0.2457 -0.0335
 4937TIP3   OH236225   1.724   1.158  14.574 -0.1738 -0.3785  0.0348
 4937TIP3    H136226   1.749   1.178  14.664 -0.6081 -0.2369  0.1279
 4937TIP3    H236227   1.756   1.232  14.523 -0.1545 -0.3354  0.1101
 4938TIP3   OH236228   6.268   3.472   2.892 -0.1058  0.0767  0.8967
 4938TIP3    H136229   6.311   3.475   2.807 -0.9809 -0.0091  0.4430
 4938TIP3    H236230   6.336   3.499   2.954  1.1973 -1.9819  0.4595
 4939TIP3   OH236231   0.839   3.112  12.377  0.6747  0.4549  0.4260
 4939TIP3    H136232   0.848   3.056  12.299  1.0493  1.5931 -0.3789
 4939TIP3    H236233   0.928   3.139  12.397  0.5116  0.6536  0.8877
 4940TIP3   OH236234   1.232   0.277   4.316 -0.1142 -0.0320  0.3324
 4940TIP3    H136235   1.209   0.369   4.306  0.4218  0.1607  0.8258
 4940TIP3    H236236   1.264   0.251   4.230  0.8800  0.5824  0.4962
 4941TIP3   OH236237   3.046   1.552  11.147  0.0857 -0.0389 -0.3711
 4941TIP3    H136238   2.983   1.549  11.074  0.3442 -0.5128 -0.5782
 4941TIP3    H236239   3.033   1.639  11.186  0.2340  0.3862 -1.2424
 4942TIP3   OH236240   4.378   1.026  15.275  0.0173 -0.1177 -1.2183
 4942TIP3    H136241   4.436   0.956  15.247 -0.3471  0.0721 -2.4981
 4942TIP3    H236242   4.293   1.005  15.237 -0.2005  0.7870 -1.2704
 4943TIP3   OH236243   2.674   0.281   3.083 -0.2529 -0.0333 -0.1010
 4943TIP3    H136244   2.765   0.307   3.073 -0.7846  1.3754 -1.7050
 4943TIP3    H236245   2.653   0.234   3.002 -1.3051  0.8644 -0.3766
 4944TIP3   OH236246   0.835   5.663  13.109  0.6141 -0.2516 -0.3364
 4944TIP3    H136247   0.883   5.582  13.127  1.6344  0.1767 -0.9968
 4944TIP3    H236248   0.883   5.703  13.036  0.0473  0.8725 -0.1125
 4945TIP3   OH236249   4.672   5.505  16.081  0.3323 -0.3289 -0.2696
 4945TIP3    H136250   4.689   5.593  16.115 -0.0134 -0.2792 -0.2187
 4945TIP3    H236251   4.584   5.511  16.044  0.2929 -0.6640 -0.2303
 4946TIP3   OH236252   1.492   1.183  12.387  0.3242  0.0528 -0.8428
 4946TIP3    H136253   1.435   1.108  12.403  0.0294  0.2932 -0.7767
 4946TIP3    H236254   1.490   1.195  12.293 -0.3307  0.5352 -0.7674
 4947TIP3   OH236255   6.249   1.524  10.562 -0.1367  0.0167  0.0552
 4947TIP3    H136256   6.203   1.451  10.602 -0.4488 -0.2005 -0.6863
 4947TIP3    H236257   6.216   1.527  10.472 -0.6156  1.4714  0.2484
 4948TIP3   OH236258   6.537   1.444  12.946  0.1526  0.0128  0.3612
 4948TIP3    H136259   6.578   1.369  12.990 -0.7850  0.4642  2.0656
 4948TIP3    H236260   6.482   1.405  12.878  0.3842 -0.7927  0.6282
 4949TIP3   OH236261   3.418   6.526  12.639  0.1304 -0.2961  0.6399
 4949TIP3    H136262   3.399   6.593  12.574  2.7396 -0.0245  0.0542
 4949TIP3    H236263   3.447   6.451  12.588  0.1792 -0.8206  1.4192
 4950TIP3   OH236264   2.067   1.246   1.766 -0.3760 -0.1668 -0.0427
 4950TIP3    H136265   1.997   1.280   1.821 -0.1453  0.1407  0.0635
 4950TIP3    H236266   2.059   1.151   1.773  0.0723 -0.1407  1.0710
 4951TIP3   OH236267   1.006   0.511   5.355 -0.3678  0.0075 -0.5472
 4951TIP3    H136268   1.002   0.419   5.328 -0.4633 -0.2145  0.1949
 4951TIP3    H236269   0.963   0.559   5.284  0.2854 -0.4471 -1.2571
 4952TIP3   OH236270   1.044   3.238  15.135  0.2657 -0.1602  0.2585
 4952TIP3    H136271   1.019   3.146  15.131  1.0532 -0.3740  0.1541
 4952TIP3    H236272   1.023   3.265  15.224  1.2581 -0.8038  0.7051
 4953TIP3   OH236273   1.070   2.181  12.683 -0.5096  0.1212 -0.1042
 4953TIP3    H136274   0.992   2.164  12.736 -1.2202 -1.0020 -1.4356
 4953TIP3    H236275   1.063   2.273  12.658 -1.5473 -0.0370 -0.4201
 4954TIP3   OH236276   6.682   4.981  11.996  0.1080  0.2164 -0.2350
 4954TIP3    H136277   6.742   4.968  11.922  1.2380  1.6573  0.3595
 4954TIP3    H236278   6.640   4.896  12.009 -0.7051  0.1197 -2.9946
 4955TIP3   OH236279   0.614   5.604  11.512  0.1262  0.5555 -0.5039
 4955TIP3    H136280   0.620   5.538  11.581  1.9605 -1.4690 -2.4027
 4955TIP3    H236281   0.542   5.661  11.538 -0.6241 -1.3692  1.9710
 4956TIP3   OH236282   6.295   5.335  11.568  0.0685  0.5389  0.0193
 4956TIP3    H136283   6.255   5.292  11.492 -0.0766  1.7391 -0.6095
 4956TIP3    H236284   6.221   5.363  11.622  0.1160  1.0546 -0.1786
 4957TIP3   OH236285   6.300   2.665  13.617  0.3547  0.2478  0.3235
 4957TIP3    H136286   6.336   2.591  13.569  0.4093  1.3860 -1.4782
 4957TIP3    H236287   6.207   2.666  13.595  0.6468  1.6264 -0.9890
 4958TIP3   OH236288   1.209   5.650  14.132  0.4819 -0.5481  0.3784
 4958TIP3    H136289   1.134   5.614  14.178 -0.0360 -1.2487 -0.9406
 4958TIP3    H236290   1.281   5.590  14.151  1.0581  0.7133  2.5348
 4959TIP3   OH236291   0.891   5.336   4.308  0.7065 -0.3000 -0.3646
 4959TIP3    H136292   0.928   5.362   4.223  0.5662  0.1628 -0.2864
 4959TIP3    H236293   0.799   5.319   4.289  0.7815 -0.6671 -0.4002
 4960TIP3   OH236294   6.191   1.437  14.017 -0.3452 -0.4706  0.2542
 4960TIP3    H136295   6.098   1.439  13.994 -0.3462 -2.9537 -0.2434
 4960TIP3    H236296   6.220   1.349  13.992  2.4419  0.6209 -0.6932
 4961TIP3   OH236297   6.470   0.493   4.904 -0.0032  0.7044 -0.6306
 4961TIP3    H136298   6.521   0.412   4.902 -1.5962 -0.4691  1.5712
 4961TIP3    H236299   6.513   0.547   4.970 -1.6803 -0.5161  1.6563
 4962TIP3   OH236300   0.490   0.981   0.652 -0.3930 -0.8492 -0.0125
 4962TIP3    H136301   0.443   0.990   0.569 -0.1013 -0.0018 -0.0925
 4962TIP3    H236302   0.527   0.893   0.649 -1.3950 -1.2783 -0.2452
 4963TIP3   OH236303   0.921   3.002  14.374 -0.1341 -0.0558  0.0731
 4963TIP3    H136304   0.950   3.028  14.287 -0.3146  1.1578  0.3633
 4963TIP3    H236305   0.912   2.907  14.369  3.8364 -0.6104 -0.0773
 4964TIP3   OH236306   4.880   2.630  13.727 -0.0396 -0.2146  0.2432
 4964TIP3    H136307   4.819   2.638  13.800 -1.4987  0.7437 -1.0047
 4964TIP3    H236308   4.859   2.705  13.670  1.1360 -0.8398 -1.0808
 4965TIP3   OH236309   4.476   0.958   0.410  0.0139  0.5436 -0.4925
 4965TIP3    H136310   4.510   0.880   0.367  1.0255  0.1074  1.0436
 4965TIP3    H236311   4.381   0.944   0.412  0.1748 -0.6105 -0.3076
 4966TIP3   OH236312   4.049   1.361  11.493 -0.3550  0.7988  0.4888
 4966TIP3    H136313   4.021   1.411  11.417 -1.4679  2.1298  1.7298
 4966TIP3    H236314   4.051   1.270  11.463  1.2917  1.4818 -1.7005
 4967TIP3   OH236315   4.515   6.494   6.394 -0.2358 -0.1098  0.0395
 4967TIP3    H136316   4.584   6.431   6.375 -0.8077 -0.0976 -2.3006
 4967TIP3    H236317   4.552   6.550   6.463  2.1058 -0.0879 -1.1510
 4968TIP3   OH236318   3.758   4.454   4.544 -0.4957  0.1940 -0.1369
 4968TIP3    H136319   3.701   4.424   4.474  0.9691  0.1574 -1.3530
 4968TIP3    H236320   3.803   4.530   4.508  1.2672 -0.6197  0.2594
 4969TIP3   OH236321   6.523   1.549  13.822 -0.1241  0.0292  0.0170
 4969TIP3    H136322   6.547   1.456  13.816  0.2376  0.1507 -0.4746
 4969TIP3    H236323   6.550   1.586  13.738 -0.8350  0.4517 -0.0394
 4970TIP3   OH236324   3.746   1.100  11.620  0.2982 -0.1435  0.1956
 4970TIP3    H136325   3.665   1.069  11.661 -0.0031  0.9839  0.4822
 4970TIP3    H236326   3.793   1.143  11.691  1.1017 -0.6771 -0.0050
 4971TIP3   OH236327   4.300   0.254   5.954 -0.0989 -0.0619  0.0501
 4971TIP3    H136328   4.328   0.201   5.880 -0.4996  1.7484 -1.4781
 4971TIP3    H236329   4.297   0.193   6.028  1.2386 -1.7248 -1.1966
 4972TIP3   OH236330   0.966   1.607   2.039 -0.0756  0.5660  0.4599
 4972TIP3    H136331   1.001   1.522   2.065  0.8409 -0.0182 -2.2914
 4972TIP3    H236332   1.042   1.655   2.006 -0.9305  1.6141 -0.0423
 4973TIP3   OH236333   3.785   4.915  13.190  0.0823  0.0360  0.7898
 4973TIP3    H136334   3.859   4.975  13.190 -0.5260  0.8106  1.3825
 4973TIP3    H236335   3.810   4.845  13.129  0.5449  1.1882 -0.3750
 4974TIP3   OH236336   2.613   5.732  13.741  0.7002  0.0656 -0.1703
 4974TIP3    H136337   2.550   5.797  13.772  1.6621  0.7989  0.3311
 4974TIP3    H236338   2.615   5.743  13.646  2.4873  2.4017  0.0475
 4975TIP3   OH236339   1.606   4.248  11.213  0.0784 -0.1058  0.7670
 4975TIP3    H136340   1.627   4.184  11.280 -1.5082 -2.3062 -0.6966
 4975TIP3    H236341   1.520   4.222  11.180 -0.0628  2.0231 -0.7925
 4976TIP3   OH236342   6.066   1.091   2.846 -0.1191 -1.1207 -0.0363
 4976TIP3    H136343   6.051   1.134   2.762 -0.7965  0.4615  0.8491
 4976TIP3    H236344   5.989   1.113   2.898  0.6206 -1.4376  1.2366
 4977TIP3   OH236345   2.683   3.473   6.532 -0.4930 -0.1061 -0.0418
 4977TIP3    H136346   2.707   3.382   6.513  0.8475  0.6451 -2.3769
 4977TIP3    H236347   2.639   3.502   6.452 -2.1681  0.9488  1.1918
 4978TIP3   OH236348   0.749   1.877   3.884 -0.0063 -0.4822 -0.0373
 4978TIP3    H136349   0.712   1.945   3.942 -0.4359 -0.8001  0.0668
 4978TIP3    H236350   0.839   1.867   3.914 -0.0826 -0.2945  0.2610
 4979TIP3   OH236351   6.043   5.476   6.348  0.1066 -0.0700 -0.1765
 4979TIP3    H136352   5.982   5.550   6.347 -0.9612 -0.8706  1.3303
 4979TIP3    H236353   6.017   5.422   6.274 -1.4643 -0.6929  0.7704
 4980TIP3   OH236354   2.502   1.547   1.793 -0.5722  0.1119  0.4199
 4980TIP3    H136355   2.446   1.482   1.749  0.1345 -1.0722  1.2201
 4980TIP3    H236356   2.584   1.544   1.744 -0.5691  0.5003  0.3967
 4981TIP3   OH236357   4.158   3.061  11.442  0.2017 -0.0592 -0.0558
 4981TIP3    H136358   4.207   3.056  11.360 -0.1013  0.3804 -0.2674
 4981TIP3    H236359   4.105   2.981  11.443 -0.4446  0.3494 -0.7163
 4982TIP3   OH236360   1.340   0.911   5.345  0.1854  0.0881  1.2063
 4982TIP3    H136361   1.433   0.894   5.331  0.6948  0.0105  4.0768
 4982TIP3    H236362   1.312   0.842   5.405 -1.7651  0.1112  0.3878
 4983TIP3   OH236363   4.549   2.638   1.589 -0.4799 -0.8018  0.2507
 4983TIP3    H136364   4.579   2.624   1.679 -0.9727 -0.0326  0.5528
 4983TIP3    H236365   4.608   2.705   1.555 -0.3312 -1.0506  0.0206
 4984TIP3   OH236366   6.795   3.580  11.190  0.2733 -0.1996  0.0753
 4984TIP3    H136367   6.857   3.619  11.252 -0.9332 -1.0153  1.8786
 4984TIP3    H236368   6.739   3.653  11.163  0.8562  0.1816 -0.1110
 4985TIP3   OH236369   2.549   6.089  13.498  0.6370  0.6776 -0.1587
 4985TIP3    H136370   2.554   6.084  13.593  0.5457  2.6868 -0.0075
 4985TIP3    H236371   2.630   6.048  13.467  0.5560 -0.2049  0.7615
 4986TIP3   OH236372   0.231   1.487  13.668 -0.0015 -0.1127 -0.4613
 4986TIP3    H136373   0.205   1.427  13.739  0.9035 -0.5582 -0.4948
 4986TIP3    H236374   0.309   1.531  13.702 -0.2714  0.5672 -0.7080
 4987TIP3   OH236375   2.942   6.503   0.364  0.3077  0.4088  0.5574
 4987TIP3    H136376   2.962   6.412   0.341 -1.8784  0.0887 -0.2936
 4987TIP3    H236377   3.018   6.553   0.334  1.8650 -1.1715  1.6669
 4988TIP3   OH236378   5.300   5.832  15.718 -0.2070 -0.2149  0.2516
 4988TIP3    H136379   5.224   5.797  15.672 -0.3675 -1.2949  1.2856
 4988TIP3    H236380   5.271   5.843  15.808  0.2857  1.2825  0.2559
 4989TIP3   OH236381   0.980   2.408   0.679  0.3096 -0.1552  0.2354
 4989TIP3    H136382   0.976   2.339   0.745 -0.0899  1.9517  2.5883
 4989TIP3    H236383   1.073   2.417   0.659  0.4930 -0.5084  0.8961
 4990TIP3   OH236384   5.564   2.743  16.475  0.0282  0.1873  0.3274
 4990TIP3    H136385   5.643   2.748  16.529  0.1064  1.1670  0.1405
 4990TIP3    H236386   5.517   2.667  16.509 -0.5402  1.4732  2.6368
 4991TIP3   OH236387   3.949   2.575   5.488 -0.5978  0.9281 -0.1628
 4991TIP3    H136388   3.980   2.555   5.576 -2.5526  1.6021  0.7301
 4991TIP3    H236389   3.985   2.661   5.469  1.4741 -0.0216 -0.9005
 4992TIP3   OH236390   2.856   2.541  11.711  0.3404 -0.2329  0.3785
 4992TIP3    H136391   2.857   2.469  11.773  0.8035  0.1276  0.7940
 4992TIP3    H236392   2.927   2.599  11.739  0.4072  0.0514 -0.3462
 4993TIP3   OH236393   2.710   0.192  11.431 -0.7395  0.0660 -0.1077
 4993TIP3    H136394   2.769   0.140  11.485  0.5111  1.9572  0.4822
 4993TIP3    H236395   2.747   0.187  11.343 -1.5414 -1.2814 -0.3865
 4994TIP3   OH236396   3.848   5.661   4.851 -0.5870 -0.3078 -0.4822
 4994TIP3    H136397   3.897   5.671   4.933 -0.0774  0.1843 -0.8378
 4994TIP3    H236398   3.910   5.620   4.791 -0.1918  1.4023 -1.2970
 4995TIP3   OH236399   5.837   0.329  11.350  0.2098 -0.2007  0.5569
 4995TIP3    H136400   5.918   0.282  11.368  0.4037  0.1319  0.5576
 4995TIP3    H236401   5.791   0.274  11.287  1.4524  0.6879 -1.1806
 4996TIP3   OH236402   5.461   4.063  15.253  0.2580  0.3854  0.1047
 4996TIP3    H136403   5.453   4.158  15.262  0.0606  0.3896 -0.0934
 4996TIP3    H236404   5.432   4.045  15.163  2.2453  0.3716 -0.5892
 4997TIP3   OH236405   5.837   2.596   4.513 -0.0048  0.3199  0.2871
 4997TIP3    H136406   5.929   2.572   4.525  0.7332  3.6815  2.9257
 4997TIP3    H236407   5.831   2.623   4.421  1.0961 -1.7760 -0.4440
 4998TIP3   OH236408   0.001   1.870   4.871 -0.0688  0.1526  0.3980
 4998TIP3    H136409   0.046   1.902   4.950 -0.0147  0.0172  0.4212
 4998TIP3    H236410   0.056   1.799   4.839  1.3266  1.8824 -1.2564
 4999TIP3   OH236411   2.178   2.815  12.685  0.1114  0.7211  0.2291
 4999TIP3    H136412   2.144   2.891  12.638  0.4572 -0.0677 -1.3538
 4999TIP3    H236413   2.130   2.741  12.649  1.7603 -0.1335 -0.3244
 5000TIP3   OH236414   5.509   6.439   3.574  0.0847 -0.1261  0.2650
 5000TIP3    H136415   5.459   6.395   3.505 -0.1533 -0.3374  0.5685
 5000TIP3    H236416   5.443   6.465   3.638  0.3835 -0.5352  0.7429
 5001TIP3   OH236417   5.439   2.171  13.450 -0.6686  0.0427  0.0675
 5001TIP3    H136418   5.398   2.217  13.522  0.7952  0.8443  0.4292
 5001TIP3    H236419   5.460   2.239  13.386 -0.3709 -0.4127 -0.3332
 5002TIP3   OH236420   4.460   6.301   4.455 -0.2223  0.5950 -0.9529
 5002TIP3    H136421   4.492   6.211   4.449  0.8668  0.6409  2.2335
 5002TIP3    H236422   4.534   6.355   4.426  0.6112  0.5054  0.8487
 5003TIP3   OH236423   6.002   2.529  15.592 -0.3276  0.3164 -0.5820
 5003TIP3    H136424   5.927   2.571  15.549 -1.2472  0.8522  1.4550
 5003TIP3    H236425   6.004   2.566  15.680  3.0832  1.2145 -0.9082
 5004TIP3   OH236426   2.313   3.757   5.031 -0.0016  0.0538 -0.0077
 5004TIP3    H136427   2.242   3.801   4.986 -1.0411 -1.1020  0.4259
 5004TIP3    H236428   2.269   3.701   5.095  1.2522 -1.2856 -0.2661
 5005TIP3   OH236429   4.359   2.251  15.559  0.6672 -0.3873  0.2152
 5005TIP3    H136430   4.416   2.303  15.616 -2.3626  1.2961  1.9674
 5005TIP3    H236431   4.303   2.203  15.619 -0.1610 -1.5449 -1.4056
 5006TIP3   OH236432   0.948   3.056  15.794  0.1891  0.5052  0.0546
 5006TIP3    H136433   0.859   3.034  15.821  0.1985 -0.1663 -0.4359
 5006TIP3    H236434   0.974   2.985  15.735  0.7661  1.0927 -0.4152
 5007TIP3   OH236435   5.679   6.022  13.282 -0.1232  0.1975  0.4654
 5007TIP3    H136436   5.704   5.985  13.197 -0.4216 -0.6737  0.7465
 5007TIP3    H236437   5.675   6.116  13.267 -1.0202 -0.0037 -0.7287
 5008TIP3   OH236438   5.742   3.682   2.981 -0.0651 -0.7104  0.1254
 5008TIP3    H136439   5.691   3.643   3.051 -2.3388  0.4463 -0.7913
 5008TIP3    H236440   5.807   3.737   3.026  0.5684 -2.3494  1.3153
 5009TIP3   OH236441   0.603   2.663   4.380 -0.4660 -0.2814  0.6201
 5009TIP3    H136442   0.576   2.754   4.373  3.4470  0.8882 -1.6954
 5009TIP3    H236443   0.659   2.661   4.458  2.0666  0.1768 -1.0995
 5010TIP3   OH236444   2.672   5.644  15.262 -0.0457  0.3366  0.3047
 5010TIP3    H136445   2.741   5.628  15.198 -1.1630 -1.0457 -0.6213
 5010TIP3    H236446   2.698   5.593  15.339 -0.5424 -1.0975 -0.4408
 5011TIP3   OH236447   0.438   1.028   4.007  0.1529  0.1130  0.2241
 5011TIP3    H136448   0.349   1.053   3.983 -0.0730  0.6595  1.5547
 5011TIP3    H236449   0.493   1.068   3.939 -0.6595 -1.2139 -1.2843
 5012TIP3   OH236450   5.749   5.350   4.018 -0.0957  0.3736  0.2101
 5012TIP3    H136451   5.756   5.421   4.082  2.5439  0.2482  0.1763
 5012TIP3    H236452   5.753   5.270   4.070  2.1081  0.2704 -0.0193
 5013TIP3   OH236453   1.035   1.734   2.549 -0.7165  0.0338  0.0420
 5013TIP3    H136454   1.073   1.772   2.628 -0.2471  0.5729 -0.4322
 5013TIP3    H236455   1.090   1.659   2.528 -0.7692 -0.0371  0.1584
 5014TIP3   OH236456   1.137   2.007   4.471 -0.2468 -0.0990 -0.4227
 5014TIP3    H136457   1.094   2.004   4.557  2.1351  0.4246  0.8641
 5014TIP3    H236458   1.171   1.919   4.459 -0.1685 -0.0402 -0.6314
 5015TIP3   OH236459   0.721   3.492   1.544  0.1145 -0.9484  0.1267
 5015TIP3    H136460   0.641   3.444   1.525 -0.7688 -0.8026  3.0064
 5015TIP3    H236461   0.791   3.429   1.531 -0.8788 -2.5368  2.0508
 5016TIP3   OH236462   6.185   4.399   3.055 -0.1895  0.0677  0.1058
 5016TIP3    H136463   6.150   4.454   3.126 -0.6452  0.4186 -0.3770
 5016TIP3    H236464   6.153   4.442   2.975  1.2563  0.3309 -0.3527
 5017TIP3   OH236465   3.999   6.474  12.039  0.3413  0.0017  0.3605
 5017TIP3    H136466   4.091   6.465  12.061  0.2853 -0.1822  0.5199
 5017TIP3    H236467   3.971   6.552  12.087  0.7332  0.8342 -0.7260
 5018TIP3   OH236468   6.637   3.843  11.279 -0.6719  0.1721 -0.3110
 5018TIP3    H136469   6.678   3.878  11.358 -1.7257  1.1465 -0.1606
 5018TIP3    H236470   6.645   3.915  11.215 -1.9796  0.3315 -0.3156
 5019TIP3   OH236471   4.458   0.190  14.143 -0.0211 -0.4440 -0.6141
 5019TIP3    H136472   4.371   0.176  14.106 -0.7141  0.7895  0.4560
 5019TIP3    H236473   4.483   0.104  14.178 -2.2439 -0.1897  1.9377
 5020TIP3   OH236474   5.659   5.517   5.578  0.4863 -0.0364 -0.2309
 5020TIP3    H136475   5.658   5.528   5.483 -1.7238  1.5648 -0.0942
 5020TIP3    H236476   5.633   5.425   5.591  1.2802 -0.4119 -1.1483
 5021TIP3   OH236477   6.060   5.210  13.603 -0.3908  0.5600  0.0721
 5021TIP3    H136478   6.044   5.146  13.672 -2.5588  0.4819 -0.4276
 5021TIP3    H236479   6.096   5.286  13.648  0.8690 -0.4826  0.8701
 5022TIP3   OH236480   2.931   4.625   3.764 -0.0101 -0.2999  0.6912
 5022TIP3    H136481   2.993   4.697   3.755  0.5871 -0.9094 -0.2170
 5022TIP3    H236482   2.877   4.629   3.685  0.5474 -1.3159  0.2388
 5023TIP3   OH236483   3.644   5.820  16.745 -0.4098 -0.3761  1.2443
 5023TIP3    H136484   3.548   5.820  16.749 -0.5115 -0.4959 -0.3324
 5023TIP3    H236485   3.665   5.749  16.685  0.4776  1.5494 -0.8979
 5024TIP3   OH236486   4.120   3.893   5.967  0.3997 -0.4413 -0.5092
 5024TIP3    H136487   4.057   3.924   6.031 -0.0357 -0.8912 -0.7060
 5024TIP3    H236488   4.196   3.866   6.018 -0.8238 -3.0397  0.0957
 5025TIP3   OH236489   5.553   6.102   1.356 -0.5369  0.4810  0.1689
 5025TIP3    H136490   5.512   6.189   1.352 -0.4745  0.5096  0.1264
 5025TIP3    H236491   5.516   6.055   1.282 -0.6311  0.4449  0.2406
 5026TIP3   OH236492   4.901   1.854   1.086  0.2626 -0.4711  0.9489
 5026TIP3    H136493   4.880   1.880   1.175  0.9825  0.0920  0.9623
 5026TIP3    H236494   4.959   1.922   1.054  1.3290 -1.5057  0.6125
 5027TIP3   OH236495   4.414   2.733  14.911  0.1112 -0.2686  0.6672
 5027TIP3    H136496   4.508   2.747  14.925  0.3460 -0.4930 -0.6189
 5027TIP3    H236497   4.373   2.810  14.952  0.9960  0.9284 -0.5865
 5028TIP3   OH236498   4.268   2.352  13.517  0.1708 -0.4388 -0.2420
 5028TIP3    H136499   4.315   2.375  13.598  1.7898  1.1138 -1.5464
 5028TIP3    H236500   4.248   2.259  13.527  3.6239 -1.2491  0.4109
 5029TIP3   OH236501   6.318   2.151  15.919 -0.3932 -0.0290  0.0175
 5029TIP3    H136502   6.322   2.243  15.946 -2.8334  0.0165  0.4358
 5029TIP3    H236503   6.378   2.145  15.845  1.4026  1.3934  1.2749
 5030TIP3   OH236504   6.776   5.212  12.314 -0.3070 -0.5331  0.2314
 5030TIP3    H136505   6.706   5.203  12.249 -0.1800  1.3889 -0.2453
 5030TIP3    H236506   6.831   5.283  12.280  1.9134 -1.9696  0.5777
 5031TIP3   OH236507   4.101   4.079   5.152  0.1030 -0.0391  0.0757
 5031TIP3    H136508   4.076   4.048   5.065 -0.9399 -0.3906  0.4792
 5031TIP3    H236509   4.023   4.064   5.206  0.6353  0.4334  1.0063
 5032TIP3   OH236510   0.553   6.666   2.938 -0.1377 -0.0474 -0.1286
 5032TIP3    H136511   0.598   6.648   3.021 -2.4539 -0.9636  1.0090
 5032TIP3    H236512   0.521   6.755   2.948 -0.9296 -0.3640  0.2425
 5033TIP3   OH236513   0.169   3.273   1.069  0.2043 -0.7578 -0.4574
 5033TIP3    H136514   0.140   3.259   0.979  0.6769 -0.1273 -0.7079
 5033TIP3    H236515   0.099   3.326   1.108 -0.5722 -1.9804 -0.0994
 5034TIP3   OH236516   5.065   5.411   1.989  0.6048 -0.4110  0.0558
 5034TIP3    H136517   5.148   5.458   1.986 -0.3236  1.2952 -0.3086
 5034TIP3    H236518   5.045   5.391   1.897  0.2082 -0.0592  0.0629
 5035TIP3   OH236519   1.068   3.322  11.060 -0.8223  0.4164 -0.4560
 5035TIP3    H136520   1.146   3.274  11.036 -0.2220  1.5472 -0.8405
 5035TIP3    H236521   1.040   3.366  10.980 -1.0860  1.0680 -0.0236
 5036TIP3   OH236522   1.422   4.847  14.204 -0.0141 -0.4955 -0.9855
 5036TIP3    H136523   1.371   4.782  14.251  1.7035 -1.0115  0.2590
 5036TIP3    H236524   1.390   4.931  14.236 -0.0055 -0.8148 -0.1265
 5037TIP3   OH236525   6.467   3.215  14.771 -0.2631 -0.3842  0.2510
 5037TIP3    H136526   6.537   3.279  14.786 -0.1050 -0.4185 -0.3324
 5037TIP3    H236527   6.486   3.144  14.832 -1.2267  0.7176  1.9317
 5038TIP3   OH236528   2.325   1.992   1.000 -0.5102  0.2469 -0.1444
 5038TIP3    H136529   2.363   1.911   1.035  1.0583  1.6228  1.4712
 5038TIP3    H236530   2.284   2.034   1.076 -0.6475  1.3320 -0.8009
 5039TIP3   OH236531   2.610   0.774  15.571 -0.5913  0.2299  0.0635
 5039TIP3    H136532   2.525   0.805  15.539 -0.1661  0.7791 -0.5541
 5039TIP3    H236533   2.673   0.803  15.505  0.0287 -0.5444  0.2971
 5040TIP3   OH236534   0.039   2.222  11.209  0.3636  0.1055  0.3432
 5040TIP3    H136535   0.046   2.127  11.221 -0.5250  0.3055  3.3724
 5040TIP3    H236536  -0.038   2.247  11.261  0.4033  2.4732 -0.6101
 5041TIP3   OH236537   5.828   6.138   5.334  0.1090  0.0608  0.2667
 5041TIP3    H136538   5.855   6.049   5.312 -0.0334  0.2202 -0.5872
 5041TIP3    H236539   5.910   6.184   5.351  0.3239  0.2394 -1.1450
 5042TIP3   OH236540   4.367   6.721  16.232  0.1371 -0.1922 -0.2366
 5042TIP3    H136541   4.347   6.649  16.292 -0.6701  1.6214  1.8001
 5042TIP3    H236542   4.376   6.798  16.289  0.3704  1.4472 -2.3743
 5043TIP3   OH236543   1.866   0.090   1.503  0.4501  0.0985  0.2658
 5043TIP3    H136544   1.950   0.044   1.500  0.4639 -0.5771  4.5762
 5043TIP3    H236545   1.801   0.020   1.498  0.2465  0.3219 -0.1912
 5044TIP3   OH236546   5.355   6.421   1.564  0.0430 -0.1652 -0.3172
 5044TIP3    H136547   5.398   6.403   1.480 -0.4656  1.5012 -0.9719
 5044TIP3    H236548   5.428   6.444   1.623  0.3921 -1.2453 -0.3086
 5045TIP3   OH236549   5.688   1.220  12.673  0.1020  0.1153  0.3364
 5045TIP3    H136550   5.774   1.259  12.691  0.7582 -0.5845 -1.1039
 5045TIP3    H236551   5.687   1.140  12.725  1.2998 -1.0480 -1.3352
 5046TIP3   OH236552   6.532   3.894   0.882  0.6073 -0.1969  0.1058
 5046TIP3    H136553   6.608   3.847   0.848  0.0215  0.0833 -1.7224
 5046TIP3    H236554   6.512   3.851   0.964  2.5130 -0.5139  0.4574
 5047TIP3   OH236555   5.763   0.682   1.488  0.0442 -0.0987 -0.2063
 5047TIP3    H136556   5.708   0.605   1.503  0.1432 -0.1488 -0.1008
 5047TIP3    H236557   5.818   0.658   1.413 -0.1161 -0.0276 -0.3475
 5048TIP3   OH236558   6.181   3.737   1.138 -0.1872 -0.0361  0.0827
 5048TIP3    H136559   6.139   3.742   1.224 -0.6835  2.3761 -0.2068
 5048TIP3    H236560   6.168   3.647   1.110 -0.5027 -0.7414  2.2784
 5049TIP3   OH236561   2.856   4.739  16.740  0.3153  0.5841 -0.1749
 5049TIP3    H136562   2.908   4.818  16.728  0.9627  0.1488 -0.2506
 5049TIP3    H236563   2.835   4.737  16.834  0.1830  0.9114 -0.1972
 5050TIP3   OH236564   2.335   0.958   4.873  0.3319 -0.2170 -0.3234
 5050TIP3    H136565   2.306   0.905   4.948 -0.3013 -0.4782 -0.7419
 5050TIP3    H236566   2.292   0.918   4.797  2.1510 -0.8684 -1.0474
 5051TIP3   OH236567   4.200   1.177   1.155  0.8697  0.2312 -0.0241
 5051TIP3    H136568   4.232   1.136   1.074  2.1206 -1.1556  1.1124
 5051TIP3    H236569   4.224   1.269   1.147  1.5102 -0.0108 -0.9712
 5052TIP3   OH236570   4.641   6.515  10.933 -0.6655  0.2272 -0.2656
 5052TIP3    H136571   4.577   6.583  10.952 -0.4672  0.3605 -0.0646
 5052TIP3    H236572   4.619   6.484  10.845 -0.9016  0.3863 -0.2618
 5053TIP3   OH236573   5.822   0.083   5.505 -0.1572  0.3897 -0.6240
 5053TIP3    H136574   5.735   0.069   5.468 -0.0421  0.9594 -1.1147
 5053TIP3    H236575   5.823   0.029   5.584  0.4544 -2.8696 -2.6560
 5054TIP3   OH236576   5.096   0.159   1.258 -0.1955  0.2921  0.0183
 5054TIP3    H136577   5.108   0.227   1.192  0.6255  0.0399 -0.1105
 5054TIP3    H236578   5.043   0.093   1.214  1.2535 -0.3830 -0.8012
 5055TIP3   OH236579   6.402   0.232   3.270 -0.2762  0.1086 -0.0146
 5055TIP3    H136580   6.349   0.269   3.340  0.4285 -1.5550  1.4825
 5055TIP3    H236581   6.491   0.234   3.304 -0.1019 -2.0606 -0.1956
 5056TIP3   OH236582   5.044   0.661   3.552 -0.1420  0.3341  0.0068
 5056TIP3    H136583   5.099   0.739   3.546 -0.4236  0.4839 -0.6717
 5056TIP3    H236584   5.068   0.608   3.476 -2.7427  1.5935 -1.8564
 5057TIP3   OH236585   6.761   1.982  12.031  0.7983 -0.1060 -0.8428
 5057TIP3    H136586   6.799   2.008  11.947  1.2409 -0.1855 -0.6693
 5057TIP3    H236587   6.831   1.936  12.076  0.9665  1.0232  0.0912
 5058TIP3   OH236588   0.012   6.188   1.744  0.1423  0.4729 -0.1660
 5058TIP3    H136589   0.005   6.209   1.837  0.0601 -0.7244  0.1127
 5058TIP3    H236590  -0.074   6.156   1.720  0.6257 -0.8420 -0.2224
 5059TIP3   OH236591   4.508   2.133   3.982  0.6637  0.3686 -0.2087
 5059TIP3    H136592   4.467   2.211   4.018  2.0025  0.6673  0.7566
 5059TIP3    H236593   4.495   2.139   3.887 -0.4302  1.0507 -0.0200
 5060TIP3   OH236594   4.067   4.202  12.989 -0.1089  0.0952  0.1223
 5060TIP3    H136595   3.972   4.196  12.997  0.0170 -0.1904  2.1122
 5060TIP3    H236596   4.083   4.286  12.947 -1.2553 -0.6004 -1.7854
 5061TIP3   OH236597   5.179   6.296  11.354  0.0764 -0.6176  0.1369
 5061TIP3    H136598   5.119   6.315  11.426 -0.8629 -0.2401 -0.7281
 5061TIP3    H236599   5.258   6.262  11.397  0.0317  0.8276  1.4239
 5062TIP3   OH236600   1.715   4.037  12.919  0.2298  0.2198  0.0976
 5062TIP3    H136601   1.674   4.102  12.977 -1.4514  0.4325 -1.2649
 5062TIP3    H236602   1.674   3.954  12.943 -0.6358  0.3450 -0.9130
 5063TIP3   OH236603   0.381   1.362  11.257  0.0205  0.0954 -0.1638
 5063TIP3    H136604   0.463   1.388  11.300  0.1365 -0.3328 -0.1277
 5063TIP3    H236605   0.385   1.404  11.171  0.5257 -0.3579 -0.3690
 5064TIP3   OH236606   3.448   3.612   3.552  0.0539  0.1393  0.1482
 5064TIP3    H136607   3.398   3.692   3.566  3.3347  2.2468  0.7449
 5064TIP3    H236608   3.499   3.601   3.632  1.0982 -1.4789 -0.6752
 5065TIP3   OH236609   4.377   4.281   4.631 -0.1375  0.1212 -0.1052
 5065TIP3    H136610   4.334   4.197   4.646 -2.7757  1.3077 -0.5494
 5065TIP3    H236611   4.362   4.300   4.539 -1.0491  1.8382  0.3738
 5066TIP3   OH236612   0.877   5.554   2.549  0.2106 -0.0591 -0.0790
 5066TIP3    H136613   0.859   5.648   2.561 -0.2129 -0.1195 -0.2459
 5066TIP3    H236614   0.953   5.538   2.605 -0.8891 -0.0325  1.5109
 5067TIP3   OH236615   1.983   6.229  11.594 -0.0685 -0.8290 -0.4402
 5067TIP3    H136616   1.930   6.235  11.514 -0.2496  0.4753 -0.2404
 5067TIP3    H236617   1.920   6.237  11.665  0.3584  0.6046 -0.1983
 5068TIP3   OH236618   3.329   4.556   2.427  0.5028  0.1751  0.1174
 5068TIP3    H136619   3.335   4.519   2.338  0.5786  1.1058 -0.2773
 5068TIP3    H236620   3.416   4.542   2.464  0.0478 -1.5919  0.6292
 5069TIP3   OH236621   4.790   0.152   3.006 -0.2232 -0.3968  0.4496
 5069TIP3    H136622   4.867   0.109   3.042 -0.1332 -1.1940 -0.6101
 5069TIP3    H236623   4.800   0.142   2.911 -0.2697  1.8905  0.1360
 5070TIP3   OH236624   2.582   3.797  14.572 -0.5592  0.2602 -0.7676
 5070TIP3    H136625   2.650   3.831  14.514 -1.4171 -0.1589 -2.0941
 5070TIP3    H236626   2.582   3.702  14.555  1.2503 -0.3810  2.2479
 5071TIP3   OH236627   2.749   4.171   2.212  0.6120  0.8710 -0.4754
 5071TIP3    H136628   2.683   4.231   2.248  1.2584  1.5086 -0.3323
 5071TIP3    H236629   2.797   4.224   2.148  1.4488  0.6238 -0.0618
 5072TIP3   OH236630   3.221   0.142  14.297  0.0435 -0.1439  0.5595
 5072TIP3    H136631   3.184   0.092  14.224  1.1933  0.3532 -0.3997
 5072TIP3    H236632   3.300   0.095  14.322  0.5212  0.5671  0.4073
 5073TIP3   OH236633   3.548   0.869  11.494 -0.2997 -0.2022 -0.4482
 5073TIP3    H136634   3.509   0.935  11.437 -0.2010  0.2407 -0.0130
 5073TIP3    H236635   3.536   0.904  11.583  1.3843  0.1161 -0.3171
 5074TIP3   OH236636   4.172   4.415  16.248  0.3269 -0.0244 -0.2585
 5074TIP3    H136637   4.177   4.366  16.166 -2.3557  1.0056 -1.1800
 5074TIP3    H236638   4.118   4.360  16.305  3.1349 -1.2908  1.3919
 5075TIP3   OH236639   2.179   3.699   0.102  0.2168  0.1772 -0.3184
 5075TIP3    H136640   2.230   3.779   0.086  4.7714 -2.4508 -0.5183
 5075TIP3    H236641   2.207   3.638   0.034 -2.0021 -2.1116  0.6600
 5076TIP3   OH236642   2.297   6.490   5.448 -0.3445 -0.1063 -0.2753
 5076TIP3    H136643   2.300   6.425   5.377 -2.4688 -0.2621 -0.2604
 5076TIP3    H236644   2.385   6.488   5.485  0.5575 -0.7170 -2.2814
 5077TIP3   OH236645   2.537   0.014  11.975  0.2947 -0.1039 -0.2079
 5077TIP3    H136646   2.628   0.042  11.976  0.6454 -0.9269 -2.2112
 5077TIP3    H236647   2.541  -0.080  11.958 -0.9105 -0.7322  2.5022
 5078TIP3   OH236648   6.661   1.295   5.112 -0.0909  0.2151  0.5008
 5078TIP3    H136649   6.654   1.223   5.174 -0.3472 -0.8673 -0.7462
 5078TIP3    H236650   6.738   1.344   5.141  1.0256 -1.4561  0.4896
 5079TIP3   OH236651   6.483   1.393   1.050 -0.0207  0.0637 -0.2086
 5079TIP3    H136652   6.522   1.396   0.963  0.1036 -0.2952 -0.1692
 5079TIP3    H236653   6.416   1.461   1.049 -0.3210 -0.2331 -0.7358
 5080TIP3   OH236654   5.555   6.338  13.933 -0.1363  0.4147 -0.0025
 5080TIP3    H136655   5.584   6.248  13.948  0.0414  0.5787  0.6570
 5080TIP3    H236656   5.470   6.343  13.977 -0.7046  0.2330 -1.0534
 5081TIP3   OH236657   6.696   4.638  15.108 -0.1941  0.1631  0.0822
 5081TIP3    H136658   6.709   4.584  15.030  0.8462 -0.4848  0.6834
 5081TIP3    H236659   6.639   4.584  15.164  0.3556 -0.0698  0.4282
 5082TIP3   OH236660   2.525   4.077   5.407  0.6007  0.4389  0.1698
 5082TIP3    H136661   2.476   4.056   5.327  1.2803 -1.1386  0.1192
 5082TIP3    H236662   2.457   4.089   5.474  0.0696 -0.7041 -0.1231
 5083TIP3   OH236663   3.714   1.941   5.251  0.1381  0.3943 -0.0163
 5083TIP3    H136664   3.683   2.024   5.215  1.2582  0.6055 -0.5277
 5083TIP3    H236665   3.750   1.893   5.177  1.3751  0.3274  0.5960
 5084TIP3   OH236666   5.364   1.405  12.137 -0.1208  0.4934  0.2248
 5084TIP3    H136667   5.286   1.355  12.113 -0.1780  0.8636 -0.3841
 5084TIP3    H236668   5.339   1.451  12.217 -1.0455  1.7323 -0.7287
 5085TIP3   OH236669   4.707   0.776  12.617 -0.4791  0.5834 -0.1860
 5085TIP3    H136670   4.695   0.845  12.683 -3.6349  1.3562 -1.3790
 5085TIP3    H236671   4.696   0.821  12.533 -1.4987 -1.1288 -1.0302
 5086TIP3   OH236672   6.086   6.029  14.552 -0.7050 -0.5041  0.7745
 5086TIP3    H136673   6.162   6.010  14.608 -0.9418 -1.0108  0.9275
 5086TIP3    H236674   6.096   5.970  14.477  0.3342  1.1103 -0.4067
 5087TIP3   OH236675   2.662   2.697   1.683 -0.2811 -0.9674  0.5799
 5087TIP3    H136676   2.683   2.791   1.688  0.8724 -1.2137  0.6014
 5087TIP3    H236677   2.584   2.687   1.737 -1.7112  0.3302 -1.1018
 5088TIP3   OH236678   5.922   0.288  12.895  0.5018  0.1632  0.0891
 5088TIP3    H136679   5.976   0.223  12.940 -0.3719  0.2094  1.2643
 5088TIP3    H236680   5.855   0.237  12.851 -1.1167  0.2504  2.2669
 5089TIP3   OH236681   5.928   4.076   0.715  0.1851 -0.2600  0.1755
 5089TIP3    H136682   5.930   4.156   0.767 -3.8828  0.0096  0.2715
 5089TIP3    H236683   5.882   4.013   0.770 -1.1184 -1.0508 -1.7119
 5090TIP3   OH236684   4.288   1.077   5.405 -0.3021  0.2693 -0.1518
 5090TIP3    H136685   4.242   1.158   5.425  0.3582  0.7496 -0.5133
 5090TIP3    H236686   4.234   1.033   5.340  0.0544  1.1386 -1.0640
 5091TIP3   OH236687   0.899   5.400  15.585 -0.0600  0.3903  0.0124
 5091TIP3    H136688   0.990   5.376  15.571 -0.3792 -1.4013  0.7433
 5091TIP3    H236689   0.860   5.398  15.498  0.5871  1.2098 -0.3115
 5092TIP3   OH236690   4.534   2.509  10.629  0.1172 -0.6665 -0.0595
 5092TIP3    H136691   4.494   2.501  10.716  1.1232  1.0673  0.6152
 5092TIP3    H236692   4.485   2.579  10.587 -1.1789 -2.3163 -1.4279
 5093TIP3   OH236693   1.959   1.167  11.665 -0.0949 -0.6390 -0.0181
 5093TIP3    H136694   1.995   1.144  11.751  0.7897  0.2132 -0.1553
 5093TIP3    H236695   2.034   1.164  11.606 -0.3344  0.6660 -0.4039
 5094TIP3   OH236696   3.247   6.745  11.192 -0.6862  0.1823  0.7170
 5094TIP3    H136697   3.207   6.832  11.187 -0.1348  0.4931  1.4837
 5094TIP3    H236698   3.178   6.685  11.167 -0.4131  0.9827 -2.3416
 5095TIP3   OH236699   4.679   2.736  13.411 -0.3629 -0.2165  0.3998
 5095TIP3    H136700   4.767   2.773  13.406 -0.5699  0.1334 -1.3218
 5095TIP3    H236701   4.678   2.687  13.493  0.7383  1.4921  1.5047
 5096TIP3   OH236702   6.647   0.340   3.889  0.4557  0.4495  0.3948
 5096TIP3    H136703   6.736   0.345   3.855  1.2796 -0.1529  2.2971
 5096TIP3    H236704   6.624   0.247   3.880  0.2251  0.5055  0.4030
 5097TIP3   OH236705   3.096   1.139  11.056  0.1288  0.0403  0.0661
 5097TIP3    H136706   3.149   1.078  11.106 -0.1212  0.8020  1.3203
 5097TIP3    H236707   3.096   1.105  10.967  3.2570  0.3665 -0.1505
 5098TIP3   OH236708   4.752   0.139   1.795 -0.2512 -0.4515  0.2490
 5098TIP3    H136709   4.742   0.090   1.876  1.4492 -0.7103  0.3365
 5098TIP3    H236710   4.846   0.155   1.788 -0.4320  0.0822 -1.3674
 5099TIP3   OH236711   2.495   2.486   1.080  0.8985 -0.4317  0.1703
 5099TIP3    H136712   2.539   2.422   1.024  0.8774 -0.6188  0.3649
 5099TIP3    H236713   2.566   2.538   1.117  0.8327  0.8712 -1.4127
 5100TIP3   OH236714   4.210   6.697   1.987 -0.2277 -0.6819  0.0300
 5100TIP3    H136715   4.299   6.682   1.957 -0.5974 -0.7239 -1.1215
 5100TIP3    H236716   4.203   6.650   2.069  1.2878  0.6604  0.9890
 5101TIP3   OH236717   3.850   4.427   3.255 -0.0910 -0.3388  0.6593
 5101TIP3    H136718   3.755   4.422   3.243 -0.1503 -0.1108  1.0308
 5101TIP3    H236719   3.885   4.415   3.167 -0.5085  0.6359  0.3431
 5102TIP3   OH236720   6.739   3.954   2.962 -0.4123 -0.0979  0.1673
 5102TIP3    H136721   6.744   3.912   2.877 -0.3633  0.5874 -0.1769
 5102TIP3    H236722   6.776   3.890   3.023  1.7345  0.2745 -0.6479
 5103TIP3   OH236723   0.326   2.220   5.570  0.4138 -0.0396 -0.1481
 5103TIP3    H136724   0.258   2.214   5.503  1.9927  2.2861 -2.1167
 5103TIP3    H236725   0.330   2.313   5.592  1.4788 -0.4441  1.5450
 5104TIP3   OH236726   3.560   1.795  11.538  0.2328 -0.4000  0.4253
 5104TIP3    H136727   3.577   1.751  11.455  0.3434 -3.3657  1.8927
 5104TIP3    H236728   3.465   1.808  11.539 -0.0030 -2.0297  0.5835
 5105TIP3   OH236729   2.242   4.440  12.667  0.3783 -0.1159  0.3637
 5105TIP3    H136730   2.239   4.506  12.737 -1.1825  0.9634 -0.6373
 5105TIP3    H236731   2.189   4.368  12.701  1.5639 -0.6115  1.2123
 5106TIP3   OH236732   4.526   2.260   2.605  0.5692  0.2286  0.2074
 5106TIP3    H136733   4.615   2.281   2.575 -0.3032  2.6602 -0.8863
 5106TIP3    H236734   4.473   2.262   2.526 -1.0282  2.3744  1.2436
 5107TIP3   OH236735   2.278   0.010  12.112 -0.1188 -0.2620  0.0588
 5107TIP3    H136736   2.276   0.093  12.160  1.9092 -1.3909  2.3636
 5107TIP3    H236737   2.361   0.011  12.066 -0.0884 -0.9862  0.0898
 5108TIP3   OH236738   4.630   0.877   1.575  0.6681 -0.2314  0.1143
 5108TIP3    H136739   4.578   0.816   1.523  0.1857 -1.1917  1.6441
 5108TIP3    H236740   4.576   0.956   1.582 -0.2796 -0.9263  1.0093
 5109TIP3   OH236741   2.465   5.471   4.676  0.1141  0.2265  0.6749
 5109TIP3    H136742   2.526   5.397   4.666 -1.4459 -1.2909  1.8587
 5109TIP3    H236743   2.451   5.502   4.586  1.2013 -0.5757  0.2006
 5110TIP3   OH236744   5.156   6.739   2.119 -0.0164 -0.8262 -0.9455
 5110TIP3    H136745   5.088   6.806   2.110  1.3029  0.5644 -0.9344
 5110TIP3    H236746   5.178   6.740   2.212  0.6228 -0.6175 -1.0920
 5111TIP3   OH236747   4.873   0.643   1.976 -0.0827  0.5152  0.2437
 5111TIP3    H136748   4.795   0.600   2.011 -0.3400 -0.1942 -1.1092
 5111TIP3    H236749   4.839   0.701   1.908  0.5517  0.1466 -0.4099
 5112TIP3   OH236750   5.370   1.110   0.313 -0.0731 -0.0494  0.2333
 5112TIP3    H136751   5.298   1.053   0.341  0.6648  0.0864  2.5445
 5112TIP3    H236752   5.434   1.050   0.274 -0.6908 -0.3729 -0.3017
 5113TIP3   OH236753   6.112   4.856   2.356  0.5276  0.2382 -0.6132
 5113TIP3    H136754   6.148   4.921   2.295  1.1170 -0.0470 -0.5707
 5113TIP3    H236755   6.018   4.857   2.337  0.7685 -0.3244 -1.9964
 5114TIP3   OH236756   5.636   4.561  10.947 -0.6228 -0.3803 -0.0921
 5114TIP3    H136757   5.667   4.538  11.034 -0.5895  1.7376  0.5088
 5114TIP3    H236758   5.544   4.582  10.959 -1.0064 -1.4803 -0.8811
 5115TIP3   OH236759   5.151   3.969   1.350  0.2411  0.4130  0.2881
 5115TIP3    H136760   5.066   3.930   1.329 -0.3539  1.0983  1.3146
 5115TIP3    H236761   5.202   3.960   1.270 -0.6997 -0.2844 -0.2505
 5116TIP3   OH236762   3.639   2.033  16.310 -0.0090  0.0353 -0.2904
 5116TIP3    H136763   3.638   1.956  16.367  0.0760  0.4204  0.2377
 5116TIP3    H236764   3.591   2.005  16.231  0.4293 -0.7072 -0.3101
 5117TIP3   OH236765   0.433   6.153  11.869  0.3579 -0.4847 -0.1624
 5117TIP3    H136766   0.475   6.230  11.832 -1.9358  1.2402  0.5763
 5117TIP3    H236767   0.411   6.178  11.959 -0.4275 -2.0303  0.1218
 5118TIP3   OH236768   2.871   6.684  11.038 -0.5265  0.0862  0.8986
 5118TIP3    H136769   2.938   6.678  10.969 -1.7675  1.8110 -0.5605
 5118TIP3    H236770   2.908   6.635  11.111  2.3008  0.8761  0.1419
 5119TIP3   OH236771   3.679   1.037  13.437  0.1311 -0.1662  0.4593
 5119TIP3    H136772   3.762   0.993  13.415 -0.2672 -1.0478  0.6743
 5119TIP3    H236773   3.684   1.121  13.391  0.6148 -0.7272 -0.5559
 5120TIP3   OH236774   2.328   2.033   2.404 -0.0087 -0.0505 -0.2799
 5120TIP3    H136775   2.326   2.055   2.498 -0.7763 -2.2979  0.2790
 5120TIP3    H236776   2.237   2.043   2.376  0.3344  1.3237 -1.0224
 5121TIP3   OH236777   3.702   3.851  11.260  0.2774  0.7470 -0.2779
 5121TIP3    H136778   3.688   3.890  11.173  2.9871  2.4291 -0.0682
 5121TIP3    H236779   3.788   3.884  11.288  0.8324 -2.0487  1.8212
 5122TIP3   OH236780   1.659   5.439   2.936 -0.2636  0.3594  0.3408
 5122TIP3    H136781   1.618   5.354   2.920 -0.0101  0.0477  1.2594
 5122TIP3    H236782   1.618   5.471   3.017  0.9713  0.2309  1.0557
 5123TIP3   OH236783   4.368   4.205   0.604  0.0045  0.1373 -0.4550
 5123TIP3    H136784   4.277   4.234   0.595 -0.0437 -0.3394 -1.7370
 5123TIP3    H236785   4.368   4.116   0.569  0.5939 -0.6115  1.3686
 5124TIP3   OH236786   5.609   1.107  14.185 -0.5882  0.1264  0.7503
 5124TIP3    H136787   5.626   1.015  14.164 -2.1438  0.5277 -2.9607
 5124TIP3    H236788   5.687   1.154  14.156 -0.6620  0.1957  0.6640
 5125TIP3   OH236789   6.422   5.735  15.082 -0.2773  0.4916 -0.4196
 5125TIP3    H136790   6.379   5.659  15.042  0.6528 -0.4330  0.2940
 5125TIP3    H236791   6.353   5.802  15.085 -1.4696 -0.7044  0.0195
 5126TIP3   OH236792   4.174   2.919  13.017  0.3475 -0.0937  0.1403
 5126TIP3    H136793   4.162   2.995  12.961  1.1942  0.2615  0.4246
 5126TIP3    H236794   4.229   2.950  13.089  3.4083 -1.6294 -1.3011
 5127TIP3   OH236795   3.375   0.157   5.727 -0.7217 -0.1293 -0.1423
 5127TIP3    H136796   3.309   0.227   5.725 -0.4973  0.1628  1.3950
 5127TIP3    H236797   3.371   0.118   5.639  0.3700  2.9057 -1.7136
 5128TIP3   OH236798   4.247   3.037   4.809  0.0195  0.2901  0.1251
 5128TIP3    H136799   4.227   2.947   4.835 -1.2894  0.5301  0.0005
 5128TIP3    H236800   4.314   3.028   4.742 -1.3526 -0.7274 -1.1789
 5129TIP3   OH236801   3.669   1.182  11.039 -0.1014  0.0400 -0.2684
 5129TIP3    H136802   3.587   1.184  10.990  0.1440 -0.5977 -0.7319
 5129TIP3    H236803   3.685   1.089  11.055  0.5484  0.1532 -0.2232
 5130TIP3   OH236804   3.941   3.517  13.112  0.3946 -0.5572  0.4498
 5130TIP3    H136805   3.864   3.476  13.071  0.1136  0.4962 -0.1074
 5130TIP3    H236806   3.941   3.483  13.201 -0.3528 -1.0729  0.2683
 5131TIP3   OH236807   5.987   0.254   1.308  0.2574 -0.1733  0.1211
 5131TIP3    H136808   5.961   0.193   1.377  0.0193  0.8377  0.9534
 5131TIP3    H236809   6.069   0.293   1.341  0.2641  0.1478 -0.2782
 5132TIP3   OH236810   5.037   1.709   5.910 -0.6541  0.7504 -0.1827
 5132TIP3    H136811   5.067   1.651   5.840  0.5543  0.8286  0.2507
 5132TIP3    H236812   4.946   1.683   5.925 -0.6663  0.1506 -1.1843
 5133TIP3   OH236813   0.533   5.995   3.285 -0.4483  0.0600  0.3105
 5133TIP3    H136814   0.462   5.939   3.316 -0.3620  0.4369  1.2188
 5133TIP3    H236815   0.488   6.073   3.251 -0.4465  0.8885  2.1008
 5134TIP3   OH236816   4.678   2.309  15.112 -0.0340 -0.6720  0.9086
 5134TIP3    H136817   4.596   2.340  15.073 -0.5410 -3.3766 -0.4265
 5134TIP3    H236818   4.669   2.328  15.205 -0.4472  2.5659  0.3040
 5135TIP3   OH236819   5.330   6.342  14.130  0.4567 -0.3105  0.3516
 5135TIP3    H136820   5.348   6.393  14.209  1.7194  0.3917 -0.3514
 5135TIP3    H236821   5.253   6.384  14.091  0.6782  0.2153  0.4759
 5136TIP3   OH236822   2.755   2.621  16.562  0.4965 -0.0888  0.3252
 5136TIP3    H136823   2.758   2.662  16.649  0.5087  1.5971 -0.4287
 5136TIP3    H236824   2.736   2.693  16.503  1.5420 -1.0132 -1.1987
 5137TIP3   OH236825   3.735   4.549  11.450 -0.7739 -0.4046 -0.7424
 5137TIP3    H136826   3.792   4.484  11.408  0.3974 -0.0267  0.2002
 5137TIP3    H236827   3.781   4.573  11.530 -1.4697  1.1476 -0.7735
 5138TIP3   OH236828   5.467   2.600  12.879 -1.0661 -0.3311  0.2402
 5138TIP3    H136829   5.490   2.692  12.887  0.9491 -0.8750  1.5329
 5138TIP3    H236830   5.371   2.599  12.884 -1.0856  1.6073  1.2194
 5139TIP3   OH236831   4.023   0.552   1.001  0.2392  0.4790  0.1228
 5139TIP3    H136832   3.997   0.627   0.947 -0.2927  0.8458  0.8714
 5139TIP3    H236833   4.119   0.554   0.998  0.2228  0.6929 -0.5332
 5140TIP3   OH236834   0.056   3.288   3.218 -0.3139 -0.6558  0.3245
 5140TIP3    H136835   0.061   3.347   3.143  1.8958 -0.5052  0.5351
 5140TIP3    H236836   0.017   3.208   3.182 -0.7299 -0.0487 -0.6126
 5141TIP3   OH236837   1.456   4.614  16.745  0.4683 -1.1623  0.2833
 5141TIP3    H136838   1.365   4.634  16.725  0.1692 -0.2893  2.2339
 5141TIP3    H236839   1.474   4.532  16.698 -1.7436 -2.0642  0.8644
 5142TIP3   OH236840   2.213   3.538   1.946  0.1674  0.6924  0.3205
 5142TIP3    H136841   2.169   3.595   2.010 -1.1048  0.0730  0.0315
 5142TIP3    H236842   2.224   3.593   1.869 -1.0288  0.5836  0.0537
 5143TIP3   OH236843   1.058   3.730  13.371  0.3700 -0.6730  0.3411
 5143TIP3    H136844   1.108   3.759  13.295 -0.7177 -1.5139 -0.7338
 5143TIP3    H236845   1.015   3.810  13.403 -0.5531 -0.6078 -1.0040
 5144TIP3   OH236846   4.552   2.612   3.748 -0.4757  0.2513 -0.1727
 5144TIP3    H136847   4.493   2.634   3.676 -0.2639 -1.5626 -0.9565
 5144TIP3    H236848   4.617   2.555   3.709 -0.5880 -1.1266  1.5385
 5145TIP3   OH236849   0.066   0.874  14.886 -0.2245  0.2241 -0.1067
 5145TIP3    H136850   0.123   0.870  14.963 -0.6613 -0.2408  0.2016
 5145TIP3    H236851   0.073   0.787  14.847 -0.1745  0.3909 -0.4692
 5146TIP3   OH236852   6.271   6.558  13.255 -0.1184  0.2090 -0.6298
 5146TIP3    H136853   6.277   6.564  13.159 -0.0196  1.3765 -0.5647
 5146TIP3    H236854   6.340   6.496  13.279  1.1169  1.3012 -1.1876
 5147TIP3   OH236855   0.174   6.348   3.611  0.0800  0.3204  0.1654
 5147TIP3    H136856   0.092   6.302   3.594 -0.4207  1.8632 -2.0705
 5147TIP3    H236857   0.241   6.292   3.573 -0.2442  0.2954 -0.3776
 5148TIP3   OH236858   5.939   0.128   3.808 -0.5757 -0.2693 -0.3538
 5148TIP3    H136859   6.034   0.116   3.816 -0.6015 -0.1607  0.1465
 5148TIP3    H236860   5.921   0.209   3.855 -0.8536 -0.0192 -0.8818
 5149TIP3   OH236861   4.797   6.493  15.026 -0.2444  0.6863 -0.1602
 5149TIP3    H136862   4.723   6.504  14.966 -0.3707 -2.4892 -0.7724
 5149TIP3    H236863   4.776   6.547  15.101 -2.6997  0.6961 -0.7694
 5150TIP3   OH236864   0.666   4.271  15.044 -0.4256  0.4651  0.3446
 5150TIP3    H136865   0.694   4.243  14.957  1.0054 -1.5528  1.3790
 5150TIP3    H236866   0.606   4.344  15.028  1.1153  1.2692 -2.2360
 5151TIP3   OH236867   3.909   6.332  11.453  0.2306 -0.8102 -0.3364
 5151TIP3    H136868   3.909   6.243  11.416 -0.3799 -0.5637 -0.9758
 5151TIP3    H236869   3.966   6.327  11.529  1.7834 -1.2765 -1.4892
 5152TIP3   OH236870   5.254   3.687  13.516  0.2546 -0.1174 -0.2397
 5152TIP3    H136871   5.176   3.705  13.568 -0.8061 -0.2538 -1.7283
 5152TIP3    H236872   5.230   3.711  13.427  1.1564 -2.1375 -1.1049
 5153TIP3   OH236873   5.073   4.461   6.056 -0.0576  0.4493  0.2157
 5153TIP3    H136874   5.168   4.452   6.051 -0.1930 -1.7448  0.7364
 5153TIP3    H236875   5.039   4.383   6.012 -1.5919  0.6192  1.0367
 5154TIP3   OH236876   2.770   5.495   1.345  0.3729  0.7993  0.0141
 5154TIP3    H136877   2.771   5.496   1.249  1.8285  0.8111  0.0108
 5154TIP3    H236878   2.762   5.588   1.370  2.0899  1.0108 -0.1201
 5155TIP3   OH236879   3.171   3.543   4.310  0.4238  0.4429  0.7633
 5155TIP3    H136880   3.227   3.486   4.362  0.8978  0.2202  0.0321
 5155TIP3    H236881   3.194   3.632   4.337  0.0503  0.3090  1.5364
 5156TIP3   OH236882   3.673   2.121   3.581  0.5867 -0.2358  0.1938
 5156TIP3    H136883   3.715   2.140   3.497  0.3761 -0.4451  0.0397
 5156TIP3    H236884   3.685   2.201   3.633 -0.6413  0.4908 -0.5836
 5157TIP3   OH236885   3.136   0.197  11.252  0.1089  0.4163 -1.0398
 5157TIP3    H136886   3.050   0.232  11.274  0.8845  1.5230  0.3903
 5157TIP3    H236887   3.191   0.274  11.239  1.3564 -0.2495  0.0562
 5158TIP3   OH236888   4.381   6.452  16.669 -0.2910 -0.6092  0.3228
 5158TIP3    H136889   4.450   6.518  16.665 -1.1333  0.3344  0.5651
 5158TIP3    H236890   4.397   6.404  16.750  0.6193 -1.0377 -0.1064
 5159TIP3   OH236891   3.744   4.938   0.340  0.1357 -0.2842 -0.2034
 5159TIP3    H136892   3.826   4.940   0.290 -0.9492  1.2674 -2.1006
 5159TIP3    H236893   3.676   4.956   0.274 -1.5517  0.2490  1.5894
 5160TIP3   OH236894   0.567   4.650  11.982  0.2025 -0.2274 -0.7552
 5160TIP3    H136895   0.633   4.580  11.977 -0.3831 -0.7213 -1.9891
 5160TIP3    H236896   0.538   4.662  11.892 -0.2063  1.1499 -0.4640
 5161TIP3   OH236897   5.188   0.370   5.340 -0.1236  0.1945 -0.2008
 5161TIP3    H136898   5.283   0.378   5.331  0.0731 -1.5155 -0.0926
 5161TIP3    H236899   5.176   0.290   5.392 -1.6610 -1.0505 -2.3038
 5162TIP3   OH236900   3.153   3.577   0.195 -0.6739 -0.0617  0.0145
 5162TIP3    H136901   3.174   3.660   0.237  0.0855  0.1340 -0.7253
 5162TIP3    H236902   3.231   3.523   0.208 -0.2911  0.1221 -1.4260
 5163TIP3   OH236903   0.523   3.317  13.492  0.0403  0.5375 -0.3887
 5163TIP3    H136904   0.520   3.339  13.585 -0.4791 -1.4638  0.1231
 5163TIP3    H236905   0.607   3.352  13.462  1.0046 -0.2087  1.2510
 5164TIP3   OH236906   0.471   3.786  10.569  0.5236  0.3208  0.2097
 5164TIP3    H136907   0.460   3.712  10.629 -2.3864 -1.7013 -2.4750
 5164TIP3    H236908   0.565   3.788  10.550  0.7054 -3.0666  0.1231
 5165TIP3   OH236909   4.952   0.725  17.066 -0.3032 -0.6454  0.2316
 5165TIP3    H136910   5.035   0.718  17.019  0.2944  1.5725  0.8373
 5165TIP3    H236911   4.895   0.659  17.025  1.2873 -1.2109 -1.1683
 5166TIP3   OH236912   1.464   0.058   5.116 -0.4271 -0.2175 -0.0144
 5166TIP3    H136913   1.456  -0.021   5.170 -2.3527 -1.0155 -1.3605
 5166TIP3    H236914   1.478   0.025   5.027  2.0021  1.0610 -0.1946
 5167TIP3   OH236915   4.545   2.842  14.157 -0.7307 -0.6450  0.1164
 5167TIP3    H136916   4.616   2.810  14.100  0.1890  1.7080 -0.1749
 5167TIP3    H236917   4.465   2.809  14.116  0.0832 -1.6249 -0.7494
 5168TIP3   OH236918   6.546   2.726  15.143 -0.3004 -0.5580  0.2735
 5168TIP3    H136919   6.557   2.722  15.238 -0.4379  0.4673  0.3469
 5168TIP3    H236920   6.454   2.748  15.131 -0.3374 -0.9199 -0.1083
 5169TIP3   OH236921   1.400   5.022  12.374  0.2829 -0.2390 -0.4358
 5169TIP3    H136922   1.355   5.106  12.371  1.0171  0.1311 -1.4673
 5169TIP3    H236923   1.333   4.961  12.406 -1.3489  0.0736 -2.9727
 5170TIP3   OH236924   5.692   2.790  15.475 -0.8451 -0.1700 -0.4121
 5170TIP3    H136925   5.679   2.700  15.446  0.3519  0.0416 -1.7357
 5170TIP3    H236926   5.625   2.840  15.429 -0.4043 -0.1536 -1.0461
 5171TIP3   OH236927   4.141   6.654  14.969 -0.3477  0.6840  0.4910
 5171TIP3    H136928   4.167   6.745  14.973 -0.4825  0.8324 -1.3071
 5171TIP3    H236929   4.076   6.650  14.898 -1.6397 -0.5112  1.6573
 5172TIP3   OH236930   5.197   6.630   0.655  0.4057  0.2421  0.2233
 5172TIP3    H136931   5.130   6.574   0.616  0.5284 -1.4239  2.2056
 5172TIP3    H236932   5.266   6.635   0.589  0.3017 -1.8402 -0.0971
 5173TIP3   OH236933   3.146   5.511  12.548 -0.6113 -0.0380 -0.2284
 5173TIP3    H136934   3.194   5.517  12.466 -1.7734 -1.1093 -1.0334
 5173TIP3    H236935   3.170   5.590  12.596 -0.2186  0.8270 -1.7689
 5174TIP3   OH236936   4.569   0.315  12.598 -0.1005  0.0799  0.5019
 5174TIP3    H136937   4.635   0.384  12.588  0.0404 -0.0782  0.3396
 5174TIP3    H236938   4.559   0.304  12.692 -0.4258  0.6131  0.5351
 5175TIP3   OH236939   0.753   1.981   5.347 -0.5261  0.2292  0.6483
 5175TIP3    H136940   0.741   2.065   5.391 -2.1945  1.3889 -1.7706
 5175TIP3    H236941   0.748   2.003   5.253  2.5390 -2.0896 -0.1951
 5176TIP3   OH236942   0.995   4.445  11.103  0.6161 -0.6913 -0.1299
 5176TIP3    H136943   1.025   4.355  11.115  1.6821 -0.3267  0.0243
 5176TIP3    H236944   1.067   4.489  11.059  2.0654  1.1907  3.6953
 5177TIP3   OH236945   0.204   1.749   3.438  0.1035 -0.0638 -0.0652
 5177TIP3    H136946   0.206   1.707   3.352 -0.1791  0.2188 -0.2104
 5177TIP3    H236947   0.118   1.790   3.443  0.7495  1.4164 -0.3652
 5178TIP3   OH236948   0.839   5.295  13.322 -0.2592  0.3977 -0.0264
 5178TIP3    H136949   0.786   5.357  13.372 -0.5167 -0.0144  0.2146
 5178TIP3    H236950   0.776   5.252  13.264 -0.2624 -0.3996  0.5632
 5179TIP3   OH236951   4.606   5.239   2.091 -0.2995 -0.1797 -0.3506
 5179TIP3    H136952   4.678   5.297   2.068 -0.0642 -0.1679  0.3760
 5179TIP3    H236953   4.527   5.290   2.077 -0.0656  0.6344  1.1086
 5180TIP3   OH236954   6.648   4.203   2.968 -0.7049  0.3038 -0.1703
 5180TIP3    H136955   6.573   4.208   3.026  0.2005 -1.3112  1.2199
 5180TIP3    H236956   6.666   4.110   2.959  2.4188  0.6171  1.3068
 5181TIP3   OH236957   2.424   3.124   3.104  0.0556 -0.0494  0.5073
 5181TIP3    H136958   2.370   3.054   3.069 -0.1239  0.3694 -0.0777
 5181TIP3    H236959   2.366   3.172   3.163 -0.4988  0.8790 -0.7184
 5182TIP3   OH236960   3.684   3.325  11.585 -0.4202  0.0180 -0.0285
 5182TIP3    H136961   3.640   3.240  11.576 -0.5600  0.0763  0.1012
 5182TIP3    H236962   3.613   3.389  11.585 -0.3768  0.0797  0.6496
 5183TIP3   OH236963   5.290   2.954   1.365 -0.0595  0.3492 -0.0423
 5183TIP3    H136964   5.343   3.009   1.308  0.4574 -0.3303 -0.2378
 5183TIP3    H236965   5.297   2.866   1.327 -0.5166  0.0668  0.5012
 5184TIP3   OH236966   1.760   1.447   1.720 -0.4469 -0.0079  0.4619
 5184TIP3    H136967   1.767   1.525   1.774  0.5344  0.2235  0.0218
 5184TIP3    H236968   1.827   1.457   1.653 -0.4165 -1.1464  0.2872
 5185TIP3   OH236969   0.987   3.255   6.765  1.0653 -0.1503  0.0159
 5185TIP3    H136970   1.081   3.243   6.745  1.2524 -0.2853  0.9429
 5185TIP3    H236971   0.970   3.191   6.834  0.6590  0.9570  0.9485
 5186TIP3   OH236972   0.545   5.231  12.371  0.1016  0.0619  0.2039
 5186TIP3    H136973   0.631   5.192  12.356  0.0456 -0.0685  0.2224
 5186TIP3    H236974   0.562   5.306  12.428  0.3509  0.7340 -0.7444
 5187TIP3   OH236975   3.530   0.236  11.077  0.2167 -0.0597 -0.5926
 5187TIP3    H136976   3.623   0.249  11.059  0.1844  1.2320  0.0270
 5187TIP3    H236977   3.528   0.192  11.162  0.2787 -1.7648 -1.4492
 5188TIP3   OH236978   5.117   6.120   4.353  0.1738 -0.3831 -0.1207
 5188TIP3    H136979   5.039   6.172   4.333  0.9600  0.8419 -0.0714
 5188TIP3    H236980   5.189   6.166   4.311  0.9752 -1.1505  0.3694
 5189TIP3   OH236981   5.641   1.437   2.123 -0.0709 -0.0516 -0.0268
 5189TIP3    H136982   5.573   1.469   2.181 -0.2044 -2.2512  1.1506
 5189TIP3    H236983   5.723   1.470   2.159 -0.3939  2.0245 -1.0501
 5190TIP3   OH236984   2.373   5.637   5.524 -0.3746 -0.1178 -0.1807
 5190TIP3    H136985   2.381   5.555   5.571  0.7853 -0.4954 -0.9978
 5190TIP3    H236986   2.420   5.623   5.441 -0.6624  1.1634 -0.5970
 5191TIP3   OH236987   0.022   1.857   0.600  0.0238 -0.1732 -0.3728
 5191TIP3    H136988  -0.025   1.886   0.521  0.2700  1.0909 -0.0831
 5191TIP3    H236989  -0.032   1.888   0.672 -0.0707 -1.1078 -0.0402
 5192TIP3   OH236990   1.319   0.375   0.663  0.3520  0.5903 -0.4927
 5192TIP3    H136991   1.382   0.382   0.591  1.7544 -0.0162  0.6252
 5192TIP3    H236992   1.344   0.444   0.725  0.1046  0.1542  0.1061
 5193TIP3   OH236993   0.164   2.501  14.054  0.1775 -0.2986  0.2787
 5193TIP3    H136994   0.127   2.426  14.007  1.5670 -1.5087  1.0303
 5193TIP3    H236995   0.192   2.465  14.138  1.2380  0.9752  0.5035
 5194TIP3   OH236996   3.923   3.135  13.803 -0.2513  0.3025  0.0115
 5194TIP3    H136997   3.926   3.044  13.831 -0.9070  0.9791  2.4937
 5194TIP3    H236998   3.830   3.151  13.784 -0.1570  0.5035 -0.2992
 5195TIP3   OH236999   2.690   6.724  15.624  0.1525 -0.1674  0.3476
 5195TIP3    H137000   2.739   6.671  15.687  2.3451  0.8800 -0.3708
 5195TIP3    H237001   2.706   6.682  15.540 -0.2189  0.1750  0.1047
 5196TIP3   OH237002   6.427   3.617   3.073  0.7471  0.5041 -0.5158
 5196TIP3    H137003   6.383   3.681   3.128  2.5106  2.4311 -1.2365
 5196TIP3    H237004   6.505   3.591   3.122  1.4678  1.0075 -1.3578
 5197TIP3   OH237005   3.403   2.053  13.326  0.7432 -0.2268  0.0705
 5197TIP3    H137006   3.321   2.064  13.372  2.0360  0.6405  2.3222
 5197TIP3    H237007   3.405   1.961  13.300 -0.6438 -0.3910  0.4975
 5198TIP3   OH237008   4.609   3.221  10.856 -0.7183 -0.3749  0.1193
 5198TIP3    H137009   4.671   3.154  10.885 -1.2554  0.0559  2.4901
 5198TIP3    H237010   4.662   3.284  10.807  0.5565 -0.4898  1.3171
 5199TIP3   OH237011   3.640   1.147   1.606  0.3578  0.0968 -0.3131
 5199TIP3    H137012   3.684   1.149   1.521 -0.4409  1.6272 -0.7205
 5199TIP3    H237013   3.698   1.094   1.662  1.6139  0.2684 -1.4076
 5200TIP3   OH237014   0.569   5.564  10.680  0.2481  0.2180 -0.1673
 5200TIP3    H137015   0.478   5.534  10.678 -0.6588  2.6769  0.6117
 5200TIP3    H237016   0.597   5.559  10.588 -0.8311 -0.0953 -0.5009
 5201TIP3   OH237017   5.890   4.432   3.325 -0.3906 -1.0597  0.1263
 5201TIP3    H137018   5.945   4.497   3.281 -0.7655 -1.0858 -0.3855
 5201TIP3    H237019   5.887   4.358   3.263  0.3813 -1.7436  0.8775
 5202TIP3   OH237020   4.067   6.344   3.742  0.5039 -0.2143 -0.1028
 5202TIP3    H137021   4.131   6.372   3.807  0.1289  1.0826 -0.2505
 5202TIP3    H237022   4.084   6.400   3.666 -0.0409 -0.6657 -0.5668
 5203TIP3   OH237023   0.288   5.216   2.066  0.0164  0.1691  0.2540
 5203TIP3    H137024   0.347   5.277   2.110  0.4484 -0.1365  0.1115
 5203TIP3    H237025   0.254   5.265   1.992  1.9618 -0.3677 -1.0864
 5204TIP3   OH237026   3.696   0.842   4.509  0.6107  0.4128  0.3451
 5204TIP3    H137027   3.696   0.938   4.499  2.1270  0.3918 -0.0961
 5204TIP3    H237028   3.603   0.819   4.515  0.2388  2.0254  1.6261
 5205TIP3   OH237029   3.992   5.749  12.290 -0.6824 -0.2372  0.0399
 5205TIP3    H137030   4.036   5.817  12.239  0.7457 -1.8469 -0.9892
 5205TIP3    H237031   4.058   5.721  12.354 -1.7718  0.3491  1.4807
 5206TIP3   OH237032   2.990   1.186   0.419 -0.5184 -0.2657  0.4615
 5206TIP3    H137033   2.960   1.267   0.460  0.9991  1.0184 -0.7733
 5206TIP3    H237034   3.054   1.150   0.481 -0.2252  0.2116  0.4465
 5207TIP3   OH237035   0.675   0.132  12.750  0.0240  0.8721  0.2779
 5207TIP3    H137036   0.617   0.060  12.777 -0.3780  1.3730  0.7818
 5207TIP3    H237037   0.626   0.211  12.774  0.5010  1.3089 -0.1901
 5208TIP3   OH237038   5.509   2.959   5.732 -0.0606  0.1266 -0.4114
 5208TIP3    H137039   5.541   2.869   5.727 -0.8250 -0.1840  0.1411
 5208TIP3    H237040   5.453   2.969   5.655  2.4113  1.1382 -2.2209
 5209TIP3   OH237041   4.811   2.713   4.309 -0.3665  0.0919 -0.1506
 5209TIP3    H137042   4.782   2.712   4.400  0.8982  1.0034  0.2984
 5209TIP3    H237043   4.841   2.803   4.294 -0.2061 -0.1412 -1.3482
 5210TIP3   OH237044   0.554   6.564   5.284  0.5903 -0.0506  0.3671
 5210TIP3    H137045   0.576   6.478   5.248 -1.7076 -0.3350 -0.4773
 5210TIP3    H237046   0.488   6.547   5.350  0.0484  1.0578  0.1453
 5211TIP3   OH237047   1.983   0.751  15.816  0.8608 -0.1101 -0.4928
 5211TIP3    H137048   1.955   0.790  15.899  0.3522 -0.5957 -0.4316
 5211TIP3    H237049   1.918   0.781  15.752  0.1684 -1.2498 -0.3460
 5212TIP3   OH237050   2.271   2.299   1.202 -0.3866  0.0315  0.7061
 5212TIP3    H137051   2.298   2.210   1.180 -0.0947  0.5677 -1.2493
 5212TIP3    H237052   2.348   2.353   1.185 -0.5721  0.6967  1.8379
 5213TIP3   OH237053   4.115   4.289   0.638  0.7949  0.2723  0.2149
 5213TIP3    H137054   4.036   4.342   0.653 -0.9969 -2.4768  1.3415
 5213TIP3    H237055   4.090   4.229   0.568  1.2602 -1.6617  1.6200
 5214TIP3   OH237056   3.926   2.626  12.410 -0.3271 -0.1165 -0.0503
 5214TIP3    H137057   3.902   2.602  12.499  0.2631  3.0886  1.1207
 5214TIP3    H237058   3.847   2.664  12.373  0.1216  1.0470  0.1349
 5215TIP3   OH237059   0.433   4.466  12.679 -0.3318 -0.2636 -0.0046
 5215TIP3    H137060   0.416   4.543  12.625 -1.9661 -0.4695  0.1862
 5215TIP3    H237061   0.406   4.392  12.624 -1.5144 -0.5051  0.8636
 5216TIP3   OH237062   4.089   1.056  11.083  0.4261  0.0823  0.0081
 5216TIP3    H137063   4.147   1.077  11.010  1.8762  0.5565  1.2427
 5216TIP3    H237064   4.084   0.960  11.082  1.8773 -0.0204  0.3336
 5217TIP3   OH237065   6.538   4.637   3.289  0.0373  0.0392  0.2041
 5217TIP3    H137066   6.580   4.552   3.291  1.4924  0.7332  1.1174
 5217TIP3    H237067   6.512   4.650   3.198 -0.7887 -1.6214  0.1767
 5218TIP3   OH237068   6.251   2.849  15.207 -0.0103  0.6046  0.1200
 5218TIP3    H137069   6.204   2.887  15.132  0.2419  0.5437 -0.0694
 5218TIP3    H237070   6.189   2.856  15.280 -1.2523 -1.5821 -0.6141
 5219TIP3   OH237071   1.781   1.237  10.932  0.3498 -0.8063  0.3678
 5219TIP3    H137072   1.810   1.146  10.929 -0.5358 -1.2307  2.7529
 5219TIP3    H237073   1.685   1.232  10.928  0.3270  0.1809 -1.3189
 5220TIP3   OH237074   1.719   3.655  13.503  0.6346 -0.2902  0.2621
 5220TIP3    H137075   1.793   3.615  13.457 -0.7925 -1.1895 -1.3606
 5220TIP3    H237076   1.727   3.749  13.484  1.8337 -0.2577  0.8594
 5221TIP3   OH237077   0.589   1.481  15.261 -0.1781  0.2022 -0.4270
 5221TIP3    H137078   0.541   1.485  15.344 -0.1014  2.0304 -0.4170
 5221TIP3    H237079   0.527   1.445  15.199 -1.2908  1.6663 -0.2142
 5222TIP3   OH237080   6.232   4.408  13.633  0.0146  0.5115 -0.3776
 5222TIP3    H137081   6.240   4.319  13.599 -0.1297 -1.1016  3.3279
 5222TIP3    H237082   6.321   4.442  13.632  0.9918 -1.5327  2.2404
 5223TIP3   OH237083   1.373   3.374  11.737 -0.4918  0.6319 -0.9172
 5223TIP3    H137084   1.292   3.325  11.748 -1.9557  3.0083 -0.5396
 5223TIP3    H237085   1.405   3.387  11.827 -0.5954  1.1529 -0.9578
 5224TIP3   OH237086   0.176   1.299  15.100  0.6968 -0.6662  0.2877
 5224TIP3    H137087   0.132   1.238  15.159 -1.9816  1.0742  0.2734
 5224TIP3    H237088   0.178   1.255  15.016 -1.8746 -0.5619  0.0966
 5225TIP3   OH237089   4.716   5.811   1.021  0.3446 -0.3863 -0.8616
 5225TIP3    H137090   4.687   5.834   0.933 -0.4548 -1.5187 -0.9252
 5225TIP3    H237091   4.783   5.875   1.043 -1.2569  1.5222 -1.2663
 5226TIP3   OH237092   5.746   5.287  16.779 -0.1967  0.1035 -0.0623
 5226TIP3    H137093   5.840   5.270  16.777 -0.1668  0.3021 -1.2150
 5226TIP3    H237094   5.731   5.346  16.705 -1.3726 -0.6958 -0.4862
 5227TIP3   OH237095   0.559   2.633   5.722 -0.6633 -0.1811  0.3184
 5227TIP3    H137096   0.565   2.729   5.717  0.5047 -0.2267  0.5575
 5227TIP3    H237097   0.593   2.611   5.809 -1.0965 -0.8127  0.3371
 5228TIP3   OH237098   4.300   3.086  13.226  0.1337 -0.4877 -0.3755
 5228TIP3    H137099   4.392   3.111  13.235  0.0930 -0.4220 -0.1136
 5228TIP3    H237100   4.268   3.082  13.316 -0.2813  0.0980 -0.4923
 5229TIP3   OH237101   3.091   2.464   4.286 -0.0466 -0.2749 -0.0522
 5229TIP3    H137102   3.004   2.504   4.284 -0.0015 -0.1913 -1.1669
 5229TIP3    H237103   3.088   2.399   4.215  1.3399  0.9221 -1.2629
 5230TIP3   OH237104   4.513   6.655   5.605 -0.3952 -0.2106  0.2469
 5230TIP3    H137105   4.593   6.625   5.647 -0.2216 -2.0863 -1.3303
 5230TIP3    H237106   4.542   6.711   5.533 -0.4253 -1.5301 -0.8217
 5231TIP3   OH237107   4.903   5.009   2.564  0.6501  0.0989  0.0390
 5231TIP3    H137108   4.914   5.083   2.623 -0.8511  1.0856 -0.8453
 5231TIP3    H237109   4.932   5.042   2.479  0.0707 -0.3408 -0.3384
 5232TIP3   OH237110   3.535   5.800  11.959  0.0960  0.4380  0.2889
 5232TIP3    H137111   3.574   5.839  11.881 -1.0335 -0.5217 -0.8050
 5232TIP3    H237112   3.565   5.709  11.959 -0.7282  0.1545  0.3889
 5233TIP3   OH237113   3.604   4.961  14.709 -0.4807 -0.5752 -0.8427
 5233TIP3    H137114   3.593   4.891  14.774  0.0119  0.7300  0.7219
 5233TIP3    H237115   3.557   5.036  14.746 -0.6194  0.0719 -2.2537
 5234TIP3   OH237116   6.167   0.973   0.608  0.3052  0.2276  0.2221
 5234TIP3    H137117   6.263   0.979   0.604  0.7537 -4.0807  0.0586
 5234TIP3    H237118   6.148   0.976   0.702  0.6735  0.2755  0.2992
 5235TIP3   OH237119   3.127   0.691  14.712  0.4100 -0.1775 -0.2334
 5235TIP3    H137120   3.204   0.740  14.740 -0.4804  0.7260  0.7527
 5235TIP3    H237121   3.115   0.625  14.780 -0.5424  0.6725  0.4667
 5236TIP3   OH237122   4.458   0.456   3.202 -0.4227 -0.0906 -0.7234
 5236TIP3    H137123   4.405   0.383   3.169 -1.2622 -0.5005  1.3656
 5236TIP3    H237124   4.400   0.503   3.262  0.9811  0.6038  0.1442
 5237TIP3   OH237125   0.614   4.695   4.561  0.3664 -0.3153  0.3514
 5237TIP3    H137126   0.644   4.713   4.650 -0.7039 -0.0143  0.6565
 5237TIP3    H237127   0.633   4.776   4.513 -0.5715  0.1321  0.7126
 5238TIP3   OH237128   6.267   6.616  10.212 -0.2453  0.2693 -0.2951
 5238TIP3    H137129   6.329   6.641  10.281  2.8381 -1.1895 -2.3343
 5238TIP3    H237130   6.247   6.699  10.168 -0.3764  0.8777  0.8529
 5239TIP3   OH237131   6.150   4.928   1.400  0.9535 -0.4635  0.0294
 5239TIP3    H137132   6.061   4.903   1.375  1.4714 -1.3105 -1.0398
 5239TIP3    H237133   6.207   4.874   1.345  2.1356  0.0217  0.7336
 5240TIP3   OH237134   5.313   3.965  13.542  0.4710 -0.5881  0.2104
 5240TIP3    H137135   5.333   3.891  13.600 -0.5551 -0.3242  0.9203
 5240TIP3    H237136   5.237   4.007  13.582  1.1965  1.0214 -0.0440
 5241TIP3   OH237137   4.967   0.975  15.187 -0.0723 -0.5318  0.3865
 5241TIP3    H137138   4.902   1.027  15.234 -1.3174 -1.2845 -0.4539
 5241TIP3    H237139   5.025   0.941  15.255 -0.6919 -0.0394  1.1708
 5242TIP3   OH237140   4.116   5.899   5.340 -0.1362  0.3897 -0.1558
 5242TIP3    H137141   4.115   5.814   5.383 -0.0440 -0.0614 -1.0102
 5242TIP3    H237142   4.202   5.936   5.363 -0.5429  0.6608  0.9673
 5243TIP3   OH237143   0.549   6.517  15.330  0.2099 -0.2688  0.0664
 5243TIP3    H137144   0.571   6.524  15.423 -1.4900 -0.7987  0.5398
 5243TIP3    H237145   0.634   6.512  15.286  1.0370 -0.9426  1.6612
 5244TIP3   OH237146   0.566   5.338   3.570 -0.7471 -0.0232  0.0405
 5244TIP3    H137147   0.538   5.410   3.625 -0.7682  0.8457 -1.0597
 5244TIP3    H237148   0.634   5.293   3.621 -0.3330  1.1183  0.5168
 5245TIP3   OH237149   2.229   3.438   3.790 -0.3239 -0.4877 -0.1407
 5245TIP3    H137150   2.211   3.491   3.868  0.5145  0.9930 -0.9183
 5245TIP3    H237151   2.319   3.408   3.801 -0.8658 -2.0370  0.4151
 5246TIP3   OH237152   3.176   5.661   1.050  0.4599 -0.0280 -0.2620
 5246TIP3    H137153   3.243   5.678   1.117  1.3002 -0.8098 -0.8779
 5246TIP3    H237154   3.141   5.575   1.073 -3.0308  1.7945  2.2282
 5247TIP3   OH237155   6.054   0.999   1.456  0.2201  0.8025 -0.0079
 5247TIP3    H137156   6.149   0.991   1.456  0.3452  2.0627 -0.5562
 5247TIP3    H237157   6.029   1.001   1.364 -0.3603  0.3422  0.1280
 5248TIP3   OH237158   5.766   6.376  12.892  0.4102 -0.2697  0.3539
 5248TIP3    H137159   5.675   6.348  12.887  0.3802 -0.0273 -0.7666
 5248TIP3    H237160   5.762   6.468  12.917  0.2486  0.1662 -1.1513
 5249TIP3   OH237161   4.761   1.622  12.848 -0.1595  0.4115  0.6459
 5249TIP3    H137162   4.845   1.629  12.803 -1.0827  1.7758 -0.9533
 5249TIP3    H237163   4.751   1.706  12.893 -0.3867  0.0132  1.3444
 5250TIP3   OH237164   1.088   0.892   3.491  0.7723 -0.0111  0.0061
 5250TIP3    H137165   1.124   0.803   3.481 -0.1944 -0.3898 -0.2304
 5250TIP3    H237166   1.060   0.896   3.582  0.7967  0.0410  0.0112
 5251TIP3   OH237167   6.781   3.460  14.203 -0.3509  0.5058  0.3142
 5251TIP3    H137168   6.690   3.458  14.172 -0.0692  0.4620 -0.5368
 5251TIP3    H237169   6.773   3.463  14.299 -1.2516  0.9629  0.2434
 5252TIP3   OH237170   6.540   0.098   0.783  0.4452 -0.0786  0.0157
 5252TIP3    H137171   6.522   0.021   0.730  3.1187  1.0642 -2.8476
 5252TIP3    H237172   6.457   0.117   0.826 -0.7011 -3.6510 -0.2464
 5253TIP3   OH237173   3.783   2.989  11.369  0.3619  0.1691  0.1725
 5253TIP3    H137174   3.696   2.983  11.330  0.4901  1.3197 -0.3296
 5253TIP3    H237175   3.767   2.994  11.463 -0.1650  0.9574  0.0507
 5254TIP3   OH237176   5.558   2.474  14.680  0.2982  0.3097 -0.0801
 5254TIP3    H137177   5.476   2.432  14.705 -0.1000  0.5143 -0.9843
 5254TIP3    H237178   5.535   2.527  14.603  1.5972 -0.9264 -1.3859
 5255TIP3   OH237179   0.052   0.864  11.336  0.1985  0.5046  0.3870
 5255TIP3    H137180   0.133   0.818  11.316 -0.2046 -0.0279 -0.0560
 5255TIP3    H237181   0.025   0.831  11.421  0.9536  1.4134  1.0000
 5256TIP3   OH237182   0.130   5.384  14.319 -0.1997 -0.1230  0.2615
 5256TIP3    H137183   0.051   5.397  14.371 -0.4230  1.4362 -0.3959
 5256TIP3    H237184   0.147   5.290  14.323 -1.1194 -0.2498  1.7889
 5257TIP3   OH237185   2.608   6.175  15.416  0.0248  0.0998 -0.2621
 5257TIP3    H137186   2.575   6.121  15.345  1.6614  0.3293 -1.2436
 5257TIP3    H237187   2.623   6.114  15.488  1.2452 -0.6939 -1.1488
 5258TIP3   OH237188   3.322   4.516  13.860  0.1744  0.0706 -0.0726
 5258TIP3    H137189   3.411   4.504  13.892  0.5907 -0.2846 -1.2847
 5258TIP3    H237190   3.316   4.457  13.784 -0.4313  1.5451 -1.2188
 5259TIP3   OH237191   5.211   5.583  11.049 -0.1671  0.2727 -0.2302
 5259TIP3    H137192   5.136   5.635  11.019 -0.1541  0.9716  0.9015
 5259TIP3    H237193   5.251   5.551  10.968 -0.1492  2.0434 -0.9732
 5260TIP3   OH237194   2.040   5.260   5.108  0.1347  0.3790 -0.2308
 5260TIP3    H137195   2.068   5.315   5.181 -2.3604  0.6651  0.5876
 5260TIP3    H237196   2.122   5.224   5.073  1.4511 -0.3284  3.1287
 5261TIP3   OH237197   4.713   5.063   2.896 -0.0803  0.2908  0.2136
 5261TIP3    H137198   4.650   5.080   2.825 -0.3878  0.5777  0.5522
 5261TIP3    H237199   4.669   4.997   2.951 -0.8001  1.6638  1.3493
 5262TIP3   OH237200   3.598   6.093   2.156 -0.1512  0.3096  0.1052
 5262TIP3    H137201   3.678   6.138   2.128 -0.5641  0.7465 -0.3815
 5262TIP3    H237202   3.543   6.089   2.078 -0.8166  0.4695  0.5550
 5263TIP3   OH237203   5.701   4.399  16.575 -0.5083  0.0477  0.6593
 5263TIP3    H137204   5.627   4.422  16.631  0.9539  0.5822  2.4896
 5263TIP3    H237205   5.773   4.452  16.609  0.7113 -0.3903 -1.1153
 5264TIP3   OH237206   0.909   2.195   1.229  0.2782  0.2026  0.0569
 5264TIP3    H137207   0.820   2.180   1.199  1.0541 -1.3536 -1.6354
 5264TIP3    H237208   0.964   2.145   1.169  2.3321  1.3352  0.8734
 5265TIP3   OH237209   1.251   5.024   5.545 -0.6496  0.1448 -0.1130
 5265TIP3    H137210   1.168   5.067   5.526 -0.2061  0.7683 -0.7001
 5265TIP3    H237211   1.268   5.043   5.637 -2.1046 -1.6540  0.5919
 5266TIP3   OH237212   4.055   0.830   0.058 -0.0708  0.0800 -0.4116
 5266TIP3    H137213   4.009   0.901   0.012 -1.7092 -0.3329  0.4920
 5266TIP3    H237214   4.136   0.870   0.089 -0.1776  1.0823 -1.3544
 5267TIP3   OH237215   6.781   5.696   0.082  0.3182  0.2472 -0.4102
 5267TIP3    H137216   6.703   5.643   0.065  0.4700  0.1156 -0.6898
 5267TIP3    H237217   6.767   5.776   0.031 -0.1860  0.7445  0.4655
 5268TIP3   OH237218   1.863   5.828  15.025  0.6266 -0.0865  0.0340
 5268TIP3    H137219   1.784   5.880  15.043 -1.1735 -2.1166 -1.4766
 5268TIP3    H237220   1.891   5.796  15.111 -0.4734  0.2833  0.5509
 5269TIP3   OH237221   4.697   6.197  14.551 -0.1457  0.1530  0.0857
 5269TIP3    H137222   4.715   6.288  14.575  0.1994 -0.3094  1.7633
 5269TIP3    H237223   4.722   6.190  14.459 -1.4326  2.0665 -0.4578
 5270TIP3   OH237224   1.695   0.391   3.379  0.1445  0.6515 -0.8468
 5270TIP3    H137225   1.701   0.343   3.296  0.2071 -1.0536  0.0978
 5270TIP3    H237226   1.783   0.388   3.415 -0.4965 -1.6024  0.8081
 5271TIP3   OH237227   6.765   5.025  15.663  0.4495 -0.2321 -0.2062
 5271TIP3    H137228   6.797   5.094  15.606  0.2834  0.1358  0.1417
 5271TIP3    H237229   6.777   5.059  15.752  1.1057 -0.9752 -0.0012
 5272TIP3   OH237230   0.232   6.093  12.898 -0.0723 -0.0268  0.0242
 5272TIP3    H137231   0.171   6.165  12.881 -1.4941 -1.6272 -2.2398
 5272TIP3    H237232   0.306   6.111  12.839 -1.6856 -1.7169 -2.7507
 5273TIP3   OH237233   5.404   2.219  13.743 -0.0605 -0.2100  0.6654
 5273TIP3    H137234   5.352   2.233  13.822 -0.0378  0.3112  0.5952
 5273TIP3    H237235   5.393   2.126  13.723 -0.6668 -0.1857  0.8599
 5274TIP3   OH237236   3.142   0.360   0.322 -0.1138 -0.6483  0.1704
 5274TIP3    H137237   3.128   0.378   0.229 -0.8880  0.6953  0.5183
 5274TIP3    H237238   3.141   0.264   0.329  2.5832 -0.9119 -1.5705
 5275TIP3   OH237239   6.046   3.036  15.826 -0.1387 -0.1315  1.1437
 5275TIP3    H137240   5.955   3.024  15.850 -0.5975 -0.2660 -0.5303
 5275TIP3    H237241   6.045   3.105  15.759  0.8267 -0.9739  0.2150
 5276TIP3   OH237242   5.648   4.914  14.052 -0.5395  0.7077  0.0170
 5276TIP3    H137243   5.703   4.958  14.117 -1.2701  0.1452  1.0442
 5276TIP3    H237244   5.649   4.973  13.977  2.9680 -0.1207 -0.7586
 5277TIP3   OH237245   0.634   0.829  13.927 -0.1035 -0.2499 -0.5641
 5277TIP3    H137246   0.666   0.918  13.941 -0.2089 -0.4303  1.0097
 5277TIP3    H237247   0.552   0.825  13.976  0.8880 -1.7787  1.0795
 5278TIP3   OH237248   0.421   2.801   4.627 -0.2039 -0.6156  0.2604
 5278TIP3    H137249   0.399   2.776   4.538 -0.7865  1.6121 -0.2904
 5278TIP3    H237250   0.350   2.768   4.681 -0.5655 -0.7690 -0.3103
 5279TIP3   OH237251   3.868   0.097   5.652 -0.5379  0.4518  0.6581
 5279TIP3    H137252   3.805   0.133   5.590 -0.9324 -1.3685 -0.0684
 5279TIP3    H237253   3.954   0.120   5.616 -0.7749  0.1426 -0.1221
 5280TIP3   OH237254   0.667   1.557  17.049 -0.0798 -0.1671  0.1147
 5280TIP3    H137255   0.596   1.569  17.112  0.5870  1.7731  0.5778
 5280TIP3    H237256   0.746   1.580  17.098  0.6387 -0.3472 -0.9345
 5281TIP3   OH237257   4.165   6.640   2.700  0.8643  0.3711  0.6906
 5281TIP3    H137258   4.212   6.723   2.706  0.9441  0.3176  0.8121
 5281TIP3    H237259   4.102   6.643   2.772  1.4772 -0.0535  1.2580
 5282TIP3   OH237260   1.006   5.044  11.669 -0.1532 -0.3283 -0.1680
 5282TIP3    H137261   0.955   5.067  11.591 -0.6615  0.0017  0.2527
 5282TIP3    H237262   1.072   4.983  11.637 -2.0739 -2.4232 -0.3925
 5283TIP3   OH237263   5.715   2.627  14.849 -0.2901  0.4711 -0.2952
 5283TIP3    H137264   5.656   2.575  14.794 -2.2606  2.3316 -0.0669
 5283TIP3    H237265   5.690   2.718  14.832  1.6195  1.2662  0.8571
 5284TIP3   OH237266   5.118   0.222   6.462  0.0414  0.0700 -0.2523
 5284TIP3    H137267   5.074   0.304   6.441 -0.3311  0.1045  0.6252
 5284TIP3    H237268   5.067   0.155   6.416  0.5437  0.3517 -1.2410
 5285TIP3   OH237269   2.351   4.000  14.556 -0.1763 -0.6671  0.1415
 5285TIP3    H137270   2.377   4.039  14.473  0.8688  0.0977  0.8103
 5285TIP3    H237271   2.408   3.924  14.567  0.9506  0.2496  0.9715
 5286TIP3   OH237272   3.917   4.703   3.681  0.1631 -0.1191  0.3159
 5286TIP3    H137273   3.900   4.666   3.768 -0.8557 -0.2732  0.0545
 5286TIP3    H237274   3.893   4.634   3.620  1.0894 -0.0888 -0.0929
 5287TIP3   OH237275   4.388   3.858   2.591  0.0928  0.3668  0.2321
 5287TIP3    H137276   4.375   3.769   2.624 -0.1701  0.3658  0.1254
 5287TIP3    H237277   4.459   3.893   2.645  0.1609  0.1120  0.3103
 5288TIP3   OH237278   4.249   1.781   5.781  0.5457 -0.4145  0.1541
 5288TIP3    H137279   4.302   1.855   5.751 -2.0681  1.6077  0.1921
 5288TIP3    H237280   4.303   1.704   5.762  1.7685  1.1434 -3.6633
 5289TIP3   OH237281   3.596   5.954  13.321 -0.5921  0.1621 -0.0162
 5289TIP3    H137282   3.688   5.981  13.315 -0.3953  0.0075  1.7056
 5289TIP3    H237283   3.585   5.928  13.413 -2.6056  1.0529  0.0469
 5290TIP3   OH237284   3.777   1.661  11.756 -0.1260  0.4159  0.1679
 5290TIP3    H137285   3.799   1.740  11.806  0.2897 -0.6769  1.8033
 5290TIP3    H237286   3.861   1.616  11.745 -0.5639 -0.5153  0.5540
 5291TIP3   OH237287   3.865   0.049   5.284  0.1396  0.4452 -0.2582
 5291TIP3    H137288   3.925   0.123   5.281  0.4408  0.2199  0.0715
 5291TIP3    H237289   3.796   0.076   5.344  0.6735  0.1570  0.5054
 5292TIP3   OH237290   5.212   2.703   2.833 -0.2001  0.1518  0.9082
 5292TIP3    H137291   5.253   2.631   2.881  2.5678  0.2739 -1.0314
 5292TIP3    H237292   5.280   2.771   2.828 -1.4229  1.3547 -0.5164
 5293TIP3   OH237293   4.081   2.873   1.655  0.1709  0.2643 -0.1450
 5293TIP3    H137294   4.148   2.879   1.723 -0.0210 -0.4701  0.1201
 5293TIP3    H237295   4.117   2.921   1.581  2.1991 -2.3366 -0.9850
 5294TIP3   OH237296   3.136   6.048  12.688  0.3520  0.6837 -0.6205
 5294TIP3    H137297   3.201   6.041  12.759  0.6443 -1.3181 -1.0226
 5294TIP3    H237298   3.070   6.109  12.722  1.8943  1.9571  0.2237
 5295TIP3   OH237299   2.093   4.705  14.329 -0.4160 -0.4624  0.1349
 5295TIP3    H137300   2.060   4.791  14.304 -1.1639 -1.2242 -1.7362
 5295TIP3    H237301   2.059   4.690  14.417 -0.8176  0.8775  0.2225
 5296TIP3   OH237302   2.138   5.797   2.571  0.0090 -0.3078  0.9460
 5296TIP3    H137303   2.232   5.793   2.557  0.0723  1.6219  0.5109
 5296TIP3    H237304   2.101   5.750   2.496  0.6084 -2.9143  2.1904
 5297TIP3   OH237305   4.086   6.434   3.401 -0.2798  0.3054  0.4483
 5297TIP3    H137306   4.091   6.453   3.307 -0.4758 -0.8917  0.1715
 5297TIP3    H237307   4.053   6.514   3.440 -0.4724  0.7301 -0.5514
 5298TIP3   OH237308   5.135   6.708   1.442  0.2017  0.1787  0.3042
 5298TIP3    H137309   5.085   6.710   1.361  1.1167 -0.1080 -0.2920
 5298TIP3    H237310   5.090   6.768   1.500  0.2413  1.3786 -0.8530
 5299TIP3   OH237311   4.939   3.033  14.366 -0.5279 -0.2994 -0.1084
 5299TIP3    H137312   4.941   3.126  14.388  0.2552 -0.5009  0.6872
 5299TIP3    H237313   5.031   3.007  14.361 -0.7281 -0.9327 -0.7943
 5300TIP3   OH237314   3.973   5.365  10.649 -0.0451 -0.0639 -0.1493
 5300TIP3    H137315   4.030   5.442  10.640  0.2562 -0.0946  1.2997
 5300TIP3    H237316   3.992   5.312  10.572 -0.2805  1.3130 -1.2039
 5301TIP3   OH237317   6.079   4.745  16.279  0.1761  0.1622 -0.1335
 5301TIP3    H137318   6.015   4.714  16.215  1.2162 -0.4430 -0.9099
 5301TIP3    H237319   6.121   4.821  16.237  0.7394 -0.1289 -0.1085
 5302TIP3   OH237320   3.667   5.740  15.162 -0.1060 -0.4086  0.4373
 5302TIP3    H137321   3.747   5.720  15.113 -1.4021  1.1736 -2.6462
 5302TIP3    H237322   3.602   5.680  15.126 -1.0631  0.6787  0.2943
 5303TIP3   OH237323   5.580   3.642  15.189 -0.2568 -0.0282 -0.0554
 5303TIP3    H137324   5.530   3.715  15.154  0.3964 -0.5902 -2.3624
 5303TIP3    H237325   5.561   3.642  15.283 -1.2613  2.2810 -0.1952
 5304TIP3   OH237326   2.097   4.687  11.211  0.1863 -0.4312  0.4199
 5304TIP3    H137327   2.049   4.735  11.278 -0.0648  1.0898 -0.8056
 5304TIP3    H237328   2.106   4.749  11.138  0.2978 -2.0638 -1.0281
 5305TIP3   OH237329   0.888   5.049  15.466  0.4704 -0.1890  0.4328
 5305TIP3    H137330   0.931   5.097  15.394 -0.9980  1.8999  0.8727
 5305TIP3    H237331   0.819   5.108  15.496 -0.0556 -1.7463  2.4488
 5306TIP3   OH237332   2.466   6.262   2.118  0.1306 -0.7769 -0.5010
 5306TIP3    H137333   2.506   6.192   2.169 -0.5643  0.6450  2.1727
 5306TIP3    H237334   2.539   6.318   2.092  0.2616  0.2462  1.8513
 5307TIP3   OH237335   2.054   0.910   0.579  0.0530 -0.3961 -0.4714
 5307TIP3    H137336   2.149   0.926   0.578 -0.1178  0.8816 -2.4361
 5307TIP3    H237337   2.015   0.996   0.590 -0.8806 -0.7731 -0.7060
 5308TIP3   OH237338   0.189   2.547  14.449 -0.6244  0.2512 -0.2491
 5308TIP3    H137339   0.218   2.498  14.372 -3.0583 -0.5005 -0.7919
 5308TIP3    H237340   0.250   2.521  14.518  0.6808 -0.2652 -1.5399
 5309TIP3   OH237341   1.693   4.182  15.725 -0.5512 -0.3677 -0.1629
 5309TIP3    H137342   1.646   4.149  15.648 -2.1241 -0.8939  0.9693
 5309TIP3    H237343   1.759   4.242  15.689 -0.3243 -1.6238 -1.9964
 5310TIP3   OH237344   6.639   0.004  16.135 -0.7776 -0.3737 -0.0500
 5310TIP3    H137345   6.628  -0.087  16.106 -1.2011 -0.4777  0.4131
 5310TIP3    H237346   6.673  -0.004  16.225  0.5343 -0.0631 -0.4964
 5311TIP3   OH237347   6.638   0.629   5.860  0.3211 -0.0365  0.3731
 5311TIP3    H137348   6.688   0.696   5.906 -0.7714 -0.1395  1.7901
 5311TIP3    H237349   6.675   0.546   5.891 -0.5441 -0.1101  1.2468
 5312TIP3   OH237350   5.085   2.590  14.836  0.0319 -0.1143  0.0591
 5312TIP3    H137351   5.092   2.534  14.759  1.5390 -1.6145  1.2189
 5312TIP3    H237352   5.022   2.546  14.893 -0.6548  0.6988 -0.0380
 5313TIP3   OH237353   5.601   3.274   0.319 -0.5801 -0.1101  0.3648
 5313TIP3    H137354   5.530   3.263   0.256  0.6600 -0.7764 -1.0036
 5313TIP3    H237355   5.672   3.219   0.284  0.0588 -0.7497  2.5369
 5314TIP3   OH237356   5.378   0.512   2.195  0.1714 -0.4498 -0.3991
 5314TIP3    H137357   5.433   0.435   2.208  0.9734  0.4248  1.9282
 5314TIP3    H237358   5.373   0.522   2.100  1.5645 -2.2794 -0.7235
 5315TIP3   OH237359   6.683   0.716  14.356  0.3534  0.2986  0.0472
 5315TIP3    H137360   6.766   0.753  14.385 -0.8711  1.4897  2.3343
 5315TIP3    H237361   6.644   0.680  14.436 -0.6049 -1.7582 -1.2758
 5316TIP3   OH237362   4.207   6.000   3.001 -0.2232  0.0215 -0.2419
 5316TIP3    H137363   4.179   5.996   3.093 -0.4803 -2.1851 -0.3746
 5316TIP3    H237364   4.300   5.980   3.003 -0.1213  0.4591 -0.4349
 5317TIP3   OH237365   3.301   0.159  11.696 -0.0561  0.5122  0.7229
 5317TIP3    H137366   3.292   0.223  11.626 -0.2269 -0.3400 -0.0605
 5317TIP3    H237367   3.222   0.169  11.749  1.1204  2.7599  2.2054
 5318TIP3   OH237368   5.780   2.538  13.466 -0.0227  0.4084  0.2484
 5318TIP3    H137369   5.787   2.564  13.557 -1.2387 -1.0480  0.8071
 5318TIP3    H237370   5.754   2.446  13.469 -0.5606  0.4484 -1.5544
 5319TIP3   OH237371   4.918   2.995  15.529 -0.5942  0.2349  0.1406
 5319TIP3    H137372   4.877   3.077  15.555  0.8741  1.2165 -0.5072
 5319TIP3    H237373   5.003   2.995  15.574 -0.7238 -1.1202  0.4379
 5320TIP3   OH237374   0.678   6.657  13.468 -0.3353  0.3055  0.1729
 5320TIP3    H137375   0.617   6.694  13.404  0.0069  1.9785  0.7658
 5320TIP3    H237376   0.622   6.629  13.541 -0.6331 -0.7884 -0.4445
 5321TIP3   OH237377   2.723   5.955  16.960  0.1299 -0.0923  0.3319
 5321TIP3    H137378   2.646   6.001  16.928 -0.4456  0.0317  1.7926
 5321TIP3    H237379   2.744   5.892  16.891 -1.7866 -0.7035  0.2355
 5322TIP3   OH237380   0.458   3.106  16.493 -0.3494  0.0989 -0.0732
 5322TIP3    H137381   0.419   3.160  16.563 -0.0587  2.0108 -1.3196
 5322TIP3    H237382   0.478   3.168  16.423  1.3767 -1.4305 -1.0217
 5323TIP3   OH237383   3.587   5.921  16.044 -0.0880  0.8895  0.1964
 5323TIP3    H137384   3.603   5.937  16.136 -1.3670 -2.3591  1.1252
 5323TIP3    H237385   3.491   5.920  16.036 -0.0031  0.9643 -1.1262
 5324TIP3   OH237386   4.465   5.319   3.922  0.2192 -0.2070 -0.0267
 5324TIP3    H137387   4.472   5.239   3.973 -1.0690 -0.0371  0.4536
 5324TIP3    H237388   4.524   5.306   3.848  0.1488 -1.5252  0.1311
 5325TIP3   OH237389   2.446   2.599   5.820  0.4645  0.4514  0.7231
 5325TIP3    H137390   2.501   2.591   5.898  0.9072  1.1636  0.5010
 5325TIP3    H237391   2.409   2.687   5.827  2.4692  1.5327 -1.0809
 5326TIP3   OH237392   2.868   1.274  13.215 -0.1568  0.1577 -0.0419
 5326TIP3    H137393   2.958   1.283  13.245 -0.0609  3.5569 -0.9185
 5326TIP3    H237394   2.876   1.267  13.119 -0.7994  1.7697 -0.2431
 5327TIP3   OH237395   3.282   1.289  13.595 -0.1049 -0.3309 -0.0357
 5327TIP3    H137396   3.237   1.257  13.673 -0.0351 -0.9676 -0.2527
 5327TIP3    H237397   3.369   1.249  13.600 -0.4945 -1.3641 -1.0607
 5328TIP3   OH237398   6.134   5.849  14.331  0.6672  0.4213 -0.1882
 5328TIP3    H137399   6.101   5.802  14.255 -1.9489 -0.2350  1.2294
 5328TIP3    H237400   6.229   5.835  14.328  0.7329  0.7517 -3.4595
 5329TIP3   OH237401   1.697   1.731   0.221 -0.3822 -0.3802  0.0154
 5329TIP3    H137402   1.656   1.686   0.295  1.8411  0.8650  2.1562
 5329TIP3    H237403   1.634   1.722   0.150 -2.9232 -1.1527  2.1910
 5330TIP3   OH237404   5.503   6.036   2.454 -0.3996 -0.2704  0.0472
 5330TIP3    H137405   5.420   5.990   2.445 -0.2715 -0.3094 -1.0669
 5330TIP3    H237406   5.507   6.094   2.378  2.4234 -3.2180 -2.3355
 5331TIP3   OH237407   3.704   2.913  15.432  0.0915  0.4533 -0.5847
 5331TIP3    H137408   3.730   2.982  15.493 -1.0140 -0.8216  1.4238
 5331TIP3    H237409   3.784   2.894  15.383  0.4775  2.9799 -1.0807
 5332TIP3   OH237410   3.540   0.902  13.201 -0.0842  0.0703 -0.5459
 5332TIP3    H137411   3.555   0.953  13.281  0.3711 -0.5438 -0.2328
 5332TIP3    H237412   3.627   0.895  13.161 -0.2388  0.0043 -0.8696
 5333TIP3   OH237413   3.830   1.292   5.082  0.2513  0.3957 -0.1096
 5333TIP3    H137414   3.741   1.287   5.117  0.6351  1.9659  1.2059
 5333TIP3    H237415   3.841   1.210   5.034 -2.6022  0.9882 -2.0610
 5334TIP3   OH237416   0.477   5.820  14.106  0.1322 -0.1170 -0.0307
 5334TIP3    H137417   0.407   5.756  14.096  0.0863  0.0557 -0.8307
 5334TIP3    H237418   0.433   5.902  14.128 -0.0508  0.3199 -1.8655
 5335TIP3   OH237419   3.608   0.619   5.038  0.2686  0.1564  0.7448
 5335TIP3    H137420   3.547   0.653   5.104 -0.1020  0.0655  0.4472
 5335TIP3    H237421   3.647   0.542   5.079 -1.2487 -0.9481  0.2114
 5336TIP3   OH237422   1.890   6.164  13.183 -0.0905  0.4840  0.0082
 5336TIP3    H137423   1.873   6.254  13.157  0.3757  0.5209 -0.1781
 5336TIP3    H237424   1.895   6.167  13.278  0.7551  0.8091 -0.0361
 5337TIP3   OH237425   6.102   1.243   1.098 -0.0902  0.2219 -0.0866
 5337TIP3    H137426   6.164   1.170   1.100  0.0809  0.3738  0.2130
 5337TIP3    H237427   6.154   1.317   1.066  0.4783  0.8907  2.1811
 5338TIP3   OH237428   2.902   2.266   1.048 -0.2475 -0.1653 -0.1189
 5338TIP3    H137429   2.893   2.236   0.958 -0.4322  0.1612 -0.2083
 5338TIP3    H237430   2.813   2.263   1.083 -0.1660 -0.3618  0.0782
 5339TIP3   OH237431   4.790   6.543  14.271  0.3321  0.8049 -0.0385
 5339TIP3    H137432   4.773   6.577  14.359 -0.0598 -0.3255  0.3456
 5339TIP3    H237433   4.745   6.458  14.269  2.3092 -0.3053 -0.4962
 5340TIP3   OH237434   0.346   0.594  13.485  0.1104  0.9776  0.0446
 5340TIP3    H137435   0.350   0.501  13.460 -2.3293  1.1774 -1.3733
 5340TIP3    H237436   0.359   0.642  13.403  0.7173  1.8949  0.6633
 5341TIP3   OH237437   1.890   3.691   0.127 -0.4829  0.3043 -0.0912
 5341TIP3    H137438   1.984   3.703   0.120 -0.3746  0.1555  1.0423
 5341TIP3    H237439   1.873   3.680   0.220 -1.3584 -1.8751 -0.4323
 5342TIP3   OH237440   3.627   2.570   0.911  0.1543 -0.5854 -0.4240
 5342TIP3    H137441   3.690   2.519   0.962  0.0063 -1.4907 -1.1295
 5342TIP3    H237442   3.648   2.551   0.820 -0.2189  0.2431 -0.6951
 5343TIP3   OH237443   3.772   6.248  13.019 -0.9428 -0.0280  0.7109
 5343TIP3    H137444   3.796   6.173  12.964 -3.3238 -2.1265  2.2765
 5343TIP3    H237445   3.851   6.268  13.068  0.2311 -0.3732 -0.9622
 5344TIP3   OH237446   0.807   0.360  11.008  0.9485 -0.4820  0.1820
 5344TIP3    H137447   0.836   0.373  11.098  3.0663 -1.1858 -0.3449
 5344TIP3    H237448   0.810   0.265  10.995 -1.7771 -0.6159  0.0841
 5345TIP3   OH237449   2.622   6.614   2.858 -0.1666 -0.2688  0.4907
 5345TIP3    H137450   2.703   6.589   2.814 -0.9041 -0.7657 -0.6088
 5345TIP3    H237451   2.586   6.684   2.805 -0.3779  0.0737  1.0743
 5346TIP3   OH237452   2.048   5.366   4.536 -0.3870  0.6823 -0.1614
 5346TIP3    H137453   2.111   5.373   4.608 -0.8144 -0.6179  0.3594
 5346TIP3    H237454   2.057   5.449   4.488 -0.4644  1.8034  1.6757
 5347TIP3   OH237455   6.253   0.384   5.276 -0.4876  0.4575 -0.1406
 5347TIP3    H137456   6.274   0.293   5.296 -0.8437  0.1324 -1.2003
 5347TIP3    H237457   6.245   0.425   5.362 -1.8018 -0.8554  0.4236
 5348TIP3   OH237458   3.587   5.118   3.873  0.2147 -0.5481 -0.2826
 5348TIP3    H137459   3.577   5.022   3.875  2.8711 -0.9164 -1.2579
 5348TIP3    H237460   3.553   5.144   3.787  0.0494 -0.6796 -0.2587
 5349TIP3   OH237461   6.094   4.077   5.941 -0.5883 -0.0132 -1.1107
 5349TIP3    H137462   6.162   4.016   5.969  0.9340  0.7480 -2.9578
 5349TIP3    H237463   6.068   4.045   5.854 -2.2438  0.0246 -0.6654
 5350TIP3   OH237464   5.642   3.670  12.093 -0.1460 -0.0356  0.1402
 5350TIP3    H137465   5.723   3.636  12.131 -0.4069  3.4747  4.8342
 5350TIP3    H237466   5.669   3.749  12.045 -0.6180  0.5399  0.7980
 5351TIP3   OH237467   5.445   2.500   2.180 -0.3361  0.1718 -0.7621
 5351TIP3    H137468   5.383   2.442   2.136  0.2519 -0.7885 -0.3513
 5351TIP3    H237469   5.505   2.442   2.226 -1.6860  1.1302  2.4484
 5352TIP3   OH237470   2.884   4.413   0.847  0.1196  0.3076 -0.1926
 5352TIP3    H137471   2.877   4.504   0.875  0.0906  0.0505  0.6542
 5352TIP3    H237472   2.807   4.398   0.793 -1.0829  0.1481  1.5068
 5353TIP3   OH237473   6.674   1.481  12.561  0.2305  0.1108  0.1314
 5353TIP3    H137474   6.735   1.524  12.502 -0.3696  0.6929 -0.0698
 5353TIP3    H237475   6.598   1.459  12.507  1.5384 -3.6277 -0.4358
 5354TIP3   OH237476   2.448   1.946  11.085  0.2664 -0.2262 -0.4919
 5354TIP3    H137477   2.411   1.934  10.997 -1.5613  1.1727  0.0262
 5354TIP3    H237478   2.477   2.037  11.086 -0.6719  0.0850  0.6529
 5355TIP3   OH237479   2.245   4.072   0.103 -0.0155 -0.3994 -0.1816
 5355TIP3    H137480   2.258   4.132   0.030 -2.5138 -0.5064 -0.7968
 5355TIP3    H237481   2.300   3.996   0.081 -0.6705 -0.4137 -1.9714
 5356TIP3   OH237482   0.309   5.419  11.332 -0.2634 -0.0628  0.1500
 5356TIP3    H137483   0.295   5.513  11.321 -0.0137 -0.0684 -0.2433
 5356TIP3    H237484   0.249   5.393  11.402 -1.4808  0.0947 -0.8136
 5357TIP3   OH237485   2.330   4.559  11.507 -0.2813  0.6094 -0.0984
 5357TIP3    H137486   2.288   4.475  11.491  3.1437 -1.4354  0.8455
 5357TIP3    H237487   2.285   4.593  11.584 -1.7039 -0.3171 -0.4791
 5358TIP3   OH237488   2.918   6.132  14.255  0.2113  0.3438 -0.2975
 5358TIP3    H137489   2.879   6.216  14.279  0.9273  0.6539 -0.2087
 5358TIP3    H237490   2.845   6.082  14.218 -0.0097  1.3729 -1.3164
 5359TIP3   OH237491   4.171   0.650  14.448  0.2951 -0.7181 -0.4166
 5359TIP3    H137492   4.241   0.639  14.384 -0.6815  0.0841 -1.6836
 5359TIP3    H237493   4.198   0.724  14.501  0.3292 -0.2906 -1.0202
 5360TIP3   OH237494   1.335   5.745   4.793  0.2540  0.5305 -0.4685
 5360TIP3    H137495   1.423   5.783   4.793  0.3560  0.2981 -0.4839
 5360TIP3    H237496   1.280   5.813   4.832  1.0211 -0.5902  2.9057
 5361TIP3   OH237497   6.608   2.899  13.164 -0.0050  0.1001 -0.3619
 5361TIP3    H137498   6.694   2.926  13.196 -1.2643  2.9185  1.0450
 5361TIP3    H237499   6.591   2.815  13.206  1.5621  0.0717  0.2623
 5362TIP3   OH237500   2.943   1.110   3.250  0.1799  0.3008 -0.5418
 5362TIP3    H137501   2.914   1.184   3.196  0.5278  1.7243  1.1491
 5362TIP3    H237502   2.874   1.044   3.238 -1.3715  1.7968 -0.2976
 5363TIP3   OH237503   2.174   3.801  15.157  0.0556  0.5471 -0.1768
 5363TIP3    H137504   2.126   3.884  15.157 -1.3049 -0.1759  1.2188
 5363TIP3    H237505   2.257   3.820  15.114  0.5879  3.0975  1.7732
 5364TIP3   OH237506   4.939   5.657   5.758  0.1770 -0.5770 -0.2088
 5364TIP3    H137507   4.986   5.723   5.707  0.0425 -0.7829 -0.6003
 5364TIP3    H237508   5.008   5.605   5.799  0.2980  0.4531  0.9653
 5365TIP3   OH237509   1.560   4.737   1.877 -0.1942  0.7441 -0.0493
 5365TIP3    H137510   1.614   4.700   1.946 -1.2520 -0.1083  0.3420
 5365TIP3    H237511   1.591   4.828   1.869 -0.4997  1.0782  2.0142
 5366TIP3   OH237512   2.786   1.455   5.008 -0.0599 -0.4016  0.0971
 5366TIP3    H137513   2.699   1.486   5.031  0.1166  1.3419 -1.3345
 5366TIP3    H237514   2.844   1.527   5.034  0.3577  0.7663 -3.5187
 5367TIP3   OH237515   5.072   6.732  16.338  0.5809 -0.4858 -0.1203
 5367TIP3    H137516   5.120   6.797  16.388  1.7310 -2.9652  2.2076
 5367TIP3    H237517   4.981   6.743  16.365  0.2959  1.7562 -1.7261
 5368TIP3   OH237518   1.751   5.876  13.226  0.4877  0.6041 -0.5564
 5368TIP3    H137519   1.837   5.836  13.233 -0.1382 -0.5632  1.1749
 5368TIP3    H237520   1.729   5.869  13.133  1.7974 -0.0800 -0.8321
 5369TIP3   OH237521   0.546   2.076   3.750 -0.8929  0.2258 -0.2968
 5369TIP3    H137522   0.455   2.061   3.723 -1.6323 -1.2353  2.6100
 5369TIP3    H237523   0.557   2.020   3.827  2.1551  1.2272  0.0988
 5370TIP3   OH237524   4.888   1.573  15.002 -0.1790 -0.0725 -0.0559
 5370TIP3    H137525   4.930   1.583  14.916  0.3537  0.3873  0.2490
 5370TIP3    H237526   4.857   1.483  15.004 -1.5055  0.3146 -1.3111
 5371TIP3   OH237527   0.845   2.746  11.635  0.1443 -0.4571  0.0232
 5371TIP3    H137528   0.855   2.704  11.550 -0.6100 -0.8413  0.1176
 5371TIP3    H237529   0.925   2.722  11.683 -0.0413 -1.3799 -0.1057
 5372TIP3   OH237530   1.239   0.004   2.272 -0.1821  0.3980  0.0002
 5372TIP3    H137531   1.153  -0.035   2.254  0.0013  0.0936 -0.2352
 5372TIP3    H237532   1.269   0.037   2.187  0.9089 -1.4949 -0.4066
 5373TIP3   OH237533   2.858   1.194  16.489  0.5655 -0.1462  0.4266
 5373TIP3    H137534   2.825   1.247  16.561  2.2578  1.3513  0.1845
 5373TIP3    H237535   2.920   1.251  16.443 -0.8532 -0.8006 -2.6017
 5374TIP3   OH237536   2.876   3.459   0.124 -0.3610  0.1105 -0.0689
 5374TIP3    H137537   2.959   3.503   0.141 -0.7603  1.1644 -0.7727
 5374TIP3    H237538   2.861   3.405   0.202  1.7235 -1.3243 -0.5765
 5375TIP3   OH237539   5.568   0.761   4.369 -0.2147 -0.6915 -0.5648
 5375TIP3    H137540   5.528   0.838   4.330  0.7281 -1.2713 -2.8140
 5375TIP3    H237541   5.545   0.689   4.311  0.3585 -1.8188  0.5471
 5376TIP3   OH237542   2.633   0.912  14.546 -0.3855  0.3615 -0.0947
 5376TIP3    H137543   2.708   0.943  14.494 -0.6784  0.6424 -0.3534
 5376TIP3    H237544   2.592   0.846  14.490 -1.4587  1.5779 -0.7868
 5377TIP3   OH237545   6.195   3.009  12.927  0.0157 -0.4190  0.0201
 5377TIP3    H137546   6.259   2.941  12.942  0.0146 -0.6518 -0.9466
 5377TIP3    H237547   6.111   2.963  12.921  0.1151 -0.4635 -1.4637
 5378TIP3   OH237548   0.191   3.819  16.110  0.1235 -0.0882  0.4694
 5378TIP3    H137549   0.285   3.818  16.088 -0.2548 -1.7896 -1.4629
 5378TIP3    H237550   0.183   3.757  16.182  0.3907 -0.6139  0.0547
 5379TIP3   OH237551   2.482   3.648   6.384  0.5163  0.2568  0.0240
 5379TIP3    H137552   2.402   3.654   6.436  0.5552 -0.8396  0.2480
 5379TIP3    H237553   2.542   3.711   6.424 -0.2409  1.1279 -0.1807
 5380TIP3   OH237554   6.558   3.495  12.398  0.3360 -0.4085  0.0133
 5380TIP3    H137555   6.609   3.421  12.432  0.3802 -0.6511 -0.5640
 5380TIP3    H237556   6.507   3.525  12.473 -0.0898 -1.3734  0.1334
 5381TIP3   OH237557   1.993   1.957   5.506 -0.4006 -0.0114  0.2364
 5381TIP3    H137558   2.080   1.960   5.465  0.2407  1.6219  1.5900
 5381TIP3    H237559   1.970   1.864   5.505  0.5766 -0.2917 -1.6989
 5382TIP3   OH237560   1.304   4.557   0.566  0.0971 -0.9998  0.0481
 5382TIP3    H137561   1.226   4.608   0.585  0.6533 -0.3772  0.7201
 5382TIP3    H237562   1.337   4.531   0.652 -0.6332 -3.2383 -0.2841
 5383TIP3   OH237563   6.019   0.221  10.382 -0.4687 -0.7423  0.1756
 5383TIP3    H137564   6.030   0.197  10.474 -0.0467  0.9008  0.5818
 5383TIP3    H237565   5.938   0.177  10.355 -2.5758  1.5023  2.3628
 5384TIP3   OH237566   5.201   0.920  13.629 -0.2286 -0.4479 -0.0397
 5384TIP3    H137567   5.228   0.848  13.686 -0.8098 -0.8074 -0.2076
 5384TIP3    H237568   5.272   0.929  13.566  0.0696 -0.5493  0.2759
 5385TIP3   OH237569   1.140   1.265   3.919 -0.1671 -0.2838 -0.2610
 5385TIP3    H137570   1.140   1.247   3.825 -3.1836 -1.9872 -0.0513
 5385TIP3    H237571   1.048   1.275   3.942  0.1829 -2.7736  2.9839
 5386TIP3   OH237572   5.112   4.983   3.832  0.2806 -0.2827 -0.0522
 5386TIP3    H137573   5.021   4.983   3.862  0.4627  0.6101  0.5611
 5386TIP3    H237574   5.121   5.067   3.786  0.6611 -0.5841 -0.5312
 5387TIP3   OH237575   5.344   3.528   5.841 -0.3932  0.2560 -0.0481
 5387TIP3    H137576   5.293   3.602   5.810  0.4376  0.2036 -1.6542
 5387TIP3    H237577   5.381   3.557   5.924  0.6609  2.0223 -1.0686
 5388TIP3   OH237578   3.300   2.130  15.510 -0.1541  0.2668 -0.4646
 5388TIP3    H137579   3.279   2.208  15.460  1.6458  1.4530  0.5112
 5388TIP3    H237580   3.237   2.130  15.582  0.4614  1.4290  0.1039
 5389TIP3   OH237581   0.779   6.796  13.717 -0.3403 -0.1090  0.1291
 5389TIP3    H137582   0.698   6.836  13.685 -0.7271  0.7278  2.0476
 5389TIP3    H237583   0.805   6.736  13.647 -0.7769  2.0618 -2.0381
 5390TIP3   OH237584   0.337   2.556  13.079 -0.1829  0.4342  0.0279
 5390TIP3    H137585   0.407   2.508  13.034 -0.8352 -0.3186 -0.2085
 5390TIP3    H237586   0.311   2.623  13.016 -0.2520  0.1678 -0.2321
 5391TIP3   OH237587   2.812   1.768   3.089  0.0451  0.5151  0.0776
 5391TIP3    H137588   2.886   1.708   3.099 -0.4348  0.0705  0.9874
 5391TIP3    H237589   2.836   1.823   3.013 -0.1440 -1.7370 -1.7186
 5392TIP3   OH237590   5.091   2.404   2.063 -0.2184 -0.3119 -0.4250
 5392TIP3    H137591   5.085   2.446   1.977  0.2969  0.1257 -0.2611
 5392TIP3    H237592   5.112   2.476   2.123 -0.5101 -0.6219  0.0558
 5393TIP3   OH237593   5.435   0.694  12.737  0.0634 -0.0039 -0.1949
 5393TIP3    H137594   5.346   0.718  12.763  0.0894 -1.2774  1.2207
 5393TIP3    H237595   5.492   0.744  12.794  0.3934  2.1723 -2.2688
 5394TIP3   OH237596   0.329   3.129  16.005 -0.1543  0.2277  0.0175
 5394TIP3    H137597   0.388   3.123  15.931  0.9101  1.1406  0.7696
 5394TIP3    H237598   0.375   3.183  16.069 -1.1160 -0.3834  1.2812
 5395TIP3   OH237599   2.261   5.537  15.500  0.1080  0.6877 -0.2873
 5395TIP3    H137600   2.334   5.505  15.552  0.5457 -1.1255 -1.9206
 5395TIP3    H237601   2.224   5.460  15.458 -1.7068  1.7742 -0.8392
 5396TIP3   OH237602   4.134   2.699   3.230 -0.0307 -0.6153  0.0360
 5396TIP3    H137603   4.119   2.766   3.297  1.1834 -1.3293  1.0553
 5396TIP3    H237604   4.119   2.745   3.147  0.5435  0.8536  0.7150
 5397TIP3   OH237605   1.242   4.919  11.602  0.3451 -1.0071  0.0244
 5397TIP3    H137606   1.258   4.934  11.508  0.6506 -2.7974 -0.2424
 5397TIP3    H237607   1.320   4.953  11.645  0.7770 -1.3319 -0.4891
 5398TIP3   OH237608   0.694   2.936  15.829 -0.0679  0.0059 -0.5782
 5398TIP3    H137609   0.674   2.890  15.911  1.4991  0.4654  0.0943
 5398TIP3    H237610   0.654   2.882  15.761 -0.6521 -0.8539  0.4152
 5399TIP3   OH237611   0.956   6.332  16.438  0.1917  0.0076 -0.0470
 5399TIP3    H137612   1.042   6.353  16.401 -0.2078  1.4956 -0.2007
 5399TIP3    H237613   0.898   6.400  16.403 -0.9118 -0.5810  0.5968
 5400TIP3   OH237614   2.732   5.054   5.169  0.0269  0.3507  0.8304
 5400TIP3    H137615   2.651   5.022   5.130 -0.2579  0.1667  1.5450
 5400TIP3    H237616   2.786   4.976   5.182  0.0396  0.3818  0.9745
 5401TIP3   OH237617   5.203   5.318  11.548 -0.1736 -0.4322 -0.0073
 5401TIP3    H137618   5.107   5.320  11.554 -0.2217 -1.7636 -0.1313
 5401TIP3    H237619   5.222   5.360  11.464 -0.7441 -1.3386 -0.6109
 5402TIP3   OH237620   0.879   2.433   4.335 -0.0625 -0.0242 -0.1571
 5402TIP3    H137621   0.828   2.479   4.401 -1.8011  0.8838 -2.0261
 5402TIP3    H237622   0.922   2.363   4.383 -1.9439  0.0375  1.7836
 5403TIP3   OH237623   5.961   1.894   4.028 -0.1216 -0.2970 -0.0586
 5403TIP3    H137624   5.900   1.845   3.972 -0.6162 -0.5631  0.7069
 5403TIP3    H237625   5.981   1.973   3.978 -1.1474 -0.1761 -0.2907
 5404TIP3   OH237626   3.090   3.632  11.031  0.3475  0.5020 -0.3496
 5404TIP3    H137627   3.039   3.554  11.011 -0.4033  0.9445 -0.1859
 5404TIP3    H237628   3.168   3.599  11.077 -0.2776 -0.0965  0.3031
 5405TIP3   OH237629   0.459   1.972  16.289 -0.4023 -0.1636 -0.4092
 5405TIP3    H137630   0.461   1.974  16.194 -2.5996 -2.2901 -0.5831
 5405TIP3    H237631   0.424   2.058  16.314 -0.5190  0.1370 -1.5414
 5406TIP3   OH237632   3.548   1.150   6.083  1.3065  0.0366 -0.5951
 5406TIP3    H137633   3.565   1.085   6.014 -1.0152 -0.9495 -0.3426
 5406TIP3    H237634   3.506   1.100   6.152 -1.6194  1.9362 -0.8462
 5407TIP3   OH237635   3.090   4.951   5.643 -0.0920 -0.3678 -0.5368
 5407TIP3    H137636   3.028   5.001   5.696  0.2338 -0.3373 -0.1767
 5407TIP3    H237637   3.155   4.921   5.706 -0.6871 -1.9005 -0.5969
 5408TIP3   OH237638   5.042   2.048  13.870  0.4974  0.5250  0.5472
 5408TIP3    H137639   5.060   1.955  13.882  1.9059  0.8407  1.1624
 5408TIP3    H237640   4.991   2.053  13.790  0.7626 -0.7448  0.2788
 5409TIP3   OH237641   1.163   2.704   1.497 -0.2349 -0.6241  0.7702
 5409TIP3    H137642   1.089   2.680   1.552 -1.4213  1.3392  0.1681
 5409TIP3    H237643   1.240   2.687   1.550 -1.2558 -0.3677  2.3898
 5410TIP3   OH237644   2.059   6.334   4.645 -0.4465 -0.3477  0.0101
 5410TIP3    H137645   2.139   6.314   4.694  0.0268  0.8889 -0.2293
 5410TIP3    H237646   2.077   6.303   4.556 -0.4381 -0.5216  0.0707
 5411TIP3   OH237647   6.721   1.624   0.866 -0.1459 -0.2364  0.1702
 5411TIP3    H137648   6.705   1.712   0.900 -1.0389  0.0610 -0.9688
 5411TIP3    H237649   6.637   1.596   0.831  0.5118 -0.8861 -0.9344
 5412TIP3   OH237650   4.563   0.944   6.479  0.1777 -0.3797 -0.4641
 5412TIP3    H137651   4.653   0.930   6.509 -0.1044  0.7679  1.0486
 5412TIP3    H237652   4.564   0.917   6.387  2.0733 -0.3514 -0.4962
 5413TIP3   OH237653   4.815   4.531   0.296  0.0312  0.3699 -0.3199
 5413TIP3    H137654   4.815   4.436   0.301  0.5619  0.2156 -2.3839
 5413TIP3    H237655   4.907   4.556   0.294 -0.1019  0.8844 -0.3429
 5414TIP3   OH237656   5.672   2.614  15.114 -0.4922  0.4527  0.0305
 5414TIP3    H137657   5.654   2.707  15.128  0.0893  0.7195 -0.9136
 5414TIP3    H237658   5.675   2.604  15.019 -0.6497 -0.5551  0.1176
 5415TIP3   OH237659   6.674   4.597   1.832 -0.5793  0.0213  0.1368
 5415TIP3    H137660   6.623   4.551   1.898 -0.1527 -0.7429 -0.0594
 5415TIP3    H237661   6.675   4.688   1.862 -1.5093 -0.0747  0.4710
 5416TIP3   OH237662   2.603   4.386   2.345  0.1589  0.0971  0.0680
 5416TIP3    H137663   2.581   4.312   2.401  0.8007 -0.4796 -0.4442
 5416TIP3    H237664   2.660   4.441   2.399 -1.0128  0.6911  0.7608
 5417TIP3   OH237665   5.898   6.752  15.520 -0.2449  0.5663  0.1519
 5417TIP3    H137666   5.922   6.696  15.594 -2.6212 -1.6410 -0.6036
 5417TIP3    H237667   5.963   6.732  15.452  0.8304  1.1967  0.9689
 5418TIP3   OH237668   5.927   0.733  12.929 -0.0878  0.3477  0.0228
 5418TIP3    H137669   5.909   0.652  12.977 -1.4348  0.4875 -0.2350
 5418TIP3    H237670   5.875   0.726  12.850 -1.9934  2.4227  0.9940
 5419TIP3   OH237671   2.990   3.821   3.414  0.1431  0.5592  0.7572
 5419TIP3    H137672   3.049   3.810   3.340 -0.8209  2.3324 -0.3418
 5419TIP3    H237673   2.933   3.744   3.412  0.0747  0.6287 -0.4066
 5420TIP3   OH237674   2.756   0.667   3.899  0.5673  0.4085  0.2207
 5420TIP3    H137675   2.815   0.666   3.823 -0.2797 -1.4041 -0.4503
 5420TIP3    H237676   2.668   0.669   3.862  0.1334 -0.7731  1.1208
 5421TIP3   OH237677   1.868   3.901  15.839  0.2178 -0.6684 -0.5257
 5421TIP3    H137678   1.947   3.863  15.879 -0.1437 -0.6823  0.1816
 5421TIP3    H237679   1.885   3.995  15.836 -0.0356 -0.5934  0.2991
 5422TIP3   OH237680   6.288   0.918  16.826  1.1509 -0.1838  0.2099
 5422TIP3    H137681   6.306   1.007  16.856  1.2296 -0.0679 -0.1776
 5422TIP3    H237682   6.264   0.871  16.906 -0.7145  0.6340  0.1802
 5423TIP3   OH237683   1.669   3.758  13.093 -0.2763  0.2476  0.6936
 5423TIP3    H137684   1.625   3.676  13.116  0.6550 -0.2743  0.6589
 5423TIP3    H237685   1.608   3.826  13.123 -0.5638 -0.4437  1.7486
 5424TIP3   OH237686   4.906   4.319   5.913  0.7029 -0.1749  0.0889
 5424TIP3    H137687   4.831   4.284   5.961 -0.1042  1.9237  0.4676
 5424TIP3    H237688   4.874   4.331   5.824 -0.2185  2.6985  0.6913
 5425TIP3   OH237689   2.193   2.236   6.102 -0.1181  0.3973  0.1385
 5425TIP3    H137690   2.161   2.323   6.126 -1.3353 -0.0739  0.3252
 5425TIP3    H237691   2.284   2.249   6.078 -0.4446  1.8244 -0.4236
 5426TIP3   OH237692   4.291   1.448   0.573 -0.1671  0.0623  0.3080
 5426TIP3    H137693   4.373   1.399   0.562  1.1215  2.2380 -0.4556
 5426TIP3    H237694   4.254   1.414   0.655  0.1984 -2.6883 -0.5847
 5427TIP3   OH237695   0.361   2.708   0.499  0.2085  0.1523 -0.1730
 5427TIP3    H137696   0.448   2.707   0.459 -0.5812  1.1943 -2.0465
 5427TIP3    H237697   0.367   2.645   0.570  1.8507 -1.4913 -1.6630
 5428TIP3   OH237698   2.430   0.646  14.916 -0.3267 -0.5500  0.3172
 5428TIP3    H137699   2.481   0.591  14.856 -1.6531 -1.4893  0.0155
 5428TIP3    H237700   2.483   0.649  14.996  0.8754 -0.2954 -0.4596
 5429TIP3   OH237701   6.727   4.460   3.158 -0.1093 -0.4439 -0.1124
 5429TIP3    H137702   6.678   4.454   3.075  1.2769  1.0534 -1.1142
 5429TIP3    H237703   6.810   4.417   3.139  0.1621 -0.2136  0.5557
 5430TIP3   OH237704   4.297   1.150   5.018 -0.4204 -0.2248 -0.5248
 5430TIP3    H137705   4.378   1.108   4.989  0.2957 -0.1234  1.2254
 5430TIP3    H237706   4.315   1.244   5.012  0.6854 -0.1322  2.4482
 5431TIP3   OH237707   6.795   1.533   1.972  0.1414 -0.2316 -0.1193
 5431TIP3    H137708   6.844   1.594   2.027 -1.5176 -0.3571  1.6005
 5431TIP3    H237709   6.705   1.565   1.975 -0.3770 -1.5399 -0.9440
 5432TIP3   OH237710   1.857   4.951  16.817  0.1821 -0.5419 -0.1182
 5432TIP3    H137711   1.873   4.956  16.723 -1.8914  0.3380 -0.4754
 5432TIP3    H237712   1.766   4.924  16.825  0.4626 -1.1163  1.6603
 5433TIP3   OH237713   5.579   2.231   4.718 -0.3922  0.5841  0.0917
 5433TIP3    H137714   5.615   2.224   4.806  2.9906 -0.0928 -1.1895
 5433TIP3    H237715   5.602   2.320   4.690  1.6975 -0.3136 -1.2490
 5434TIP3   OH237716   6.330   4.049   1.457 -0.1565 -0.3858 -0.0977
 5434TIP3    H137717   6.289   4.107   1.393 -0.5143 -1.7957 -1.1911
 5434TIP3    H237718   6.407   4.097   1.487 -0.0750  0.3806 -1.4693
 5435TIP3   OH237719   2.768   4.104   3.632 -0.3352 -0.1162  0.2449
 5435TIP3    H137720   2.704   4.165   3.669 -0.9286 -0.1592 -0.6686
 5435TIP3    H237721   2.828   4.159   3.582  0.5130 -0.0479  1.3112
 5436TIP3   OH237722   5.814   1.899  12.238 -0.0180 -0.1743 -0.3723
 5436TIP3    H137723   5.741   1.843  12.211 -0.9516  1.1631 -0.7721
 5436TIP3    H237724   5.836   1.948  12.158  1.2909 -0.5268 -0.2389
 5437TIP3   OH237725   6.479   5.936  11.355  0.3800 -0.0527  0.1319
 5437TIP3    H137726   6.391   5.974  11.360 -0.2892 -1.5438  0.2242
 5437TIP3    H237727   6.515   5.948  11.443 -1.1879 -2.6796  1.2420
 5438TIP3   OH237728   2.613   6.716   5.144 -0.3406  0.3131 -0.0599
 5438TIP3    H137729   2.614   6.624   5.171 -1.0965 -0.6659 -2.8975
 5438TIP3    H237730   2.554   6.759   5.206 -1.9119 -1.6766 -0.0606
 5439TIP3   OH237731   4.406   3.134  11.166 -0.2145  0.1568  0.6872
 5439TIP3    H137732   4.373   3.055  11.123  2.0072  0.8402 -2.6411
 5439TIP3    H237733   4.495   3.112  11.192 -0.0272  1.1474  0.9217
 5440TIP3   OH237734   0.857   1.630  13.649  0.2207  0.0577 -0.0527
 5440TIP3    H137735   0.927   1.568  13.632  1.8231  1.6571  0.3258
 5440TIP3    H237736   0.780   1.593  13.606  1.6717 -0.9884 -1.8871
 5441TIP3   OH237737   2.797   1.639   3.437  0.7468  0.1144 -0.2828
 5441TIP3    H137738   2.793   1.555   3.391 -0.8092 -0.3617  0.6198
 5441TIP3    H237739   2.865   1.628   3.504  2.4907  0.5589 -1.9116
 5442TIP3   OH237740   3.347   0.836  14.818  0.0910 -0.2278 -0.1625
 5442TIP3    H137741   3.387   0.903  14.873  0.9311  1.0428 -2.1781
 5442TIP3    H237742   3.397   0.756  14.837  0.0899  0.0678  1.1722
 5443TIP3   OH237743   5.866   1.119  13.992  0.2746  0.5255 -0.1914
 5443TIP3    H137744   5.813   1.174  13.934  1.5267  1.4933 -0.4606
 5443TIP3    H237745   5.860   1.031  13.954  0.5093  1.0088 -1.3793
 5444TIP3   OH237746   2.748   1.610  16.836  0.4095 -0.0836 -0.2452
 5444TIP3    H137747   2.696   1.663  16.896 -1.7287 -1.6339 -0.6062
 5444TIP3    H237748   2.715   1.633  16.749  1.1448 -0.2613 -0.5826
 5445TIP3   OH237749   5.936   5.735   1.809  0.1775  0.1284 -0.3652
 5445TIP3    H137750   5.961   5.665   1.870 -1.6976  1.2169  1.8620
 5445TIP3    H237751   5.999   5.805   1.825 -0.2082  0.3454  0.2830
 5446TIP3   OH237752   2.365   4.385   0.239  0.3311 -0.6904  0.2423
 5446TIP3    H137753   2.362   4.441   0.161 -2.0230  0.3711  1.0106
 5446TIP3    H237754   2.320   4.305   0.213 -1.2654  0.0180  0.7127
 5447TIP3   OH237755   3.048   3.883   5.014 -0.3674  0.4469 -0.4901
 5447TIP3    H137756   2.993   3.826   5.068  0.1126 -1.2780 -1.7181
 5447TIP3    H237757   3.031   3.971   5.047 -0.7452 -0.4375  1.8412
 5448TIP3   OH237758   3.218   1.002  14.585 -1.0088  0.1611 -0.0968
 5448TIP3    H137759   3.238   0.989  14.678  1.5646  1.2096 -0.4194
 5448TIP3    H237760   3.259   0.928  14.541  1.6690  1.8804 -0.7076
 5449TIP3   OH237761   0.037   0.437  13.584  0.3698  0.4005 -0.0955
 5449TIP3    H137762  -0.037   0.481  13.625 -0.1643  0.4551 -1.0781
 5449TIP3    H237763   0.101   0.426  13.654 -1.3347 -1.4303  1.2729
 5450TIP3   OH237764   4.757   1.023   5.979  0.2827  0.5012  0.1035
 5450TIP3    H137765   4.832   0.979   5.940 -0.2352  0.4988 -0.9192
 5450TIP3    H237766   4.734   1.092   5.917 -0.5809  0.4779  0.3826
 5451TIP3   OH237767   5.030   6.230   4.594 -0.2191 -0.0801  0.9475
 5451TIP3    H137768   5.073   6.177   4.526 -1.5461  0.3785 -0.3129
 5451TIP3    H237769   5.095   6.236   4.664  1.5667  0.1710 -0.6310
 5452TIP3   OH237770   1.152   1.572  13.783  0.5458 -0.9334 -0.2433
 5452TIP3    H137771   1.078   1.587  13.841  0.1590  1.0309 -1.1632
 5452TIP3    H237772   1.219   1.533  13.839  0.6505  2.0014  1.9214
 5453TIP3   OH237773   1.345   2.361   3.696 -0.2041 -0.2902  0.0120
 5453TIP3    H137774   1.422   2.330   3.743  0.0158 -0.4206 -0.4245
 5453TIP3    H237775   1.272   2.309   3.731 -0.3345  0.7319  1.3643
 5454TIP3   OH237776   6.335   4.657   1.190 -0.2897 -0.0717 -0.3590
 5454TIP3    H137777   6.345   4.566   1.218  1.7221 -0.2400 -1.4495
 5454TIP3    H237778   6.315   4.651   1.096  0.3780  0.6185 -0.5481
 5455TIP3   OH237779   4.579   6.621  14.792  0.1936  0.5633 -0.0545
 5455TIP3    H137780   4.509   6.567  14.829  0.2727  0.2838 -0.3035
 5455TIP3    H237781   4.602   6.682  14.861 -0.9527  1.2881 -0.2916
 5456TIP3   OH237782   1.367   4.679  11.675 -0.1956  0.0882 -0.1664
 5456TIP3    H137783   1.418   4.703  11.752  0.3795  1.5128 -0.9423
 5456TIP3    H237784   1.326   4.761  11.647  1.9012  0.3384 -3.0130
 5457TIP3   OH237785   0.574   1.803   3.296  0.5948 -0.1279 -0.0213
 5457TIP3    H137786   0.532   1.817   3.211  1.8613 -0.5407 -0.7412
 5457TIP3    H237787   0.576   1.890   3.336  0.3678  0.1473 -0.5922
 5458TIP3   OH237788   1.417   4.846   2.753 -0.4172 -0.7317  0.1296
 5458TIP3    H137789   1.412   4.769   2.809  1.1849  0.4758  2.0575
 5458TIP3    H237790   1.460   4.815   2.673  1.4930 -1.6287  1.4264
 5459TIP3   OH237791   2.383   1.317   1.722 -0.3366  0.3141  0.1010
 5459TIP3    H137792   2.288   1.304   1.733 -0.4780  0.3622 -0.9836
 5459TIP3    H237793   2.421   1.233   1.748 -0.5892  0.5655  1.3915
 5460TIP3   OH237794   3.962   4.680  11.286 -0.7186  0.5766  0.2094
 5460TIP3    H137795   4.036   4.739  11.269 -0.6732  0.3377 -0.4627
 5460TIP3    H237796   3.994   4.594  11.259 -1.1011  0.4035  0.3083
 5461TIP3   OH237797   5.931   0.713   4.919  0.0527  0.0783 -0.0716
 5461TIP3    H137798   5.972   0.631   4.947  1.3862 -0.1296 -2.4046
 5461TIP3    H237799   5.897   0.752   5.000  3.0984 -0.7222  1.7458
 5462TIP3   OH237800   3.948   4.786   6.086  0.0263 -0.3370 -0.2647
 5462TIP3    H137801   3.931   4.726   6.158 -2.1243  0.8278  0.2864
 5462TIP3    H237802   3.967   4.870   6.128  0.1421  0.0379 -1.0399
 5463TIP3   OH237803   1.777   6.157  10.451  0.1642  0.3077 -0.2504
 5463TIP3    H137804   1.861   6.124  10.483  0.6530  1.4512 -0.3137
 5463TIP3    H237805   1.733   6.080  10.416  1.2040 -0.2989 -0.2628
 5464TIP3   OH237806   3.302   5.924  14.505  0.3897  0.1752  0.6416
 5464TIP3    H137807   3.392   5.927  14.472  0.8908 -1.4733  1.7188
 5464TIP3    H237808   3.256   5.866  14.446  0.0778  0.8400  0.2219
 5465TIP3   OH237809   6.664   6.104  12.324 -0.3331  0.8007  0.3747
 5465TIP3    H137810   6.572   6.095  12.302 -0.1102  0.3764 -0.4584
 5465TIP3    H237811   6.684   6.025  12.374 -0.2235  0.4291 -0.2308
 5466TIP3   OH237812   3.854   3.400   1.402 -0.0600  0.4402 -0.0347
 5466TIP3    H137813   3.839   3.428   1.492 -0.2535 -0.4357  0.2131
 5466TIP3    H237814   3.881   3.308   1.409 -0.5472  0.2168 -0.8916
 5467TIP3   OH237815   5.175   5.436  11.282  0.0533  0.2327 -0.3864
 5467TIP3    H137816   5.093   5.473  11.315  0.0111 -0.1032 -0.1019
 5467TIP3    H237817   5.179   5.464  11.191  0.1869  1.2125 -0.0944
 5468TIP3   OH237818   1.926   4.704   0.975 -0.0749 -0.4447  0.3795
 5468TIP3    H137819   2.000   4.757   1.003  0.0151  0.1390 -0.8867
 5468TIP3    H237820   1.861   4.768   0.945 -1.1610 -0.9335  1.5658
 5469TIP3   OH237821   3.995   6.563  11.334  0.2634  0.2475 -0.2708
 5469TIP3    H137822   3.964   6.486  11.381  0.4653 -0.0099 -0.5539
 5469TIP3    H237823   4.002   6.631  11.401  0.2502 -0.0290  0.0122
 5470TIP3   OH237824   4.940   3.736   4.227 -0.0310 -0.0121  0.1491
 5470TIP3    H137825   4.993   3.758   4.304  2.4307 -0.6179 -1.2853
 5470TIP3    H237826   4.902   3.820   4.200 -2.0079  0.0456  2.6386
 5471TIP3   OH237827   3.000   5.503  13.756  0.2788  0.1988  0.0486
 5471TIP3    H137828   3.028   5.499  13.848 -1.0814 -1.3265  0.4422
 5471TIP3    H237829   3.050   5.432  13.714  1.1063  1.0709 -0.4857
 5472TIP3   OH237830   0.074   4.277   2.035 -0.0486  0.6440 -0.0476
 5472TIP3    H137831   0.103   4.186   2.032  0.4487  0.7318  1.3581
 5472TIP3    H237832   0.017   4.287   1.959 -0.7657 -1.0703  0.2285
 5473TIP3   OH237833   3.569   2.443   0.181 -0.4857  0.3736  0.0238
 5473TIP3    H137834   3.597   2.534   0.176  0.3958  0.0779 -0.6631
 5473TIP3    H237835   3.647   2.392   0.161 -1.1499 -0.5177 -0.3821
 5474TIP3   OH237836   3.649   1.929   1.161  0.3716  0.2291  0.7206
 5474TIP3    H137837   3.668   2.014   1.200 -0.6992  0.9135 -0.2030
 5474TIP3    H237838   3.617   1.949   1.073  0.6364 -1.1610  0.2830
 5475TIP3   OH237839   2.826   0.593   3.308 -0.2461 -0.1660 -0.5191
 5475TIP3    H137840   2.830   0.645   3.388  1.4606  0.6146 -1.0499
 5475TIP3    H237841   2.878   0.515   3.328  0.4799  0.1917 -0.9347
 5476TIP3   OH237842   3.449   3.247   1.123  0.2953  0.4076  0.1540
 5476TIP3    H137843   3.430   3.265   1.032  0.7342  2.1670  0.3732
 5476TIP3    H237844   3.374   3.282   1.171 -0.3413 -1.2693  0.4522
 5477TIP3   OH237845   6.633   3.057  10.907  0.1442 -0.0485 -0.1378
 5477TIP3    H137846   6.587   3.109  10.842 -0.7390 -0.1416  0.4031
 5477TIP3    H237847   6.656   2.976  10.861 -0.5769 -0.1617 -0.2982
 5478TIP3   OH237848   6.008   1.592  11.193 -0.1995  0.0403 -0.1750
 5478TIP3    H137849   6.056   1.673  11.173  1.2091 -1.0660 -1.5156
 5478TIP3    H237850   6.074   1.531  11.224 -1.0606 -0.9345 -0.1787
 5479TIP3   OH237851   2.668   5.132   2.380 -0.2350  0.0126  0.0072
 5479TIP3    H137852   2.717   5.161   2.457  0.9748  0.8466 -1.0456
 5479TIP3    H237853   2.577   5.156   2.399  0.0600  0.3313  1.0990
 5480TIP3   OH237854   3.281   3.170  11.962  0.4031  0.5433  0.3550
 5480TIP3    H137855   3.284   3.253  12.011 -0.1855  0.4014  0.6444
 5480TIP3    H237856   3.359   3.122  11.991 -0.3017  0.1640  1.7095
 5481TIP3   OH237857   2.660   5.079   3.816  0.1439  0.0228 -0.5910
 5481TIP3    H137858   2.701   4.995   3.835  1.4576  0.6733 -0.3854
 5481TIP3    H237859   2.686   5.136   3.888 -1.0549  0.5108 -0.5201
 5482TIP3   OH237860   2.447   3.983  12.208  0.1735  0.0266  0.0864
 5482TIP3    H137861   2.518   3.996  12.146  0.0806 -0.3473 -0.1031
 5482TIP3    H237862   2.490   3.980  12.294  0.3247  0.3291  0.0214
 5483TIP3   OH237863   2.779   0.718  12.401  0.0427  0.1970  0.0337
 5483TIP3    H137864   2.836   0.765  12.461  1.3523 -2.1118  0.7038
 5483TIP3    H237865   2.752   0.784  12.337  1.6125  1.8800  1.0211
 5484TIP3   OH237866   1.922   4.517  15.258 -1.3374 -0.4355  0.1179
 5484TIP3    H137867   1.940   4.549  15.346 -0.2999 -0.9087  0.0924
 5484TIP3    H237868   1.998   4.543  15.207 -2.4248  0.8199 -0.9300
 5485TIP3   OH237869   2.817   3.064  11.231  0.5753  0.5098 -0.0844
 5485TIP3    H137870   2.875   3.058  11.307  0.3864  2.0470  0.1981
 5485TIP3    H237871   2.852   3.136  11.179 -0.0879  0.3487 -0.7773
 5486TIP3   OH237872   1.639   1.026   0.633 -0.1781 -0.2934 -0.0142
 5486TIP3    H137873   1.590   1.109   0.628 -1.2457 -0.9356 -0.6566
 5486TIP3    H237874   1.584   0.964   0.585 -1.2203 -2.2707  3.4163
 5487TIP3   OH237875   0.290   4.283  12.516 -0.2610 -0.0660  0.7432
 5487TIP3    H137876   0.298   4.221  12.444  0.0691 -1.2207  1.7227
 5487TIP3    H237877   0.196   4.288  12.534 -0.2435 -0.8736  1.1173
 5488TIP3   OH237878   1.415   0.317  15.017  0.1784  0.4534 -0.0028
 5488TIP3    H137879   1.401   0.362  14.934 -0.3218  1.2073  0.4765
 5488TIP3    H237880   1.331   0.274  15.036  0.7592 -1.0551 -0.6477
 5489TIP3   OH237881   3.440   4.860   0.374 -0.3369  0.0508  0.8629
 5489TIP3    H137882   3.346   4.854   0.391 -0.1632 -0.6224  1.6444
 5489TIP3    H237883   3.447   4.924   0.303 -1.1298  3.1682  3.3592
 5490TIP3   OH237884   5.531   6.521  15.743  0.0900  0.3456 -0.0621
 5490TIP3    H137885   5.613   6.536  15.790  0.2979  0.3267 -0.4141
 5490TIP3    H237886   5.477   6.598  15.761  0.7539  1.0678 -1.0299
 5491TIP3   OH237887   1.999   0.122   4.997  0.0871  0.3475  0.5078
 5491TIP3    H137888   1.937   0.195   5.002 -0.3826  0.2064 -1.9857
 5491TIP3    H237889   1.971   0.063   5.067 -1.8495  0.8685  0.2417
 5492TIP3   OH237890   6.660   4.288  13.033  0.3075 -0.0373  0.1126
 5492TIP3    H137891   6.602   4.359  13.005 -0.5355 -0.9549 -0.5034
 5492TIP3    H237892   6.603   4.223  13.074  1.0190 -0.5355  0.3433
 5493TIP3   OH237893   0.044   1.932  15.426 -0.2308 -0.1250 -0.2523
 5493TIP3    H137894   0.134   1.961  15.412 -0.0909 -0.8445 -0.9002
 5493TIP3    H237895   0.023   1.879  15.349 -1.3470  0.3529 -0.2976
 5494TIP3   OH237896   2.096   1.582   0.298 -0.4393 -0.5012 -0.5253
 5494TIP3    H137897   2.145   1.624   0.370 -1.6009 -0.0723  0.0318
 5494TIP3    H237898   2.062   1.501   0.337 -1.1046 -0.2484 -0.5737
 5495TIP3   OH237899   2.377   1.216   3.896  0.3610  0.4901  0.5119
 5495TIP3    H137900   2.330   1.173   3.825 -1.8349  1.4093  1.3221
 5495TIP3    H237901   2.367   1.158   3.971  2.3031 -0.2720  0.2150
 5496TIP3   OH237902   3.949   2.720   0.863  0.5652 -0.3481  0.1325
 5496TIP3    H137903   4.016   2.705   0.796  2.1565 -0.9162  1.7864
 5496TIP3    H237904   3.946   2.638   0.912  0.7150  0.6387  1.8427
 5497TIP3   OH237905   5.029   1.413   5.366 -0.0313 -0.5833  0.2068
 5497TIP3    H137906   5.073   1.328   5.362  1.7096  0.2492  1.0888
 5497TIP3    H237907   5.070   1.465   5.296 -0.7354 -0.2810  0.0040
 5498TIP3   OH237908   0.336   4.540   5.830  0.0718 -0.3332  0.0215
 5498TIP3    H137909   0.323   4.590   5.911  0.5889  1.0026 -0.7016
 5498TIP3    H237910   0.430   4.526   5.825 -0.0574 -1.3353  0.1685
 5499TIP3   OH237911   4.687   0.705  13.266  0.5877  0.1732 -0.2440
 5499TIP3    H137912   4.735   0.623  13.267 -0.6888 -0.5948 -0.4930
 5499TIP3    H237913   4.664   0.720  13.358  1.2109  0.4986 -0.1366
 5500TIP3   OH237914   2.369   1.825   2.118 -0.0708 -0.2684 -0.0067
 5500TIP3    H137915   2.289   1.803   2.071  0.6099 -0.8605 -0.9188
 5500TIP3    H237916   2.419   1.880   2.057  0.3475 -0.1595  0.4264
 5501TIP3   OH237917   0.966   4.534   2.098 -0.2758 -0.3703  0.7891
 5501TIP3    H137918   1.026   4.568   2.164  0.2043  0.3013  0.0325
 5501TIP3    H237919   1.015   4.464   2.055  0.3662  0.7783 -0.4427
 5502TIP3   OH237920   2.694   4.884   4.467 -0.5569  0.0142 -0.2641
 5502TIP3    H137921   2.607   4.854   4.441  0.0593 -1.0707 -1.1336
 5502TIP3    H237922   2.754   4.818   4.432  0.4851 -0.3616  2.0460
 5503TIP3   OH237923   2.924   6.087   5.818  0.1020  0.5047  0.4623
 5503TIP3    H137924   2.944   6.080   5.912 -1.6452 -0.1060  0.8324
 5503TIP3    H237925   2.866   6.163   5.812 -0.4808  0.0337  0.0115
 5504TIP3   OH237926   0.380   4.853   4.454  0.1549 -0.2387 -0.1918
 5504TIP3    H137927   0.298   4.807   4.470 -0.6765  0.6814 -1.5910
 5504TIP3    H237928   0.381   4.923   4.520  0.4299 -0.9841  0.6131
 5505TIP3   OH237929   6.408   5.491  16.544 -0.6489 -0.2284 -0.3663
 5505TIP3    H137930   6.498   5.461  16.558 -1.0821 -0.5224  2.3212
 5505TIP3    H237931   6.415   5.556  16.475  1.4700 -1.0014 -0.9485
 5506TIP3   OH237932   3.363   3.781   5.892 -0.3249 -0.3462  0.5724
 5506TIP3    H137933   3.299   3.742   5.952  0.5969 -0.6201  1.3920
 5506TIP3    H237934   3.415   3.707   5.862  0.1007 -0.0203  0.5099
 5507TIP3   OH237935   5.068   1.459   1.822 -0.4979  0.6136 -0.5566
 5507TIP3    H137936   5.027   1.422   1.901  2.8279  1.0013  1.5490
 5507TIP3    H237937   5.106   1.383   1.777 -0.8527  0.5964 -0.8334
 5508TIP3   OH237938   3.597   2.611  14.614 -0.2340  0.0397  0.7460
 5508TIP3    H137939   3.682   2.617  14.656  0.3673 -0.9130 -0.2823
 5508TIP3    H237940   3.597   2.526  14.569 -0.6164  1.1745 -1.5833
 5509TIP3   OH237941   0.666   5.145   4.558 -0.1646  0.5412  0.5374
 5509TIP3    H137942   0.614   5.216   4.520 -0.2571  0.6040  0.7778
 5509TIP3    H237943   0.707   5.102   4.483 -0.0384  0.9033  0.3959
 5510TIP3   OH237944   2.925   0.612  10.316  0.2594  0.1943 -0.0478
 5510TIP3    H137945   2.985   0.686  10.331  0.4440  0.0675 -0.1469
 5510TIP3    H237946   2.851   0.651  10.271 -0.7610  0.7597  2.0043
 5511TIP3   OH237947   4.067   0.764   3.238  0.3441 -0.1647  0.5948
 5511TIP3    H137948   4.145   0.760   3.293 -0.7239 -0.6659  2.1609
 5511TIP3    H237949   4.073   0.848   3.193  1.4020  0.1442  1.2842
 5512TIP3   OH237950   4.362   2.331   4.136  0.0210  0.3684 -0.6054
 5512TIP3    H137951   4.298   2.314   4.205  0.2253 -0.1614 -0.5436
 5512TIP3    H237952   4.330   2.411   4.093  0.1413  0.9742  0.3926
 5513TIP3   OH237953   5.378   2.633   4.018 -0.7035 -0.3310 -0.2764
 5513TIP3    H137954   5.370   2.674   4.104  1.6718  1.9219 -0.9901
 5513TIP3    H237955   5.398   2.705   3.959 -1.2698 -1.9505 -2.5756
 5514TIP3   OH237956   6.392   5.825  14.221  0.1787 -0.2735 -0.0489
 5514TIP3    H137957   6.427   5.738  14.203  2.7369  1.1380 -2.8387
 5514TIP3    H237958   6.443   5.856  14.296  0.7795 -0.4171 -0.3900
 5515TIP3   OH237959   5.064   0.955  14.913 -0.0003 -0.1958  0.3960
 5515TIP3    H137960   5.015   0.879  14.882 -2.1968  0.3530  2.3006
 5515TIP3    H237961   5.032   0.970  15.002  1.3796  2.1419  0.5734
 5516TIP3   OH237962   0.673   5.816   5.492  0.3427 -0.0893  0.0194
 5516TIP3    H137963   0.729   5.761   5.437  2.3882  0.5227  1.3670
 5516TIP3    H237964   0.672   5.771   5.577 -1.3869 -0.1588 -0.0042
 5517TIP3   OH237965   6.492   3.989   5.622  0.1019 -0.3832 -0.4789
 5517TIP3    H137966   6.513   4.010   5.712 -1.8907  2.2324 -0.4976
 5517TIP3    H237967   6.427   3.918   5.628  0.9093 -1.0881  0.0515
 5518TIP3   OH237968   2.915   2.844   5.224  0.0623  0.0081  0.3336
 5518TIP3    H137969   2.883   2.863   5.312  1.9524 -0.9263  1.2907
 5518TIP3    H237970   2.895   2.923   5.174 -0.7787  0.6902  1.6749
 5519TIP3   OH237971   0.592   0.729  16.549  0.2481 -0.1436  0.3447
 5519TIP3    H137972   0.534   0.755  16.621  0.8297 -0.6138  0.9880
 5519TIP3    H237973   0.652   0.802  16.539 -1.0651  0.8216 -1.0251
 5520TIP3   OH237974   4.986   1.889  11.669  0.2702  0.2814 -0.3923
 5520TIP3    H137975   4.987   1.802  11.628  1.7121  0.2026 -0.2326
 5520TIP3    H237976   5.008   1.949  11.598  1.1240  0.3133 -0.1107
 5521TIP3   OH237977   2.365   4.338   1.052 -0.3547 -1.1447 -0.2592
 5521TIP3    H137978   2.389   4.305   1.139 -1.2187 -1.4648 -0.1383
 5521TIP3    H237979   2.276   4.306   1.038 -0.7629  0.1250 -0.6607
 5522TIP3   OH237980   6.577   6.236   0.062 -0.0219  0.5653 -0.2507
 5522TIP3    H137981   6.521   6.300   0.106 -2.1099 -2.6008  2.1310
 5522TIP3    H237982   6.655   6.231   0.116 -0.5160  0.0799  0.4346
 5523TIP3   OH237983   6.114   5.382   1.099  0.0761 -0.0786 -0.1447
 5523TIP3    H137984   6.190   5.439   1.090  1.2238 -1.7068 -1.1225
 5523TIP3    H237985   6.149   5.293   1.093 -1.9667 -0.8782 -1.2665
 5524TIP3   OH237986   5.382   1.845  14.493  0.8840  0.0292  0.5135
 5524TIP3    H137987   5.297   1.815  14.525 -0.7126  0.4615 -2.8981
 5524TIP3    H237988   5.415   1.773  14.439  1.9678  0.4834  0.5358
 5525TIP3   OH237989   4.056   0.797  12.664 -0.0275  0.2477 -0.0688
 5525TIP3    H137990   4.033   0.719  12.613 -1.7335 -0.4605  1.6538
 5525TIP3    H237991   3.974   0.846  12.670  0.3218  0.7164  1.2674
 5526TIP3   OH237992   1.388   3.219   0.990  0.5979 -0.5488  0.4563
 5526TIP3    H137993   1.312   3.168   0.958 -0.3646  0.7932  0.5231
 5526TIP3    H237994   1.417   3.268   0.913 -1.3085  2.1887  1.3404
 5527TIP3   OH237995   4.118   2.145  11.137  0.2622 -0.7391  0.0093
 5527TIP3    H137996   4.113   2.058  11.177 -0.6427 -1.9990 -2.5834
 5527TIP3    H237997   4.212   2.159  11.123  0.4455 -1.0817  0.8314
 5528TIP3   OH237998   0.023   2.953   2.383  0.5654 -0.3643 -0.2573
 5528TIP3    H137999  -0.032   2.878   2.407 -0.9308  1.4732  2.7171
 5528TIP3    H238000   0.102   2.944   2.437  0.3501  0.1906  0.1644
 5529TIP3   OH238001   0.896   0.413  15.900  0.4364 -0.0052 -0.0304
 5529TIP3    H138002   0.844   0.491  15.920  0.2474 -0.3775  0.9876
 5529TIP3    H238003   0.856   0.344  15.952  1.5406 -0.4468  0.2491
 5530TIP3   OH238004   4.749   5.757   2.950 -0.7740  0.4181 -0.5811
 5530TIP3    H138005   4.744   5.705   2.870  1.2431 -1.9430  0.7193
 5530TIP3    H238006   4.730   5.695   3.020 -0.7750  2.0279  0.8976
 5531TIP3   OH238007   5.900   3.679  13.047 -0.1864 -0.2800 -0.6578
 5531TIP3    H138008   5.918   3.772  13.060  1.5130 -0.3387 -2.2310
 5531TIP3    H238009   5.936   3.636  13.124 -1.4357  0.3857  0.3198
 5532TIP3   OH238010   4.908   2.419   0.573  0.1010 -1.1713 -0.4710
 5532TIP3    H138011   4.852   2.451   0.644  2.2902 -0.6376  1.1092
 5532TIP3    H238012   4.951   2.341   0.609  4.3091  1.3037  0.5032
 5533TIP3   OH238013   0.510   3.172   3.461  0.4748  0.1875  0.1539
 5533TIP3    H138014   0.429   3.160   3.510 -1.5312  0.6947 -2.8181
 5533TIP3    H238015   0.555   3.088   3.469  0.2144  0.2011  2.6471
 5534TIP3   OH238016   0.185   2.055   0.711 -0.1038 -0.4621  0.0998
 5534TIP3    H138017   0.139   2.013   0.638 -3.2736  0.8552  1.1490
 5534TIP3    H238018   0.215   1.982   0.765  1.3065 -1.4243 -1.8531
 5535TIP3   OH238019   2.760   6.514   1.746  0.3597  0.6479  0.1179
 5535TIP3    H138020   2.806   6.565   1.811  0.6328 -0.5845  0.9311
 5535TIP3    H238021   2.829   6.470   1.696  0.1604 -1.4040  1.4990
 5536TIP3   OH238022   2.678   1.631  12.828  0.3154 -0.7840  0.0061
 5536TIP3    H138023   2.608   1.590  12.879  0.3449 -0.0364  0.6871
 5536TIP3    H238024   2.754   1.576  12.843  0.1376 -0.9829  0.1783
 5537TIP3   OH238025   5.571   1.633   0.679 -0.3603  0.4678  0.2020
 5537TIP3    H138026   5.523   1.613   0.599  0.6032  0.8742 -0.4975
 5537TIP3    H238027   5.607   1.549   0.707 -1.9975  0.0326  1.1125
 5538TIP3   OH238028   2.577   1.515  13.627  0.4575  0.3337 -0.0224
 5538TIP3    H138029   2.575   1.511  13.531  1.5246  0.7899 -0.0769
 5538TIP3    H238030   2.567   1.608  13.648  1.8601  0.4564  0.2237
 5539TIP3   OH238031   0.064   1.166   0.083  0.1118  0.4041 -0.3716
 5539TIP3    H138032   0.016   1.245   0.109  0.7444 -0.0065  2.3560
 5539TIP3    H238033   0.152   1.198   0.063  0.2707  0.4766  0.3873
 5540TIP3   OH238034   6.213   0.958  14.878 -0.3266  0.4849  0.2454
 5540TIP3    H138035   6.247   1.041  14.910 -0.4880  0.8380 -0.4791
 5540TIP3    H238036   6.239   0.894  14.944  1.0302  0.8766  0.1120
 5541TIP3   OH238037   3.749   1.500   4.208 -0.1717 -0.3937 -0.1201
 5541TIP3    H138038   3.839   1.525   4.226 -0.3951 -0.1755  0.7264
 5541TIP3    H238039   3.697   1.551   4.269 -0.9581  0.2568 -1.2953
 5542TIP3   OH238040   1.333   2.816  12.775  0.1353  0.1555 -0.1623
 5542TIP3    H138041   1.328   2.721  12.782  0.3330  0.2207  1.1678
 5542TIP3    H238042   1.242   2.846  12.779  0.0341  0.0143 -1.0927
 5543TIP3   OH238043   1.777   1.719   1.304 -0.4289  0.1056 -0.0472
 5543TIP3    H138044   1.800   1.710   1.212 -2.2226 -0.1053 -0.5191
 5543TIP3    H238045   1.760   1.630   1.333  1.9303 -0.0663  1.0616
 5544TIP3   OH238046   0.296   1.924  11.508  0.2388  0.3965  0.6082
 5544TIP3    H138047   0.283   2.013  11.474 -0.5565  0.5109  1.1736
 5544TIP3    H238048   0.242   1.869  11.450 -0.5461  0.5011  1.2138
 5545TIP3   OH238049   3.045   3.979   1.034 -0.4489 -0.2251 -0.9142
 5545TIP3    H138050   2.976   4.028   0.991  0.4056  0.2355 -1.7904
 5545TIP3    H238051   3.044   4.010   1.125 -2.0044 -0.9270 -0.6525
 5546TIP3   OH238052   6.456   1.741  16.127  0.0803 -0.0508  0.0681
 5546TIP3    H138053   6.495   1.741  16.215 -0.0253  2.8906  0.2361
 5546TIP3    H238054   6.471   1.830  16.095 -2.6926 -0.0830 -1.6056
 5547TIP3   OH238055   2.541   0.877   2.046 -0.0683 -0.1974 -0.2676
 5547TIP3    H138056   2.453   0.871   2.010 -0.1939  2.3992 -0.6122
 5547TIP3    H238057   2.598   0.870   1.969  0.0028 -0.9194 -0.1581
 5548TIP3   OH238058   5.443   5.938   3.524 -0.0651  0.2742  0.5037
 5548TIP3    H138059   5.476   5.910   3.438  0.5953 -1.1746  1.1975
 5548TIP3    H238060   5.391   6.016   3.505  1.0359  0.6786 -1.0617
 5549TIP3   OH238061   1.109   5.339  15.367  0.2109 -0.0150 -0.3843
 5549TIP3    H138062   1.197   5.301  15.364 -0.0124 -0.6121  0.3279
 5549TIP3    H238063   1.056   5.277  15.317 -0.0258 -0.2892  0.2025
 5550TIP3   OH238064   0.901   4.290  15.465  0.0451 -0.1225  0.0402
 5550TIP3    H138065   0.892   4.268  15.372 -0.5107 -2.0607  0.4969
 5550TIP3    H238066   0.944   4.375  15.465  0.4729 -0.2664 -1.9824
 5551TIP3   OH238067   3.081   5.809  15.782 -0.1879 -0.1653 -0.5151
 5551TIP3    H138068   3.113   5.718  15.780  0.2823 -0.1748  2.5138
 5551TIP3    H238069   2.989   5.801  15.806 -0.1293  0.1575 -0.1823
 5552TIP3   OH238070   3.917   3.570   6.455  0.4243  0.0332 -0.3254
 5552TIP3    H138071   3.960   3.493   6.418  0.1751 -0.0500 -0.4392
 5552TIP3    H238072   3.915   3.634   6.383 -1.0994 -0.5329 -0.8253
 5553TIP3   OH238073   6.014   5.195  16.815 -0.1701  0.1884  0.2631
 5553TIP3    H138074   6.089   5.239  16.776 -0.3997  0.4662  0.1361
 5553TIP3    H238075   6.039   5.103  16.817  0.0264  0.2337 -0.1135
 5554TIP3   OH238076   1.575   1.115  16.930  0.0594 -0.5291  0.6173
 5554TIP3    H138077   1.646   1.080  16.876  0.3508  0.3791  0.3846
 5554TIP3    H238078   1.620   1.149  17.008 -0.3849 -2.0973  1.6118
 5555TIP3   OH238079   2.460   0.178  16.891 -0.3507 -0.0817  0.0967
 5555TIP3    H138080   2.461   0.249  16.827  1.4039 -0.5676 -0.4510
 5555TIP3    H238081   2.489   0.101  16.843 -0.1583 -0.7099  1.1840
 5556TIP3   OH238082   0.039   0.831   0.954  0.2121 -0.0448  0.5512
 5556TIP3    H138083   0.121   0.850   0.999  1.3682 -1.4386 -0.8614
 5556TIP3    H238084   0.002   0.917   0.935 -0.1863  0.6060  3.7605
 5557TIP3   OH238085   0.108   3.570  12.699  0.3733 -0.3100 -0.3334
 5557TIP3    H138086   0.044   3.641  12.706  0.1671 -0.5895  0.7967
 5557TIP3    H238087   0.070   3.498  12.748  0.7198 -1.1218 -1.2188
 5558TIP3   OH238088   0.618   3.538  14.962  0.3034  0.0572 -0.3712
 5558TIP3    H138089   0.550   3.513  14.899 -0.6330  0.4599  0.4520
 5558TIP3    H238090   0.569   3.570  15.038  1.3205 -2.6117  1.5565
 5559TIP3   OH238091   1.127   6.291   6.282  0.0390 -0.1672  0.4509
 5559TIP3    H138092   1.219   6.274   6.306 -0.2781 -1.9165  0.5962
 5559TIP3    H238093   1.086   6.316   6.364  0.3885  0.6397  0.3836
 5560TIP3   OH238094   2.788   3.987   1.357 -0.1896  0.7196  0.6644
 5560TIP3    H138095   2.882   4.003   1.361  0.0340 -0.6721  1.8082
 5560TIP3    H238096   2.769   3.937   1.436 -1.2162 -2.2274 -1.2866
 5561TIP3   OH238097   3.939   1.172   5.807 -0.1877 -0.3406  0.2140
 5561TIP3    H138098   3.911   1.175   5.898  1.8189 -1.1761  0.9157
 5561TIP3    H238099   3.922   1.082   5.780 -0.3121 -0.2287 -0.0840
 5562TIP3   OH238100   1.395   5.527  11.112  0.4201  0.2781 -0.5127
 5562TIP3    H138101   1.417   5.569  11.030 -0.9535  1.3451 -0.3722
 5562TIP3    H238102   1.474   5.535  11.165  0.3981  2.2258 -0.6936
 5563TIP3   OH238103   2.534   2.429   2.507  0.1807 -0.7176  0.2234
 5563TIP3    H138104   2.580   2.380   2.575  0.6643  0.9901  1.1900
 5563TIP3    H238105   2.575   2.401   2.425 -0.0534 -2.4159  0.6501
 5564TIP3   OH238106   2.332   0.644  13.302 -0.2295 -0.1882 -0.2708
 5564TIP3    H138107   2.252   0.595  13.282 -1.2897  0.5343  1.8709
 5564TIP3    H238108   2.301   0.726  13.341  1.5694  0.2851  0.2573
 5565TIP3   OH238109   3.688   6.433  14.131  0.3256  0.2823  0.2811
 5565TIP3    H138110   3.740   6.365  14.088 -0.9446  0.4628 -1.6468
 5565TIP3    H238111   3.625   6.385  14.184  0.0473 -0.0426 -0.3321
 5566TIP3   OH238112   2.121   5.180  11.722 -0.4456 -0.2634  0.2164
 5566TIP3    H138113   2.069   5.226  11.788  0.8280  0.6987  0.5975
 5566TIP3    H238114   2.076   5.198  11.640  0.3425  2.3221  0.2457
 5567TIP3   OH238115   2.215   0.606  16.923  0.1138 -0.2541  0.0583
 5567TIP3    H138116   2.229   0.512  16.934  0.2042 -0.2734 -0.2144
 5567TIP3    H238117   2.255   0.627  16.839  1.7306  0.3732  0.9407
 5568TIP3   OH238118   0.057   0.553   2.540 -0.7105 -0.0435 -0.0313
 5568TIP3    H138119   0.073   0.645   2.519  0.0247 -0.6155 -2.2363
 5568TIP3    H238120  -0.025   0.532   2.496 -0.3908 -0.6864 -0.3335
 5569TIP3   OH238121   3.827   2.044  12.935  0.2140  0.5912  0.0191
 5569TIP3    H138122   3.916   2.076  12.921  0.1498  0.6453 -0.2772
 5569TIP3    H238123   3.837   1.968  12.993  0.4873  0.3690 -0.3137
 5570TIP3   OH238124   0.289   4.577  11.493  0.2644 -0.3993 -0.1936
 5570TIP3    H138125   0.202   4.543  11.514  0.6110 -0.1804  1.8034
 5570TIP3    H238126   0.274   4.670  11.474 -0.3406 -1.0054 -3.2535
 5571TIP3   OH238127   2.299   2.813   3.934  0.2079  0.3795  0.2311
 5571TIP3    H138128   2.247   2.843   3.860 -0.0602 -0.7478 -0.0498
 5571TIP3    H238129   2.234   2.777   3.995  0.7276 -3.0413 -1.0480
 5572TIP3   OH238130   3.609   6.247  10.121  0.1035  0.4025  0.7398
 5572TIP3    H138131   3.618   6.316  10.186  0.2067 -0.2919  1.4812
 5572TIP3    H238132   3.697   6.208  10.115 -0.2300 -0.4521  1.2349
 5573TIP3   OH238133   1.088   0.685  14.160 -0.0167 -0.4122 -0.1899
 5573TIP3    H138134   1.127   0.605  14.196 -0.7875 -1.0600 -0.7713
 5573TIP3    H238135   1.000   0.688  14.197 -0.3160 -0.3196 -0.8962
 5574TIP3   OH238136   1.448   1.490  15.157  0.5757  0.4082 -0.6054
 5574TIP3    H138137   1.472   1.426  15.090 -1.5888 -0.7511 -0.3743
 5574TIP3    H238138   1.448   1.574  15.111  0.9046 -0.1256 -1.6061
 5575TIP3   OH238139   0.493   4.425   3.074  0.1938 -0.1927 -0.6925
 5575TIP3    H138140   0.498   4.449   2.982 -0.5553  1.0175 -0.4352
 5575TIP3    H238141   0.427   4.483   3.111 -0.6201 -1.6599  0.2953
 5576TIP3   OH238142   5.995   4.846  13.551  0.2139 -0.2505  0.0902
 5576TIP3    H138143   6.002   4.769  13.495  1.4912 -0.3259  0.3270
 5576TIP3    H238144   5.965   4.813  13.635  0.8344 -0.5176  0.2148
 5577TIP3   OH238145   0.494   3.340   1.483  0.0199 -0.1647 -0.5794
 5577TIP3    H138146   0.434   3.346   1.409 -1.8538  0.8007  0.9298
 5577TIP3    H238147   0.448   3.285   1.546  0.0969  1.6394  1.1338
 5578TIP3   OH238148   0.387   4.710   3.031  0.4705 -0.4693  0.7314
 5578TIP3    H138149   0.385   4.673   2.943  1.0503  1.4768 -0.1469
 5578TIP3    H238150   0.300   4.691   3.067  0.4695 -1.9036  0.0347
 5579TIP3   OH238151   3.479   0.173   1.878  0.0715 -0.2043 -0.1722
 5579TIP3    H138152   3.527   0.091   1.864 -0.2821 -0.0481 -2.7833
 5579TIP3    H238153   3.536   0.240   1.839  0.0328  0.7182  1.3055
 5580TIP3   OH238154   4.500   4.614  15.707  0.2686 -0.1634 -0.1031
 5580TIP3    H138155   4.558   4.675  15.752 -0.0383 -0.7482  1.1371
 5580TIP3    H238156   4.539   4.528  15.721 -0.5427 -0.4940  0.1948
 5581TIP3   OH238157   3.131   6.064  11.630 -0.0433  0.0895  0.2684
 5581TIP3    H138158   3.182   6.083  11.709 -0.3087  0.5935  0.3228
 5581TIP3    H238159   3.164   5.980  11.600  1.8089  1.0229 -0.4840
 5582TIP3   OH238160   6.362   5.379   1.304 -0.6076 -0.2382 -0.0375
 5582TIP3    H138161   6.316   5.296   1.294  1.4255 -1.7926  2.4472
 5582TIP3    H238162   6.450   5.355   1.332 -0.1068  2.7662  1.3773
 5583TIP3   OH238163   2.486   2.343  16.089  0.0328  0.0937 -0.4197
 5583TIP3    H138164   2.531   2.363  16.008  2.0487  1.0486  0.8585
 5583TIP3    H238165   2.549   2.293  16.141 -0.7923  0.4136  0.9675
 5584TIP3   OH238166   5.886   4.759  11.074  0.5731 -0.1372  0.2691
 5584TIP3    H138167   5.892   4.664  11.062  0.1490 -0.0845 -0.4148
 5584TIP3    H238168   5.971   4.792  11.044  0.2305 -0.1912 -0.8250
 5585TIP3   OH238169   1.650   6.681  13.193  0.0300 -0.0202  0.6753
 5585TIP3    H138170   1.729   6.716  13.152 -1.4732  1.2127 -1.3607
 5585TIP3    H238171   1.652   6.715  13.283  1.4696  0.5341  0.4521
 5586TIP3   OH238172   0.874   6.320  15.584  0.0975  0.7868 -0.1893
 5586TIP3    H138173   0.904   6.394  15.531  3.8183  0.5440  1.3069
 5586TIP3    H238174   0.802   6.355  15.636  0.7032  2.9048 -0.6844
 5587TIP3   OH238175   3.662   0.944   0.770  0.2575 -0.1556  0.1318
 5587TIP3    H138176   3.706   0.973   0.690 -0.9897 -1.2494 -0.9869
 5587TIP3    H238177   3.683   0.851   0.777  0.7973  0.0455  1.3959
 5588TIP3   OH238178   5.459   5.792  13.108 -0.4871 -0.2037  0.0201
 5588TIP3    H138179   5.479   5.825  13.021  1.9765 -0.0744  0.5714
 5588TIP3    H238180   5.457   5.870  13.164 -0.3908 -0.4343  0.3512
 5589TIP3   OH238181   4.458   5.275  11.919  0.2924 -0.4677  0.1091
 5589TIP3    H138182   4.422   5.188  11.902 -3.3030  0.8488  0.0674
 5589TIP3    H238183   4.479   5.310  11.832  0.0568 -0.6745 -0.0317
 5590TIP3   OH238184   3.224   6.491   4.574 -0.7425 -0.0905  0.2548
 5590TIP3    H138185   3.173   6.414   4.597 -0.2830 -0.2707  0.6849
 5590TIP3    H238186   3.235   6.538   4.657  1.0307 -0.8011  0.4626
 5591TIP3   OH238187   2.589   2.632  14.926  0.0842 -0.4611  0.0642
 5591TIP3    H138188   2.682   2.634  14.902  0.4079 -1.0343  1.1669
 5591TIP3    H238189   2.561   2.723  14.922  1.3383  0.0800  1.9865
 5592TIP3   OH238190   5.338   1.567  14.763  0.0770 -0.2504 -0.1185
 5592TIP3    H138191   5.355   1.533  14.850 -0.6197 -4.6756 -1.4577
 5592TIP3    H238192   5.410   1.533  14.709 -0.8919  0.1389 -1.7431
 5593TIP3   OH238193   1.844   2.861  16.537 -0.5708 -0.3640 -0.6696
 5593TIP3    H138194   1.860   2.869  16.631  0.3913  0.1709 -0.8626
 5593TIP3    H238195   1.761   2.907  16.523 -1.6337 -1.9193  0.1472
 5594TIP3   OH238196   5.238   5.214   5.746  0.9612 -0.2527 -0.3227
 5594TIP3    H138197   5.289   5.170   5.814  1.3652 -0.8999 -1.0270
 5594TIP3    H238198   5.174   5.148   5.718  0.9264 -0.0616 -0.6992
 5595TIP3   OH238199   6.288   3.529  14.106  0.1042 -0.0181 -0.2142
 5595TIP3    H138200   6.264   3.525  14.013  1.5824  1.7566 -0.7432
 5595TIP3    H238201   6.237   3.602  14.140  0.6010  0.2232  0.0184
 5596TIP3   OH238202   0.281   3.881  11.604  0.0829  0.0389 -0.4568
 5596TIP3    H138203   0.283   3.794  11.563 -1.3657 -0.3630  0.2788
 5596TIP3    H238204   0.353   3.928  11.562  0.1604 -1.1317 -1.7218
 5597TIP3   OH238205   5.042   5.296   3.448 -0.1120 -0.5545 -0.3281
 5597TIP3    H138206   5.052   5.242   3.370 -0.6444  1.3321 -1.7710
 5597TIP3    H238207   4.949   5.317   3.452  0.3257  1.6496 -0.8250
 5598TIP3   OH238208   6.466   0.143   3.021 -0.0541  0.1368 -0.1221
 5598TIP3    H138209   6.442   0.202   3.092  1.4873  1.2178 -0.4621
 5598TIP3    H238210   6.382   0.110   2.988 -1.1422  3.3295 -0.9099
 5599TIP3   OH238211   0.432   1.510  13.207  0.2374 -0.1057 -0.2391
 5599TIP3    H138212   0.357   1.508  13.267  0.4412 -0.4506  0.0072
 5599TIP3    H238213   0.395   1.535  13.123  0.0558  1.1261  0.1849
 5600TIP3   OH238214   0.644   2.501   5.972  0.2442  0.1986  0.6032
 5600TIP3    H138215   0.714   2.440   5.995 -0.1908 -0.4764  0.1759
 5600TIP3    H238216   0.634   2.556   6.049  0.9750  0.0460  0.8167
 5601TIP3   OH238217   1.468   2.931  12.127  0.7831 -1.1159 -0.2844
 5601TIP3    H138218   1.538   2.966  12.182 -0.1746  0.9594 -0.2802
 5601TIP3    H238219   1.392   2.927  12.185 -0.5388  2.1578 -1.5863
 5602TIP3   OH238220   6.311   5.197  14.561 -0.0189  0.3949 -0.2540
 5602TIP3    H138221   6.257   5.138  14.614 -0.1435  1.0864  0.4135
 5602TIP3    H238222   6.401   5.167  14.576 -0.2427 -1.3809 -2.1454
 5603TIP3   OH238223   0.022   4.839   2.663  0.5703 -0.1575  0.3661
 5603TIP3    H138224   0.087   4.823   2.595  1.1913 -0.5482  1.0499
 5603TIP3    H238225  -0.062   4.831   2.617  0.9849 -0.1132 -0.4187
 5604TIP3   OH238226   2.274   6.607  11.240  0.0351  0.2068  0.6016
 5604TIP3    H138227   2.356   6.622  11.287  1.4768 -0.6402 -1.5222
 5604TIP3    H238228   2.300   6.571  11.156 -2.5772 -0.7940  0.1182
 5605TIP3   OH238229   1.183   3.230  12.246 -0.0112  0.6326  0.0872
 5605TIP3    H138230   1.161   3.300  12.306 -1.0750  0.5926 -0.2370
 5605TIP3    H238231   1.276   3.214  12.260 -0.1026  1.0693  1.2381
 5606TIP3   OH238232   2.161   5.102  15.511  0.5498  0.2586  0.2857
 5606TIP3    H138233   2.107   5.181  15.513 -0.7230 -0.5222 -0.9203
 5606TIP3    H238234   2.221   5.111  15.585  0.2138  2.1808  0.3704
 5607TIP3   OH238235   4.216   2.645  17.084  0.2056 -0.6282 -0.5909
 5607TIP3    H138236   4.306   2.633  17.054  1.1789 -0.0736  1.8177
 5607TIP3    H238237   4.224   2.705  17.159 -1.8168 -2.5540  1.3188
 5608TIP3   OH238238   5.074   5.010  15.240 -0.6646 -0.1124  0.4882
 5608TIP3    H138239   5.057   4.971  15.326 -1.3953 -1.1182 -0.0859
 5608TIP3    H238240   4.992   5.056  15.219  0.1537  1.7431  1.1211
 5609TIP3   OH238241   6.095   5.437   1.644 -0.1722  0.1945 -0.2612
 5609TIP3    H138242   6.058   5.523   1.627 -0.8068  0.2962  1.4193
 5609TIP3    H238243   6.170   5.431   1.585 -1.2735  1.0726 -1.8193
 5610TIP3   OH238244   2.193   2.580   5.667  0.7143 -0.5073  1.0080
 5610TIP3    H138245   2.221   2.656   5.617  1.1260 -0.0545  1.9188
 5610TIP3    H238246   2.269   2.557   5.721  0.0999 -0.6778  1.8081
 5611TIP3   OH238247   5.381   0.949  13.435  0.5373 -0.5760 -0.3161
 5611TIP3    H138248   5.453   0.900  13.395 -0.7681 -0.6234 -2.8129
 5611TIP3    H238249   5.303   0.920  13.387 -0.5809  2.3827 -0.4882
 5612TIP3   OH238250   1.877   6.234   2.644 -0.4287 -0.5495 -0.0144
 5612TIP3    H138251   1.943   6.176   2.682 -0.6204 -0.1222  1.0137
 5612TIP3    H238252   1.844   6.284   2.719 -0.9860  0.1635 -0.7252
 5613TIP3   OH238253   5.805   3.806  13.389  0.4348  0.1637 -0.1159
 5613TIP3    H138254   5.899   3.786  13.398  0.4055  0.0901  0.0373
 5613TIP3    H238255   5.803   3.893  13.349  0.5739 -0.9195 -2.7125
 5614TIP3   OH238256   4.722   6.118   3.544 -0.0770  0.4859  0.6060
 5614TIP3    H138257   4.660   6.143   3.476 -2.1154  0.0083  2.1767
 5614TIP3    H238258   4.709   6.184   3.613  0.5733 -0.1005  1.3067
 5615TIP3   OH238259   4.507   1.669   0.925 -0.2395 -0.1038 -0.2974
 5615TIP3    H138260   4.493   1.575   0.921 -0.7775 -0.0274 -0.3252
 5615TIP3    H238261   4.550   1.683   1.009 -1.9010 -0.1817  0.6088
 5616TIP3   OH238262   1.637   5.978   1.811  0.3572 -0.2129  0.5407
 5616TIP3    H138263   1.542   5.964   1.817 -0.0871  2.2310  0.5088
 5616TIP3    H238264   1.650   6.011   1.722  1.6424 -2.7027 -0.2765
 5617TIP3   OH238265   1.505   2.080  10.924  0.5389  0.0627  0.5460
 5617TIP3    H138266   1.428   2.111  10.875  0.1572 -0.4225  0.8278
 5617TIP3    H238267   1.577   2.088  10.862  0.3305  0.8705  0.3927
 5618TIP3   OH238268   6.115   1.801   5.726  0.0956  0.5418  0.8303
 5618TIP3    H138269   6.101   1.874   5.786  2.4033  1.1834  0.6976
 5618TIP3    H238270   6.103   1.839   5.639 -0.2647  0.3734  0.8073
 5619TIP3   OH238271   4.547   1.841  16.235  0.5926  0.2062  0.1413
 5619TIP3    H138272   4.620   1.813  16.181 -0.0063 -1.3562  0.0972
 5619TIP3    H238273   4.479   1.776  16.220  0.0593  0.2596  2.0339
 5620TIP3   OH238274   6.134   5.318  12.566 -0.0789 -0.3146 -0.5804
 5620TIP3    H138275   6.227   5.341  12.572  0.0606 -1.0713  0.4176
 5620TIP3    H238276   6.101   5.328  12.655 -1.0504  0.2893 -0.9988
 5621TIP3   OH238277   3.542   2.167   1.968 -0.1524 -0.8841  0.1563
 5621TIP3    H138278   3.465   2.182   1.914 -0.1997 -0.4320  0.3510
 5621TIP3    H238279   3.508   2.153   2.056  0.1312  3.3691  1.1289
 5622TIP3   OH238280   1.097   0.284   2.566 -0.0207 -0.0681  0.4344
 5622TIP3    H138281   1.125   0.309   2.478  0.4515  1.2844  0.9399
 5622TIP3    H238282   1.117   0.190   2.572  1.5173  0.1702 -0.3343
 5623TIP3   OH238283   5.976   1.426   5.995 -0.0255  0.2045  0.0631
 5623TIP3    H138284   6.010   1.352   6.044  1.0660  0.4128 -0.3526
 5623TIP3    H238285   6.021   1.422   5.910  0.7127  1.8226  0.3427
 5624TIP3   OH238286   6.165   5.547  13.293 -0.3999  0.3982 -0.1398
 5624TIP3    H138287   6.090   5.495  13.321  0.1520 -1.6575 -2.1338
 5624TIP3    H238288   6.227   5.482  13.260  0.7924  2.2641 -1.7481
 5625TIP3   OH238289   3.512   2.268  13.151 -0.3659 -0.6738  0.0413
 5625TIP3    H138290   3.473   2.214  13.219  1.4560 -0.0936  1.6426
 5625TIP3    H238291   3.605   2.242  13.150  0.5742  2.2788  0.8544
 5626TIP3   OH238292   3.444   3.364   1.980  0.3387  0.6809  0.0516
 5626TIP3    H138293   3.371   3.329   2.031 -1.0688  1.7216 -1.2101
 5626TIP3    H238294   3.436   3.459   1.987  0.4689  0.8393 -1.5887
 5627TIP3   OH238295   6.550   3.646  13.141  0.1372  0.3895  0.1787
 5627TIP3    H138296   6.586   3.557  13.137  0.7316  0.6615 -0.8723
 5627TIP3    H238297   6.572   3.677  13.229 -0.1944 -0.5459  0.6067
 5628TIP3   OH238298   0.289   3.421   1.281  0.2026  0.2869 -0.2730
 5628TIP3    H138299   0.294   3.507   1.240  0.3410 -0.1034 -1.0837
 5628TIP3    H238300   0.196   3.408   1.299  0.3392  1.3409  1.4738
 5629TIP3   OH238301   3.497   2.260  16.404 -0.3867 -0.1040 -0.3991
 5629TIP3    H138302   3.539   2.176  16.382  0.0205  0.1333 -0.5314
 5629TIP3    H238303   3.457   2.288  16.322 -1.6320 -0.7972 -0.0412
 5630TIP3   OH238304   1.608   6.632   0.274  0.0815 -0.7214  0.4517
 5630TIP3    H138305   1.561   6.675   0.345  0.8521  3.2590 -1.1829
 5630TIP3    H238306   1.540   6.605   0.212 -0.4712 -2.8493  1.8681
 5631TIP3   OH238307   5.123   1.881  14.606  0.4047 -0.1727  0.2955
 5631TIP3    H138308   5.091   1.936  14.534  0.1535 -1.7847 -0.8744
 5631TIP3    H238309   5.044   1.850  14.649  0.5566  1.3585  1.7834
 5632TIP3   OH238310   3.938   1.372   3.392 -0.4582 -0.1182  0.3995
 5632TIP3    H138311   3.978   1.333   3.314 -1.9713 -1.0635  0.0547
 5632TIP3    H238312   3.985   1.454   3.405  0.6610 -0.5427 -0.7613
 5633TIP3   OH238313   4.130   2.416  14.351 -0.0825  0.0858 -0.0698
 5633TIP3    H138314   4.206   2.363  14.330  1.2248  1.8185  0.1140
 5633TIP3    H238315   4.146   2.447  14.440  1.0765  3.7677 -1.3979
 5634TIP3   OH238316   5.433   5.589   3.106 -0.2347  0.0276  0.9753
 5634TIP3    H138317   5.347   5.555   3.081 -1.1709  1.6955  1.7706
 5634TIP3    H238318   5.494   5.522   3.075 -1.7143 -0.7258 -0.5375
 5635TIP3   OH238319   5.769   4.199  12.693 -0.1371 -0.1532  0.3325
 5635TIP3    H138320   5.745   4.109  12.715 -0.0731  0.0021  1.0714
 5635TIP3    H238321   5.855   4.211  12.733 -0.1672  0.2546  0.2735
 5636TIP3   OH238322   0.532   1.816  13.493 -0.3330 -0.2946  0.0668
 5636TIP3    H138323   0.537   1.878  13.421  1.0292 -0.6441 -0.1713
 5636TIP3    H238324   0.581   1.858  13.565 -0.8411 -0.3675  0.4605
 5637TIP3   OH238325   4.510   0.044  16.756  1.0776  0.2587 -0.4898
 5637TIP3    H138326   4.438   0.105  16.742 -0.4557 -1.0246  1.3739
 5637TIP3    H238327   4.576   0.095  16.803  0.5718  0.9513 -0.5217
 5638TIP3   OH238328   6.611   0.050   3.346  0.3427 -0.2069  0.5175
 5638TIP3    H138329   6.532   0.007   3.312  0.2284 -0.1580  0.7191
 5638TIP3    H238330   6.674   0.043   3.274 -0.5151  1.6643 -0.4912
 5639TIP3   OH238331   2.950   1.607  12.938 -1.0094  0.0560  0.4090
 5639TIP3    H138332   2.928   1.701  12.941 -0.7478  0.1040  0.8984
 5639TIP3    H238333   2.944   1.578  13.029 -1.2671 -0.4466  0.2335
 5640TIP3   OH238334   4.188   3.174   0.882  0.4534 -0.2456 -0.0301
 5640TIP3    H138335   4.215   3.233   0.953  0.3566  1.2625 -1.1885
 5640TIP3    H238336   4.104   3.140   0.911 -0.0581  1.1206  0.1829
 5641TIP3   OH238337   3.669   1.422   3.419 -0.2524 -0.2628  0.5996
 5641TIP3    H138338   3.643   1.514   3.411  2.2565  0.3950 -1.3738
 5641TIP3    H238339   3.765   1.425   3.416 -0.1318 -3.0432 -0.4946
 5642TIP3   OH238340   2.013   3.799  16.608 -0.6852  0.1693  0.0705
 5642TIP3    H138341   1.990   3.880  16.562  0.1252  0.4570  0.1527
 5642TIP3    H238342   1.964   3.731  16.562  0.4559  0.3796 -1.5780
 5643TIP3   OH238343   2.190   5.871   3.434  0.7523  0.1142  0.0828
 5643TIP3    H138344   2.169   5.936   3.501  0.3011 -0.4277  0.4748
 5643TIP3    H238345   2.165   5.788   3.472 -0.9121 -0.0774 -1.3204
 5644TIP3   OH238346   2.117   2.683  11.216  0.6303  0.3519  0.5025
 5644TIP3    H138347   2.192   2.689  11.157  0.7189  0.7455  0.6455
 5644TIP3    H238348   2.056   2.623  11.173  0.1681  1.5482 -0.5736
 5645TIP3   OH238349   4.057   5.019  14.039 -0.8931  0.0043 -0.6700
 5645TIP3    H138350   4.100   4.934  14.030  1.0094  0.6215  1.6257
 5645TIP3    H238351   3.968   4.998  14.065 -0.9032 -1.2800 -1.6305
 5646TIP3   OH238352   1.803   2.617  16.349  0.0826 -0.1185  0.1767
 5646TIP3    H138353   1.712   2.647  16.344 -0.8077 -2.4643  0.6335
 5646TIP3    H238354   1.840   2.665  16.423 -1.2030 -0.0472  0.8075
 5647TIP3   OH238355   4.515   4.770   0.690 -0.4103 -0.1139  0.3123
 5647TIP3    H138356   4.540   4.678   0.702 -0.0214  0.0739  1.0256
 5647TIP3    H238357   4.426   4.767   0.657  0.1610 -0.7784 -1.2797
 5648TIP3   OH238358   6.628   0.113  11.219 -0.1762 -0.1031  0.2270
 5648TIP3    H138359   6.653   0.056  11.146 -0.2239 -0.5104  0.5300
 5648TIP3    H238360   6.582   0.186  11.176  2.2383  1.1336 -0.4300
 5649TIP3   OH238361   0.357   2.571   0.176  0.1249  0.0355 -0.0664
 5649TIP3    H138362   0.442   2.601   0.210  0.7665 -2.2288  0.4484
 5649TIP3    H238363   0.368   2.477   0.164 -1.9669 -0.1157 -1.1112
 5650TIP3   OH238364   2.222   4.645   3.142 -0.3907 -0.3146  0.2540
 5650TIP3    H138365   2.256   4.723   3.099 -0.3237 -0.0017  0.8635
 5650TIP3    H238366   2.143   4.623   3.092  1.0192 -1.4676 -1.6196
 5651TIP3   OH238367   3.282   2.116   6.070 -0.2602 -0.8770 -0.2758
 5651TIP3    H138368   3.238   2.189   6.115 -0.9158 -1.7864  0.5987
 5651TIP3    H238369   3.366   2.152   6.042  0.6367 -0.5387  2.6089
 5652TIP3   OH238370   4.908   6.483  13.273 -0.2785  0.4873  0.7064
 5652TIP3    H138371   4.824   6.442  13.255  0.0923 -0.5153  1.2014
 5652TIP3    H238372   4.945   6.501  13.186  0.3587 -1.9451  0.3869
 5653TIP3   OH238373   1.436   5.028  13.132  0.1297  0.4559 -0.0153
 5653TIP3    H138374   1.411   5.042  13.223  0.4254  1.7929 -0.1177
 5653TIP3    H238375   1.531   5.040  13.131  0.1139  0.5771 -0.5057
 5654TIP3   OH238376   2.667   2.068  14.076  0.0970  0.4270  0.5730
 5654TIP3    H138377   2.682   1.994  14.017 -1.1382  0.7525 -0.1948
 5654TIP3    H238378   2.717   2.047  14.155 -0.4067 -1.3339  0.4537
 5655TIP3   OH238379   6.070   1.508   5.730  0.0602 -0.4128 -0.2764
 5655TIP3    H138380   6.120   1.478   5.655 -1.1869 -0.4473 -1.1245
 5655TIP3    H238381   6.095   1.600   5.741 -1.9243  0.5416 -2.6812
 5656TIP3   OH238382   5.466   3.478   3.616 -0.3398  0.4058  0.1419
 5656TIP3    H138383   5.487   3.482   3.710 -0.2776  1.4412  0.0944
 5656TIP3    H238384   5.444   3.387   3.601  0.1644  0.1131  1.0607
 5657TIP3   OH238385   3.062   3.063  15.870 -0.0065 -0.1059 -0.2701
 5657TIP3    H138386   3.060   3.028  15.780  1.2307  0.8044 -0.6727
 5657TIP3    H238387   3.018   2.996  15.922 -1.7733 -0.1500 -1.7094
 5658TIP3   OH238388   1.606   5.255   1.253  0.0027  0.5722 -0.0845
 5658TIP3    H138389   1.633   5.347   1.244  0.1509  0.7152  1.6071
 5658TIP3    H238390   1.540   5.256   1.322  0.8002 -0.7420  0.7376
 5659TIP3   OH238391   1.653   1.445   2.872  0.6924  0.0477  0.0651
 5659TIP3    H138392   1.661   1.529   2.828 -1.8244  0.8053  0.8782
 5659TIP3    H238393   1.670   1.464   2.964  0.8080 -0.4759  0.1578
 5660TIP3   OH238394   2.505   3.251   3.682 -0.2619 -0.5302  0.1556
 5660TIP3    H138395   2.508   3.299   3.600 -0.6565  1.1673  1.0842
 5660TIP3    H238396   2.568   3.180   3.671 -0.2822 -0.3245 -1.5789
 5661TIP3   OH238397   2.365   3.526   2.690 -0.0357 -0.0281  0.5108
 5661TIP3    H138398   2.377   3.490   2.778  0.3043  0.8102  0.8191
 5661TIP3    H238399   2.282   3.573   2.696  0.5811  1.0652  0.7538
 5662TIP3   OH238400   1.487   1.907  11.555  0.2461  0.0171  0.2000
 5662TIP3    H138401   1.541   1.902  11.476  0.9419  1.9659  0.4888
 5662TIP3    H238402   1.548   1.937  11.623 -0.5198 -0.8711  1.3173
 5663TIP3   OH238403   5.039   4.172   6.160 -0.5143 -0.3255 -0.2069
 5663TIP3    H138404   5.086   4.240   6.207  0.1044 -0.5536 -0.4850
 5663TIP3    H238405   4.978   4.136   6.225 -0.7682  0.4111 -0.0304
 5664TIP3   OH238406   4.932   6.306   4.288  0.3050  0.1880 -0.1411
 5664TIP3    H138407   4.913   6.302   4.194  1.4949 -1.6979 -0.3545
 5664TIP3    H238408   4.846   6.305   4.330 -0.2123 -0.1066 -1.1853
 5665TIP3   OH238409   0.449   6.015   2.613 -0.1195  0.3270  0.0895
 5665TIP3    H138410   0.495   5.998   2.695  1.2330  1.0874 -0.4791
 5665TIP3    H238411   0.496   6.089   2.574 -0.2880 -0.4450 -1.6858
 5666TIP3   OH238412   5.285   1.838   4.132 -0.0440 -0.1600  0.0458
 5666TIP3    H138413   5.193   1.824   4.109 -0.1390  1.8470 -0.9383
 5666TIP3    H238414   5.296   1.933   4.134  1.8364 -0.3425  0.9191
 5667TIP3   OH238415   0.167   0.527   4.814 -0.5017 -0.0167 -0.4473
 5667TIP3    H138416   0.165   0.569   4.901  0.7626  0.7566 -0.7742
 5667TIP3    H238417   0.259   0.512   4.796 -0.6927  0.4000 -1.9255
 5668TIP3   OH238418   0.945   3.898   2.879 -0.5573  0.0512 -0.1717
 5668TIP3    H138419   0.962   3.975   2.825  0.4757 -0.4113 -0.5366
 5668TIP3    H238420   0.987   3.918   2.963 -0.1742 -0.1571 -0.3100
 5669TIP3   OH238421   1.054   2.441  12.025 -0.0482 -0.0438  0.2750
 5669TIP3    H138422   1.020   2.388  11.953  1.6786 -1.4821  0.4617
 5669TIP3    H238423   1.056   2.382  12.100  0.9776  0.5739  0.7501
 5670TIP3   OH238424   4.340   3.934   4.883  0.2246  0.4093  0.1874
 5670TIP3    H138425   4.316   3.878   4.957  0.1425  0.5043  0.2334
 5670TIP3    H238426   4.272   4.002   4.882 -0.6575 -0.4602 -0.9289
 5671TIP3   OH238427   5.228   0.723   2.877  0.4358  0.1291  0.3061
 5671TIP3    H138428   5.315   0.723   2.839  0.9380  1.4460  1.3844
 5671TIP3    H238429   5.242   0.701   2.970 -0.6363 -1.9302  0.0360
 5672TIP3   OH238430   1.992   4.890   2.874 -0.3937  0.3361  0.0488
 5672TIP3    H138431   1.925   4.856   2.934 -0.4150  1.4237  0.6708
 5672TIP3    H238432   1.957   4.974   2.845  1.3841  1.7144  1.6579
 5673TIP3   OH238433   0.626   2.788  16.085 -0.2503  0.1245  0.2497
 5673TIP3    H138434   0.642   2.713  16.142  0.9255 -0.5789 -0.9551
 5673TIP3    H238435   0.568   2.845  16.136  0.8731 -0.3804  2.2193
 5674TIP3   OH238436   6.401   5.996   1.426  0.1911  0.4703  0.2511
 5674TIP3    H138437   6.447   5.916   1.400  0.6664  0.2942  1.5631
 5674TIP3    H238438   6.314   5.966   1.451  0.1184  0.4718 -0.0010
 5675TIP3   OH238439   3.438   5.299  15.464  0.4255  0.5314  0.2614
 5675TIP3    H138440   3.417   5.285  15.372  0.5973  0.6437  0.2051
 5675TIP3    H238441   3.422   5.213  15.505  1.1082  0.2638 -0.0187
 5676TIP3   OH238442   6.439   6.155   1.853  0.1217  0.5218  0.2642
 5676TIP3    H138443   6.511   6.214   1.873  1.1446 -1.1738  1.9182
 5676TIP3    H238444   6.361   6.199   1.888  0.9232  0.7175  1.9038
 5677TIP3   OH238445   5.027   0.814   1.198 -0.1839  0.7451  0.8394
 5677TIP3    H138446   4.991   0.811   1.109 -0.9870  1.0869  1.1454
 5677TIP3    H238447   5.117   0.783   1.188 -0.5662 -0.1611  0.0604
 5678TIP3   OH238448   5.044   0.944   0.568 -0.4004  0.5611  0.2042
 5678TIP3    H138449   5.010   1.030   0.593 -0.4489  0.2086  1.4175
 5678TIP3    H238450   4.975   0.883   0.592 -0.0464  0.1042  0.0742
 5679TIP3   OH238451   5.572   6.518   1.084 -0.1241  0.5556  0.1471
 5679TIP3    H138452   5.655   6.491   1.124  0.0933 -0.6798 -1.0614
 5679TIP3    H238453   5.510   6.450   1.109 -0.0902 -0.0041 -1.2015
 5680TIP3   OH238454   1.045   5.940   6.389 -0.0921 -0.2826  0.4317
 5680TIP3    H138455   0.986   5.984   6.450  1.5041  1.4960  0.8057
 5680TIP3    H238456   1.122   5.996   6.386 -0.1580 -0.1238 -3.4204
 5681TIP3   OH238457   2.487   4.923   1.058 -0.3316 -0.1010 -0.5652
 5681TIP3    H138458   2.559   4.882   1.106  0.7275  2.4934  0.2484
 5681TIP3    H238459   2.530   4.971   0.987 -1.5060 -0.4646 -1.5491
 5682TIP3   OH238460   1.434   2.869   2.601 -0.1444 -0.2677 -0.0476
 5682TIP3    H138461   1.513   2.923   2.610  0.6160 -0.9768 -1.9240
 5682TIP3    H238462   1.387   2.882   2.683 -0.0172  3.2143 -0.3823
 5683TIP3   OH238463   0.305   3.626   3.392 -0.3771 -0.3336 -0.0690
 5683TIP3    H138464   0.341   3.696   3.337 -0.7562  0.2763  0.4506
 5683TIP3    H238465   0.382   3.584   3.430 -0.1562 -0.0888 -0.2439
 5684TIP3   OH238466   5.551   0.374  16.646 -0.2290  0.7993  0.2479
 5684TIP3    H138467   5.460   0.403  16.650 -0.1507  1.1063 -0.1175
 5684TIP3    H238468   5.596   0.441  16.593 -0.4120 -0.8592 -2.2039
 5685TIP3   OH238469   0.429   2.049   5.328  0.4445  0.2188 -0.3756
 5685TIP3    H138470   0.463   2.101   5.255  0.0144 -0.1757 -0.8586
 5685TIP3    H238471   0.337   2.076   5.336  0.0406 -0.9208 -1.0405
 5686TIP3   OH238472   6.355   3.932   3.765 -0.1289 -0.3177 -0.3962
 5686TIP3    H138473   6.409   3.981   3.826 -2.2552  1.4859  0.1596
 5686TIP3    H238474   6.349   3.989   3.688  0.6651 -1.5691 -1.4310
 5687TIP3   OH238475   1.742   0.008  11.354 -0.5054 -0.1718 -0.0596
 5687TIP3    H138476   1.793   0.010  11.436 -1.9182 -1.0107  0.8829
 5687TIP3    H238477   1.677   0.077  11.365 -1.1381 -0.7452 -0.1733
 5688TIP3   OH238478   3.048   0.092   0.546  0.3956 -0.2727 -0.4455
 5688TIP3    H138479   2.960   0.087   0.508  0.0519  0.8216  0.1848
 5688TIP3    H238480   3.102   0.042   0.485 -0.7818 -1.6600 -0.4286
 5689TIP3   OH238481   0.488   3.347  13.162  0.5517 -0.2171  0.1885
 5689TIP3    H138482   0.479   3.443  13.160 -0.2800 -0.2938 -0.8073
 5689TIP3    H238483   0.399   3.315  13.148  0.8322 -1.1418  0.4717
 5690TIP3   OH238484   2.496   0.234  14.643  0.7381  0.6851  0.0959
 5690TIP3    H138485   2.518   0.322  14.674  1.0818  0.5755  0.1701
 5690TIP3    H238486   2.562   0.178  14.682  0.8740  0.4712 -0.4284
 5691TIP3   OH238487   0.027   6.179   0.690 -0.0148  0.2939  0.4381
 5691TIP3    H138488   0.097   6.211   0.747  1.0869  0.1816 -0.7929
 5691TIP3    H238489   0.011   6.251   0.629  0.2491 -0.3112 -0.3634
 5692TIP3   OH238490   2.011   1.511   0.779  0.1864  0.3722  0.6543
 5692TIP3    H138491   2.042   1.421   0.768  1.8677  1.1260 -1.2122
 5692TIP3    H238492   2.038   1.534   0.868 -1.4241 -1.3377  1.6724
 5693TIP3   OH238493   4.499   1.366   5.629 -0.5204 -0.3276 -0.3935
 5693TIP3    H138494   4.593   1.361   5.612 -0.6439  2.4146 -2.6605
 5693TIP3    H238495   4.463   1.284   5.594  0.8139 -0.4445 -1.5535
 5694TIP3   OH238496   1.615   2.793   2.956  0.1140  0.2819 -0.6747
 5694TIP3    H138497   1.568   2.710   2.968 -0.3008  0.7072  0.8063
 5694TIP3    H238498   1.707   2.767   2.945 -0.2873 -0.4987 -2.6263
 5695TIP3   OH238499   6.707   5.711   2.944  0.3679 -0.4846  0.0389
 5695TIP3    H138500   6.619   5.741   2.920 -0.5138 -1.1709  2.2283
 5695TIP3    H238501   6.748   5.787   2.984  1.3324  0.2326 -2.1188
 5696TIP3   OH238502   0.735   0.967  16.918 -0.1416  0.0241 -0.1645
 5696TIP3    H138503   0.709   0.889  16.869 -2.2149  0.0943  0.7421
 5696TIP3    H238504   0.798   0.935  16.982  2.1739 -0.1675 -2.3614
 5697TIP3   OH238505   4.044   1.901   0.985 -0.3466  0.6035 -0.1046
 5697TIP3    H138506   4.088   1.982   0.957 -0.4153  0.8555  0.4820
 5697TIP3    H238507   3.952   1.916   0.965 -0.1612 -0.0111 -1.5328
 5698TIP3   OH238508   6.413   1.354   3.936  0.1056  0.6332  0.2180
 5698TIP3    H138509   6.465   1.288   3.982 -2.9681 -2.6736 -0.4880
 5698TIP3    H238510   6.431   1.338   3.844 -1.1327  0.2521  0.0175
 5699TIP3   OH238511   5.600   0.094   2.781  0.5855  0.1494  0.4113
 5699TIP3    H138512   5.537   0.023   2.767  0.2902 -0.3237  3.4527
 5699TIP3    H238513   5.678   0.051   2.815  1.6847  0.9982 -0.9204
 5700TIP3   OH238514   1.247   6.652   1.815 -0.2200  0.3819 -0.4532
 5700TIP3    H138515   1.338   6.681   1.804  0.8110 -1.3141  2.3596
 5700TIP3    H238516   1.248   6.561   1.784 -0.1507 -0.5708  2.1347
 5701TIP3   OH238517   2.695   1.571  15.872 -0.0696 -0.0831  0.6134
 5701TIP3    H138518   2.662   1.490  15.911  1.1438 -1.1983 -0.5780
 5701TIP3    H238519   2.627   1.597  15.810 -1.0576  0.5693  1.9137
 5702TIP3   OH238520   5.945   0.595   1.805 -0.0979 -0.0711 -0.3739
 5702TIP3    H138521   5.905   0.511   1.830 -0.1155  0.5464  1.8371
 5702TIP3    H238522   6.031   0.594   1.848 -0.2661  1.2183  0.0091
 5703TIP3   OH238523   6.565   1.940  13.601 -0.4964 -0.2227  0.1091
 5703TIP3    H138524   6.499   1.873  13.620 -0.0381 -0.8608 -0.4711
 5703TIP3    H238525   6.611   1.951  13.684 -0.5771 -0.6306  0.2133
 5704TIP3   OH238526   0.788   3.188  13.754  0.3467 -0.4642 -0.5551
 5704TIP3    H138527   0.822   3.098  13.757  0.2953 -0.5423 -1.7951
 5704TIP3    H238528   0.864   3.243  13.774  0.5485 -0.7545 -0.5089
 5705TIP3   OH238529   5.380   0.151  12.803 -0.1224  0.8187  0.0978
 5705TIP3    H138530   5.375   0.097  12.882 -0.8617  2.0671  0.9350
 5705TIP3    H238531   5.399   0.089  12.733  1.7674 -0.1846  1.3967
 5706TIP3   OH238532   2.188   0.366  12.031 -0.1287  0.2245  0.2012
 5706TIP3    H138533   2.241   0.356  12.110  0.3631 -0.9896 -0.2622
 5706TIP3    H238534   2.250   0.395  11.964  0.5351 -3.3077 -0.9121
 5707TIP3   OH238535   3.900   3.838  11.620  0.0714  0.2498  0.0753
 5707TIP3    H138536   3.893   3.898  11.546  2.3412 -0.0539 -0.4479
 5707TIP3    H238537   3.958   3.883  11.682  0.9417 -0.9175  0.1361
 5708TIP3   OH238538   3.383   2.075   1.519  0.2107 -0.1173 -0.5979
 5708TIP3    H138539   3.359   2.014   1.449 -0.5982 -0.3262 -0.1487
 5708TIP3    H238540   3.333   2.154   1.500  0.2491 -0.0567 -0.4426
 5709TIP3   OH238541   3.663   1.785  11.018  0.0519  0.0643  0.3901
 5709TIP3    H138542   3.623   1.809  11.101  1.4005  0.2438  1.0173
 5709TIP3    H238543   3.648   1.861  10.961  1.0997  0.9129  1.2048
 5710TIP3   OH238544   2.230   0.857   5.095 -0.1526  0.8079  0.3102
 5710TIP3    H138545   2.263   0.840   5.183 -1.6353  0.5718  0.8522
 5710TIP3    H238546   2.138   0.831   5.099  0.1748 -1.0064 -1.8106
 5711TIP3   OH238547   1.563   6.672  10.467  0.5552 -0.6172  0.0860
 5711TIP3    H138548   1.506   6.596  10.453 -0.3152 -0.7864  3.6013
 5711TIP3    H238549   1.504   6.746  10.474  0.4391 -0.8337  4.0626
 5712TIP3   OH238550   0.862   6.721   0.392  0.3979 -0.2028  0.3606
 5712TIP3    H138551   0.874   6.689   0.481 -0.7474  0.2975  0.7210
 5712TIP3    H238552   0.903   6.807   0.391  1.4087 -0.6731  0.0639
 5713TIP3   OH238553   1.010   4.727  16.944 -0.1479  0.0596 -0.4872
 5713TIP3    H138554   0.954   4.778  16.885  0.6889  0.7181 -0.7373
 5713TIP3    H238555   0.972   4.739  17.031 -0.5664  0.2446 -0.6938
 5714TIP3   OH238556   3.162   6.220   3.303 -0.2905 -0.2282  0.0950
 5714TIP3    H138557   3.247   6.264   3.309 -0.5601  0.2179  0.6735
 5714TIP3    H238558   3.119   6.239   3.386 -0.8727 -0.6395 -0.1064
 5715TIP3   OH238559   4.470   3.904   0.858 -0.0379 -0.1632 -0.2891
 5715TIP3    H138560   4.503   3.910   0.948  0.6851 -2.4596 -0.3495
 5715TIP3    H238561   4.539   3.945   0.805  0.7771 -1.1379 -0.0165
 5716TIP3   OH238562   3.061   0.382  10.677 -0.2738 -0.2228 -1.0066
 5716TIP3    H138563   3.072   0.348  10.765 -2.0415  0.4924 -0.4663
 5716TIP3    H238564   3.138   0.352  10.629  0.5899 -0.8264  0.7073
 5717TIP3   OH238565   5.366   3.867  15.581 -0.2981 -0.4227 -0.1217
 5717TIP3    H138566   5.441   3.888  15.526 -1.0668  1.6922 -0.4273
 5717TIP3    H238567   5.357   3.772  15.574  2.3817 -0.7574  0.0085
 5718TIP3   OH238568   6.721   0.577   0.369  0.8403 -0.5960 -0.2758
 5718TIP3    H138569   6.672   0.496   0.360 -0.0315 -0.2250  0.8450
 5718TIP3    H238570   6.660   0.637   0.412  1.3887  0.7379 -1.3152
 5719TIP3   OH238571   1.443   4.334   2.019 -0.2079  0.1991 -0.0466
 5719TIP3    H138572   1.501   4.329   1.943  0.1070  1.3172  0.1018
 5719TIP3    H238573   1.385   4.408   2.000  0.2133  0.8153  1.0310
 5720TIP3   OH238574   0.264   5.037  15.857 -0.1912  0.0213 -0.1589
 5720TIP3    H138575   0.212   5.113  15.885 -0.3213 -0.3672  0.7030
 5720TIP3    H238576   0.231   4.965  15.911 -2.0576 -1.3390 -2.8774
 5721TIP3   OH238577   4.789   4.274  14.723 -0.6801  0.4654 -0.0240
 5721TIP3    H138578   4.715   4.286  14.664 -0.5964  0.4224 -0.1382
 5721TIP3    H238579   4.855   4.337  14.692  0.2772 -1.1521 -1.4541
 5722TIP3   OH238580   2.444   2.910   0.347  0.8964  0.5253  0.3681
 5722TIP3    H138581   2.451   2.934   0.255 -0.1413 -0.0382  0.1197
 5722TIP3    H238582   2.356   2.873   0.355  1.7760 -1.5882  1.0691
 5723TIP3   OH238583   4.902   2.473  15.571 -0.1494  0.2750 -0.0140
 5723TIP3    H138584   4.929   2.563  15.551 -0.5246  0.6000  0.8856
 5723TIP3    H238585   4.840   2.483  15.643 -2.1067 -0.5130 -1.5017
 5724TIP3   OH238586   1.573   3.555  16.625  0.3806 -0.2926 -0.3463
 5724TIP3    H138587   1.569   3.464  16.655 -1.3856 -0.4579 -0.9460
 5724TIP3    H238588   1.510   3.559  16.553  0.1986  1.4794 -0.1307
 5725TIP3   OH238589   5.063   5.675   4.588  0.2039  0.1022 -0.3926
 5725TIP3    H138590   5.120   5.752   4.590  0.9287 -0.4293 -0.3020
 5725TIP3    H238591   5.116   5.607   4.547 -1.1236  0.1963 -2.4139
 5726TIP3   OH238592   2.255   0.896   0.123  0.0896  0.2597 -0.6141
 5726TIP3    H138593   2.270   0.919   0.031 -3.5522  0.5292 -1.2850
 5726TIP3    H238594   2.234   0.979   0.165 -2.5907 -0.3172 -0.6360
 5727TIP3   OH238595   4.776   4.553   1.708 -0.3286 -0.2939  0.0917
 5727TIP3    H138596   4.687   4.584   1.695 -1.2783 -2.4512  0.9975
 5727TIP3    H238597   4.799   4.582   1.796  0.3896  1.3179 -0.5804
 5728TIP3   OH238598   2.690   5.834   5.381  0.3759 -0.0096  0.3614
 5728TIP3    H138599   2.720   5.893   5.450 -3.8231  0.5734  1.9863
 5728TIP3    H238600   2.650   5.892   5.316  0.3278 -0.8048 -0.3272
 5729TIP3   OH238601   6.171   0.643  14.161  0.5090  0.6058  0.9001
 5729TIP3    H138602   6.084   0.603  14.164  0.5929 -0.0123 -1.9218
 5729TIP3    H238603   6.228   0.574  14.127  1.5965  1.7675  0.2712
 5730TIP3   OH238604   4.147   1.470  16.127 -0.4397 -0.2366 -0.1723
 5730TIP3    H138605   4.079   1.405  16.109 -0.6186  0.3158 -1.6656
 5730TIP3    H238606   4.212   1.456  16.059  1.0675 -0.8566  1.3249
 5731TIP3   OH238607   0.769   4.690   1.965  0.1028  0.2823  0.3090
 5731TIP3    H138608   0.846   4.640   1.990 -1.1955 -1.5255  0.9084
 5731TIP3    H238609   0.728   4.637   1.896 -1.4133  0.3865  1.0913
 5732TIP3   OH238610   4.813   2.120  13.214  0.4022  0.1025  0.0406
 5732TIP3    H138611   4.871   2.115  13.290  1.5471  0.0558 -0.8142
 5732TIP3    H238612   4.825   2.037  13.169 -1.2825 -0.4235  0.5019
 5733TIP3   OH238613   1.230   4.171  13.418 -0.1635 -0.4980  0.6319
 5733TIP3    H138614   1.252   4.228  13.491  0.5001 -0.4609  0.4053
 5733TIP3    H238615   1.312   4.161  13.369  0.1208 -2.7960  1.4648
 5734TIP3   OH238616   1.576   1.959   2.264  0.0188 -0.1697 -0.1854
 5734TIP3    H138617   1.619   1.913   2.335 -2.1306 -0.2977  1.1083
 5734TIP3    H238618   1.642   2.020   2.231  1.2011 -0.4176  1.6313
 5735TIP3   OH238619   4.070   2.951  12.351 -0.1654  0.0079  0.2916
 5735TIP3    H138620   3.994   3.009  12.354 -0.1235  0.0847 -0.0373
 5735TIP3    H238621   4.034   2.866  12.324 -0.3843 -0.4001  1.7786
 5736TIP3   OH238622   2.007   5.095  16.576  0.7469  0.4686  0.1812
 5736TIP3    H138623   2.003   5.167  16.638 -1.1029  0.2230  0.3849
 5736TIP3    H238624   1.980   5.134  16.492  0.8647  0.2630  0.0478
 5737TIP3   OH238625   2.741   3.881   2.915 -0.1537  0.4195  0.1987
 5737TIP3    H138626   2.778   3.966   2.892 -1.9829  0.8401 -1.4085
 5737TIP3    H238627   2.659   3.902   2.959  0.1235 -0.5167  1.2007
 5738TIP3   OH238628   1.101   3.945  14.371  0.1412  0.2530 -0.4215
 5738TIP3    H138629   1.135   3.871  14.421  3.2984 -0.3320 -3.0692
 5738TIP3    H238630   1.098   4.018  14.432  0.2105 -1.2339  1.4303
 5739TIP3   OH238631   3.638   0.674   0.751  0.2683 -0.2997  0.0082
 5739TIP3    H138632   3.682   0.593   0.728 -1.0727 -0.7937 -0.9465
 5739TIP3    H238633   3.566   0.681   0.689  0.6081  1.8627 -0.2220
 5740TIP3   OH238634   2.485   4.674  13.988 -0.1895 -0.4579  0.3343
 5740TIP3    H138635   2.421   4.740  13.963  2.1025  2.2432  1.0972
 5740TIP3    H238636   2.466   4.656  14.081  1.3851  2.0489  1.2399
 5741TIP3   OH238637   5.419   2.268  11.436  0.1087  0.8124  0.4231
 5741TIP3    H138638   5.396   2.263  11.343 -2.0634  1.4360  0.8644
 5741TIP3    H238639   5.507   2.304  11.437 -0.2217  1.8031 -1.3877
 5742TIP3   OH238640   2.890   3.620  12.757 -0.0562  0.4129  0.1841
 5742TIP3    H138641   2.967   3.607  12.813  1.4607  1.6837 -1.4480
 5742TIP3    H238642   2.889   3.714  12.741  0.2434  0.0005 -2.7298
 5743TIP3   OH238643   4.958   5.220   0.587 -0.9738 -0.2384 -0.0623
 5743TIP3    H138644   4.955   5.231   0.492  0.4018  1.4546  0.0370
 5743TIP3    H238645   5.018   5.147   0.601 -0.7682 -0.1534 -0.4843
 5744TIP3   OH238646   6.050   1.787  14.577 -0.1590 -0.4398 -0.0371
 5744TIP3    H138647   5.969   1.818  14.538 -0.2819  0.9137  1.1815
 5744TIP3    H238648   6.026   1.765  14.667  0.3519 -2.3457 -0.3283
 5745TIP3   OH238649   1.250   1.011   5.064 -0.0596  0.0530  0.4717
 5745TIP3    H138650   1.227   0.956   5.140 -0.3915 -1.2042 -0.4958
 5745TIP3    H238651   1.343   0.993   5.049 -0.2787 -0.6521 -0.1318
 5746TIP3   OH238652   1.635   3.964  16.784  0.4396 -0.1721 -0.1431
 5746TIP3    H138653   1.565   3.948  16.721 -0.7195  0.5413  0.8896
 5746TIP3    H238654   1.702   4.011  16.735  1.0569 -2.4249 -1.6009
 5747TIP3   OH238655   5.353   5.423   1.647  0.1952 -0.6973 -0.0347
 5747TIP3    H138656   5.278   5.403   1.592  0.2760  2.0814 -1.3348
 5747TIP3    H238657   5.323   5.492   1.706  1.2833 -0.7049  0.5720
 5748TIP3   OH238658   1.303   0.084   1.280  0.2294 -0.0746 -0.1359
 5748TIP3    H138659   1.313   0.113   1.189 -0.5904 -1.1740 -0.5999
 5748TIP3    H238660   1.209   0.090   1.296  0.2737 -0.6568  0.3676
 5749TIP3   OH238661   5.728   0.261  12.670 -0.1033  0.0728 -0.2517
 5749TIP3    H138662   5.706   0.352  12.650 -0.2520  0.2605  0.7162
 5749TIP3    H238663   5.792   0.237  12.602 -1.0465  0.4653 -1.3187
 5750TIP3   OH238664   2.210   3.419  16.654  0.2382 -0.6491  0.5622
 5750TIP3    H138665   2.275   3.485  16.677  0.2531  0.0932 -1.4244
 5750TIP3    H238666   2.257   3.335  16.661  1.2208 -0.1804 -0.1561
 5751TIP3   OH238667   1.686   1.807  11.239  0.8705 -0.4469 -0.3112
 5751TIP3    H138668   1.741   1.827  11.163 -2.0442  2.6577 -1.8738
 5751TIP3    H238669   1.698   1.881  11.298 -1.6157  0.4422 -0.8017
 5752TIP3   OH238670   0.720   0.600  13.762  0.1470 -0.5692  0.0082
 5752TIP3    H138671   0.719   0.681  13.813 -1.4343 -1.0197  0.7510
 5752TIP3    H238672   0.736   0.629  13.672  2.9954  0.2403  0.6665
 5753TIP3   OH238673   0.411   0.898   0.172 -0.5044  0.1480 -0.3649
 5753TIP3    H138674   0.500   0.874   0.199 -0.6755  0.3301  0.3682
 5753TIP3    H238675   0.423   0.979   0.122 -0.4027  1.0664  1.0816
 5754TIP3   OH238676   6.491   6.150   2.335 -0.4670 -0.7531 -0.4110
 5754TIP3    H138677   6.498   6.124   2.427 -0.6900 -1.5411 -0.6064
 5754TIP3    H238678   6.525   6.075   2.287  0.3535 -0.0517 -0.9601
 5755TIP3   OH238679   4.050   1.355  14.173 -0.2448  0.1261 -0.7143
 5755TIP3    H138680   3.984   1.340  14.105 -0.8184  2.2402 -0.7091
 5755TIP3    H238681   4.010   1.420  14.232  1.1193  0.0570  0.3539
 5756TIP3   OH238682   3.350   4.458  15.065  0.1031 -1.0054 -0.3883
 5756TIP3    H138683   3.316   4.533  15.114 -1.4015 -2.7278  1.3943
 5756TIP3    H238684   3.341   4.483  14.973  1.1512  1.5749  0.1349
 5757TIP3   OH238685   4.877   5.697  12.735 -0.4106 -0.1839  0.1023
 5757TIP3    H138686   4.956   5.666  12.779 -1.5626 -0.8102  1.8417
 5757TIP3    H238687   4.832   5.617  12.707 -1.6264  0.0127  1.3779
 5758TIP3   OH238688   2.130   3.848  12.182  0.0377  0.6557 -0.1996
 5758TIP3    H138689   2.217   3.825  12.215 -0.9324 -1.0225  1.3255
 5758TIP3    H238690   2.073   3.779  12.214 -1.8240  1.5393 -1.4605
 5759TIP3   OH238691   4.841   6.725   5.802 -0.1525  0.2188  0.1298
 5759TIP3    H138692   4.845   6.753   5.711 -1.8766 -1.0496 -0.3956
 5759TIP3    H238693   4.766   6.665   5.805  0.4834 -0.5479  2.1741
 5760TIP3   OH238694   3.493   5.462   1.708 -0.5275 -0.4876 -0.7264
 5760TIP3    H138695   3.550   5.417   1.646 -0.5722 -0.2281 -0.9583
 5760TIP3    H238696   3.517   5.426   1.794  0.1172 -0.2476 -0.7967
 5761TIP3   OH238697   0.644   6.037   2.803  0.3698  0.0141  0.5563
 5761TIP3    H138698   0.721   6.093   2.797 -1.4062  2.7962  1.7572
 5761TIP3    H238699   0.660   5.981   2.878  1.6212 -0.1441  0.1855
 5762TIP3   OH238700   6.331   0.414  15.917 -0.1650 -0.1023  0.5161
 5762TIP3    H138701   6.353   0.441  16.006 -0.6084  1.8369  0.0733
 5762TIP3    H238702   6.376   0.330  15.906  0.0144 -0.3108  2.5035
 5763TIP3   OH238703   3.867   4.618   3.929  0.0334  0.6025  0.1206
 5763TIP3    H138704   3.772   4.627   3.938  0.1221  0.8553  0.9405
 5763TIP3    H238705   3.880   4.525   3.909 -0.3075  0.2187  1.5605
 5764TIP3   OH238706   4.156   1.720   6.036 -0.5177 -0.3731 -0.0706
 5764TIP3    H138707   4.156   1.802   6.084  2.2668 -1.7027  2.5050
 5764TIP3    H238708   4.186   1.744   5.948 -0.3164  1.4267  0.4558
 5765TIP3   OH238709   6.091   5.225  16.129  1.1515 -0.5457 -0.1943
 5765TIP3    H138710   6.101   5.273  16.211  0.5258 -0.0120 -0.4236
 5765TIP3    H238711   6.009   5.259  16.091  1.4146 -0.8135 -1.0159
 5766TIP3   OH238712   6.711   2.337   1.893 -0.2283  0.2620  0.2395
 5766TIP3    H138713   6.807   2.331   1.900  0.0157  2.0749 -0.8575
 5766TIP3    H238714   6.696   2.355   1.800 -1.7025 -0.5865  0.2857
 5767TIP3   OH238715   3.005   3.462   3.340  0.3916 -0.2629 -0.0442
 5767TIP3    H138716   2.925   3.508   3.366  0.1932  0.2594 -1.4903
 5767TIP3    H238717   3.057   3.457   3.420 -1.3792 -1.2601  1.1188
 5768TIP3   OH238718   2.315   2.593  16.163  0.1176  0.0927  0.0663
 5768TIP3    H138719   2.337   2.501  16.150  1.1434 -0.0142  2.0730
 5768TIP3    H238720   2.342   2.637  16.083  2.4244 -0.9286  0.2253
 5769TIP3   OH238721   4.097   0.592  16.230 -0.6772  0.1455 -0.0385
 5769TIP3    H138722   4.029   0.656  16.252  0.0252  0.9379 -0.1304
 5769TIP3    H238723   4.094   0.586  16.134  0.7419  1.7661 -0.2426
 5770TIP3   OH238724   2.378   1.324  14.436  0.1107  0.1053  0.2066
 5770TIP3    H138725   2.377   1.252  14.500 -1.4630  0.4050  0.5593
 5770TIP3    H238726   2.377   1.280  14.351 -1.0732 -0.3194  0.4185
 5771TIP3   OH238727   2.677   0.038  13.342 -0.2894 -0.5403  0.0113
 5771TIP3    H138728   2.690  -0.044  13.390 -0.2505 -1.7872 -2.0276
 5771TIP3    H238729   2.765   0.067  13.320 -0.2212  0.8281  1.8747
 5772TIP3   OH238730   4.496   3.398   3.212  0.2246 -0.8717 -0.2332
 5772TIP3    H138731   4.476   3.492   3.217  0.0271 -0.8359 -1.3342
 5772TIP3    H238732   4.415   3.355   3.238 -0.8212 -0.7176 -2.9323
 5773TIP3   OH238733   4.639   1.793   1.559  0.0326  0.5706 -0.2601
 5773TIP3    H138734   4.672   1.708   1.530 -0.2764  0.2171  0.3916
 5773TIP3    H238735   4.546   1.791   1.535  0.1211  0.8938 -0.6223
 5774TIP3   OH238736   5.265   2.221   4.589  0.8013 -0.1500 -0.7063
 5774TIP3    H138737   5.318   2.258   4.518 -0.2983  1.5194 -0.7279
 5774TIP3    H238738   5.188   2.185   4.545 -0.2183  1.5064 -0.3773
 5775TIP3   OH238739   2.414   1.246  16.949 -0.6791 -0.0535 -0.4514
 5775TIP3    H138740   2.491   1.293  16.979 -0.4076 -0.6121 -0.2610
 5775TIP3    H238741   2.430   1.231  16.856 -0.3131 -0.6241 -0.3028
 5776TIP3   OH238742   3.189   4.460  12.112  0.5067  0.4620 -0.2134
 5776TIP3    H138743   3.277   4.423  12.120  0.1294 -0.9243 -1.9058
 5776TIP3    H238744   3.130   4.389  12.137 -0.1714  1.2369  0.4743
 5777TIP3   OH238745   3.485   1.956   3.479  0.2708 -0.4645  0.2305
 5777TIP3    H138746   3.406   2.002   3.450 -0.2905 -1.2193  0.5287
 5777TIP3    H238747   3.533   2.021   3.531 -0.0316  0.0727 -0.1549
 5778TIP3   OH238748   4.044   3.002  11.085  0.1548  0.2020 -0.1547
 5778TIP3    H138749   4.040   3.091  11.051  0.3665 -0.4197 -1.9074
 5778TIP3    H238750   4.133   2.973  11.066  0.0547 -0.4177  0.2962
 5779TIP3   OH238751   0.483   4.338   1.174  0.1015  0.3008  0.2909
 5779TIP3    H138752   0.495   4.384   1.091  0.3797 -1.4905 -0.7351
 5779TIP3    H238753   0.567   4.346   1.219  0.2943  0.3913 -0.0853
 5780TIP3   OH238754   5.353   4.128   0.048 -0.2171  0.2991 -0.0336
 5780TIP3    H138755   5.445   4.112   0.029 -0.2663 -0.1989  0.1588
 5780TIP3    H238756   5.308   4.049   0.020 -0.2857 -0.5331  2.2689
 5781TIP3   OH238757   4.217   3.944   0.723 -0.4779  0.1744 -0.8049
 5781TIP3    H138758   4.295   3.962   0.776 -0.4563  1.2853 -1.1826
 5781TIP3    H238759   4.146   3.990   0.768 -0.7762 -0.2334 -0.8543
 5782TIP3   OH238760   2.938   2.441  12.615  0.2702 -0.1119 -0.3364
 5782TIP3    H138761   2.924   2.441  12.521 -0.6047  0.8296 -0.2248
 5782TIP3    H238762   3.021   2.487  12.627 -0.4561  1.3221 -0.5744
 5783TIP3   OH238763   3.166   0.548   0.605  0.3299  0.0124  0.0024
 5783TIP3    H138764   3.152   0.457   0.631 -1.5523 -0.3918 -2.0795
 5783TIP3    H238765   3.230   0.542   0.534  1.0497  0.4612  0.6004
 5784TIP3   OH238766   5.404   2.703  11.328  0.0339 -0.4500  0.1467
 5784TIP3    H138767   5.469   2.705  11.399  0.9520 -2.0004 -0.5772
 5784TIP3    H238768   5.360   2.618  11.339 -0.7450 -0.1150 -0.3473
 5785TIP3   OH238769   5.347   1.108  12.850 -0.4086  0.6614  0.3791
 5785TIP3    H138770   5.347   1.054  12.771 -1.9133 -0.1253  0.8720
 5785TIP3    H238771   5.255   1.117  12.872 -0.0083  0.7354  2.1273
 5786TIP3   OH238772   5.270   0.445   3.975  0.3134 -0.4284  0.0672
 5786TIP3    H138773   5.361   0.468   3.993 -0.0504  1.6109 -0.4705
 5786TIP3    H238774   5.220   0.483   4.047 -0.2160 -0.5357 -0.2370
 5787TIP3   OH238775   5.288   2.253   5.458 -0.2145 -0.5037 -0.1610
 5787TIP3    H138776   5.379   2.228   5.444 -0.9817 -3.2332 -0.8146
 5787TIP3    H238777   5.283   2.274   5.551  1.1091  0.0107 -0.1784
 5788TIP3   OH238778   5.117   2.695   5.156 -1.1432  0.5035  0.2871
 5788TIP3    H138779   5.190   2.756   5.142 -0.9668  0.1007 -0.6631
 5788TIP3    H238780   5.073   2.691   5.070 -1.5463 -0.1940  0.5185
 5789TIP3   OH238781   1.552   6.505  13.887  0.0280  0.1727  0.2581
 5789TIP3    H138782   1.549   6.502  13.982  0.4130  1.2206  0.3181
 5789TIP3    H238783   1.611   6.434  13.862 -1.0975 -0.9489  0.7133
 5790TIP3   OH238784   3.924   0.993   3.092  0.1229 -0.2558  0.5501
 5790TIP3    H138785   3.985   1.060   3.122 -0.2344  0.1896  0.2899
 5790TIP3    H238786   3.839   1.037   3.089 -0.0714 -0.6485  0.1362
 5791TIP3   OH238787   1.584   1.289   3.263  0.0147  0.1283 -0.2193
 5791TIP3    H138788   1.646   1.362   3.269  0.8824 -0.3226 -2.6457
 5791TIP3    H238789   1.517   1.320   3.202  0.7566 -1.2814 -1.8345
 5792TIP3   OH238790   5.429   2.372  13.227  0.0869  0.5039  0.1601
 5792TIP3    H138791   5.392   2.347  13.143  1.0479 -0.2523 -0.0603
 5792TIP3    H238792   5.359   2.357  13.290  0.1063 -1.2637 -0.1892
 5793TIP3   OH238793   6.064   3.223   1.227  0.1394 -0.3333 -0.0793
 5793TIP3    H138794   6.072   3.244   1.320 -0.6390 -1.0776  0.1630
 5793TIP3    H238795   5.973   3.196   1.216  0.5330 -1.3923 -0.8253
 5794TIP3   OH238796   4.583   0.897  13.072 -0.0127 -0.0040  0.0224
 5794TIP3    H138797   4.602   0.829  13.137 -1.3344 -0.6536 -0.2457
 5794TIP3    H238798   4.488   0.893  13.059 -0.0840  1.6859 -0.2433
 5795TIP3   OH238799   0.785   1.019   4.218 -0.1941 -0.3180 -0.3747
 5795TIP3    H138800   0.808   0.929   4.241  2.6867 -0.4991 -3.2814
 5795TIP3    H238801   0.842   1.073   4.273  0.4965 -0.4303 -0.9653
 5796TIP3   OH238802   1.276   3.374  16.084 -0.0593 -0.0255 -0.3466
 5796TIP3    H138803   1.245   3.463  16.096 -0.0913 -0.0693 -0.0919
 5796TIP3    H238804   1.319   3.374  15.998  0.2856  0.3351 -0.1764
 5797TIP3   OH238805   6.478   1.464  14.333  0.1707  0.3150  0.2400
 5797TIP3    H138806   6.401   1.412  14.351 -0.7119  1.9787  1.5921
 5797TIP3    H238807   6.458   1.510  14.251  0.7227 -0.9939 -0.6523
 5798TIP3   OH238808   3.368   5.029   4.148 -0.5914  0.7171 -0.5653
 5798TIP3    H138809   3.363   4.941   4.111 -1.9886  0.5295  0.0348
 5798TIP3    H238810   3.316   5.083   4.089 -0.5410  0.9581 -0.3910
 5799TIP3   OH238811   4.340   4.017  16.439  0.2955 -0.4872 -0.3775
 5799TIP3    H138812   4.367   4.039  16.350  0.2229  0.3397 -0.2023
 5799TIP3    H238813   4.408   3.958  16.471  2.0196  1.5988  0.0846
 5800TIP3   OH238814   0.423   5.226  10.951 -0.2726 -0.4596  0.2748
 5800TIP3    H138815   0.399   5.316  10.929  2.3327  0.3202  0.3007
 5800TIP3    H238816   0.386   5.212  11.038  0.2953  1.0411  0.7899
 5801TIP3   OH238817   2.703   1.523   3.053  0.0517 -0.4939 -0.1101
 5801TIP3    H138818   2.618   1.545   3.016  0.4488  0.7334 -0.3547
 5801TIP3    H238819   2.737   1.607   3.086  0.5709 -1.1918  1.2395
 5802TIP3   OH238820   2.756   0.518   0.035 -0.5250  0.9418  0.3050
 5802TIP3    H138821   2.682   0.576   0.017 -2.2891 -1.3745 -0.4514
 5802TIP3    H238822   2.752   0.451  -0.034  0.7641 -0.6379  1.6634
 5803TIP3   OH238823   5.845   1.451  11.932 -0.0232  0.2909  0.6936
 5803TIP3    H138824   5.836   1.385  11.863  0.7806 -1.1201  1.8780
 5803TIP3    H238825   5.788   1.422  12.002 -0.1866  1.2486  0.9788
 5804TIP3   OH238826   4.160   4.942  11.811 -0.2418 -0.2867 -0.2842
 5804TIP3    H138827   4.099   4.973  11.878 -0.5927  0.8841 -1.1008
 5804TIP3    H238828   4.104   4.925  11.735  0.4674  1.3607 -1.2336
 5805TIP3   OH238829   1.487   5.924   2.467  0.6444 -0.3562 -0.5105
 5805TIP3    H138830   1.406   5.973   2.481  0.5927 -0.6072  0.0806
 5805TIP3    H238831   1.556   5.989   2.476  0.6684 -0.6229  1.7147
 5806TIP3   OH238832   6.605   4.795   0.634 -0.0256  0.1873 -0.4405
 5806TIP3    H138833   6.576   4.750   0.713  0.3802  1.6010  0.5648
 5806TIP3    H238834   6.668   4.735   0.594  0.0963 -0.3819  0.5559
 5807TIP3   OH238835   0.861   4.244   4.467 -0.1440 -0.0449  0.3473
 5807TIP3    H138836   0.835   4.178   4.403  0.0975 -0.9969  1.1942
 5807TIP3    H238837   0.849   4.201   4.552 -2.7069  1.9629  1.1162
 5808TIP3   OH238838   5.357   5.936   1.739  0.1658  0.1879  0.0986
 5808TIP3    H138839   5.393   5.897   1.660  0.9207  1.0774 -0.0126
 5808TIP3    H238840   5.337   6.026   1.715 -0.8192  0.1122  0.5703
 5809TIP3   OH238841   1.369   1.272  13.537  0.2074  0.1634 -1.0422
 5809TIP3    H138842   1.349   1.286  13.630  0.1586 -0.6620 -0.9228
 5809TIP3    H238843   1.441   1.332  13.518  1.6953 -1.1666  0.0884
 5810TIP3   OH238844   0.412   3.719   0.791 -0.1126  0.5054  0.6124
 5810TIP3    H138845   0.377   3.629   0.793  1.7417 -0.2414  1.1304
 5810TIP3    H238846   0.402   3.750   0.881  0.3654  0.3640  0.7150
 5811TIP3   OH238847   1.565   1.023   1.783 -0.1354  0.1526  0.3561
 5811TIP3    H138848   1.515   0.973   1.849 -1.1808  1.5413  0.6674
 5811TIP3    H238849   1.518   1.006   1.701  0.5833 -0.7910  0.1268
 5812TIP3   OH238850   6.368   5.554  15.872 -0.7536 -0.5326 -0.3774
 5812TIP3    H138851   6.397   5.498  15.801 -0.0346 -0.9002  0.1854
 5812TIP3    H238852   6.400   5.642  15.849 -0.5603 -0.6434 -0.5281
 5813TIP3   OH238853   3.355   5.693   5.188 -0.0080 -0.3650  0.3423
 5813TIP3    H138854   3.433   5.731   5.228 -1.2789  0.8263  1.7815
 5813TIP3    H238855   3.282   5.743   5.224 -1.3363  0.0256 -2.6377
 5814TIP3   OH238856   1.839   1.372  14.452  0.6549 -0.0449  0.5830
 5814TIP3    H138857   1.926   1.373  14.411  0.2441 -2.4107 -0.5527
 5814TIP3    H238858   1.780   1.405  14.384  0.6148  1.5363  1.3431
 5815TIP3   OH238859   1.989   2.703  13.277 -0.5253 -0.3622 -0.5681
 5815TIP3    H138860   1.977   2.798  13.272 -0.0871 -0.2714  0.1276
 5815TIP3    H238861   1.956   2.678  13.363  1.6127 -0.4964  0.2682
 5816TIP3   OH238862   5.872   4.841   0.364  0.3601  0.9165  0.5230
 5816TIP3    H138863   5.780   4.822   0.379  0.5689  0.0040  0.7428
 5816TIP3    H238864   5.909   4.848   0.452  0.2661  2.5617  0.4508
 5817TIP3   OH238865   5.670   6.637   0.086  0.3192 -0.0230  0.3500
 5817TIP3    H138866   5.701   6.649  -0.004  0.5361 -0.8421  0.3078
 5817TIP3    H238867   5.604   6.705   0.098  0.7036  0.4646 -0.2339
 5818TIP3   OH238868   4.109   2.274   0.534 -0.2999 -0.0581  0.2464
 5818TIP3    H138869   4.129   2.202   0.474 -2.5158  0.7020 -1.5271
 5818TIP3    H238870   4.130   2.353   0.485  0.3327  0.5694  1.4841
 5819TIP3   OH238871   2.057   1.567   3.192  0.3964 -0.5248 -0.1556
 5819TIP3    H138872   2.109   1.486   3.191 -0.3680 -1.0273 -0.3248
 5819TIP3    H238873   2.012   1.565   3.276  1.1348  0.2332  0.2667
 5820TIP3   OH238874   4.564   3.787   5.096 -0.4488  0.0374 -0.2579
 5820TIP3    H138875   4.516   3.714   5.058 -1.8253  0.9621 -0.3589
 5820TIP3    H238876   4.532   3.792   5.186  1.2585 -0.8275  0.4471
 5821TIP3   OH238877   5.981   0.897  12.541  0.4083  0.3710 -0.3648
 5821TIP3    H138878   6.000   0.805  12.523 -2.6297 -0.4601  0.1483
 5821TIP3    H238879   5.981   0.939  12.455  0.3107 -0.4417 -0.7719
 5822TIP3   OH238880   4.636   0.410   0.851  0.6308 -0.1064  0.0297
 5822TIP3    H138881   4.565   0.472   0.836 -0.9322 -1.4261  1.5749
 5822TIP3    H238882   4.602   0.326   0.822  2.3674 -0.4474 -1.1478
 5823TIP3   OH238883   0.153   0.871  11.799 -0.0908  0.2141  0.1395
 5823TIP3    H138884   0.212   0.834  11.865  1.4104  4.1765  1.2813
 5823TIP3    H238885   0.068   0.875  11.842  0.4171  0.8759  1.1043
 5824TIP3   OH238886   1.406   3.842   4.614  0.2986  0.1650 -0.1465
 5824TIP3    H138887   1.381   3.753   4.588 -1.0351  0.3396  0.4640
 5824TIP3    H238888   1.379   3.850   4.705  1.6381  0.7657  0.2253
 5825TIP3   OH238889   5.264   3.709   3.975  0.6562  0.0896 -0.4100
 5825TIP3    H138890   5.230   3.776   4.036  1.0306 -0.7787  0.7994
 5825TIP3    H238891   5.199   3.705   3.905 -0.5109  0.1896  0.6237
 5826TIP3   OH238892   2.294   6.331   0.559 -0.1780 -0.1135  0.2935
 5826TIP3    H138893   2.379   6.363   0.530 -0.0212 -1.1403 -0.4386
 5826TIP3    H238894   2.296   6.338   0.654  0.2262  1.0601  0.2154
 5827TIP3   OH238895   4.611   4.771   5.757  0.5167  0.6525 -0.0592
 5827TIP3    H138896   4.612   4.679   5.784  0.1583  0.6079 -0.1989
 5827TIP3    H238897   4.522   4.801   5.774  1.2663  1.7313  2.5378
 5828TIP3   OH238898   4.945   5.361  10.296 -0.3406  0.2941  0.3097
 5828TIP3    H138899   4.920   5.271  10.276 -0.1668  0.1489  0.7325
 5828TIP3    H238900   5.000   5.387  10.222 -0.7376  0.2011 -0.0246
 5829TIP3   OH238901   4.218   3.842   1.686 -0.3696  0.2661  0.2370
 5829TIP3    H138902   4.227   3.779   1.614  0.1648 -2.1182  2.2699
 5829TIP3    H238903   4.126   3.867   1.684 -0.2793  0.6365 -1.5134
 5830TIP3   OH238904   2.053   5.678  16.223 -0.0329 -0.0299 -0.0545
 5830TIP3    H138905   2.058   5.629  16.305 -1.7939  0.4719  0.3828
 5830TIP3    H238906   1.987   5.632  16.172 -3.0104  2.6817  1.0186
 5831TIP3   OH238907   5.208   0.772   5.868 -0.3809 -0.0478  0.7198
 5831TIP3    H138908   5.288   0.754   5.916 -0.8649  0.3861  1.7278
 5831TIP3    H238909   5.142   0.716   5.909 -0.0550 -2.6103 -1.9726
 5832TIP3   OH238910   0.992   6.074   1.474  0.2067 -0.0805 -0.3950
 5832TIP3    H138911   1.015   6.005   1.536 -1.3047 -0.9535 -0.7741
 5832TIP3    H238912   0.938   6.134   1.525  3.4486  2.2811  0.6584
 5833TIP3   OH238913   1.568   3.202  15.652 -0.4388  0.9310 -0.2726
 5833TIP3    H138914   1.585   3.220  15.744  2.8340  1.0190 -0.7712
 5833TIP3    H238915   1.591   3.283  15.607  0.7504  0.0392 -1.3577
 5834TIP3   OH238916   3.832   3.274  11.330 -0.6928  0.3300  0.2720
 5834TIP3    H138917   3.846   3.318  11.414  1.3639  2.5210 -1.0877
 5834TIP3    H238918   3.821   3.182  11.353 -1.0959  0.9636  2.9835
 5835TIP3   OH238919   2.305   2.556  10.364  0.0015  0.2300 -0.4037
 5835TIP3    H138920   2.360   2.575  10.288  1.3325 -0.1233  0.4197
 5835TIP3    H238921   2.254   2.480  10.340  0.8267 -0.2225 -0.7609
 5836TIP3   OH238922   3.528   3.780  15.045 -0.5440  0.2010 -0.0618
 5836TIP3    H138923   3.451   3.791  14.988 -1.1031 -0.5125  0.5446
 5836TIP3    H238924   3.521   3.691  15.078  0.7524  0.0038 -0.2733
 5837TIP3   OH238925   6.650   3.075  15.973  0.1082 -0.3438  0.0089
 5837TIP3    H138926   6.734   3.120  15.965 -0.1017  0.3411  1.2920
 5837TIP3    H238927   6.606   3.091  15.890  0.3281  1.2641  0.1598
 5838TIP3   OH238928   1.712   4.515   3.517  0.1953  0.4539 -0.2023
 5838TIP3    H138929   1.753   4.602   3.517 -0.2432  0.7850 -3.3491
 5838TIP3    H238930   1.786   4.455   3.527  1.0886  1.1382 -2.1298
 5839TIP3   OH238931   6.435   5.810  15.692 -0.3027 -0.4000  0.8993
 5839TIP3    H138932   6.447   5.772  15.605  0.1513 -0.0193  0.7926
 5839TIP3    H238933   6.496   5.883  15.695 -0.0825 -0.6060  1.6531
 5840TIP3   OH238934   5.449   1.266  14.918 -0.5421  0.1918 -0.0343
 5840TIP3    H138935   5.383   1.319  14.961 -0.7433  0.6032 -0.8376
 5840TIP3    H238936   5.413   1.177  14.919  0.5834 -0.3402  2.9400
 5841TIP3   OH238937   2.315   3.222  15.278  0.0455  0.1747  0.0589
 5841TIP3    H138938   2.235   3.209  15.327 -1.5174 -0.1067 -2.3944
 5841TIP3    H238939   2.308   3.311  15.243  0.5866  0.0062 -0.5091
 5842TIP3   OH238940   5.883   0.829  13.892 -0.0291 -0.3868  0.0874
 5842TIP3    H138941   5.869   0.791  13.978  2.6160 -1.2036  0.2582
 5842TIP3    H238942   5.958   0.781  13.856 -0.7285  0.2504 -2.4817
 5843TIP3   OH238943   1.714   3.147   2.776  0.2818 -0.3833  0.6061
 5843TIP3    H138944   1.643   3.122   2.836  0.7742  0.8890  1.7796
 5843TIP3    H238945   1.793   3.140   2.829  1.0878 -1.7715 -0.6837
 5844TIP3   OH238946   4.328   6.057   4.205  0.3538  0.4078 -0.0067
 5844TIP3    H138947   4.385   5.993   4.246 -2.7005 -3.5857 -1.2981
 5844TIP3    H238948   4.360   6.065   4.116  1.8525  2.3331  0.6388
 5845TIP3   OH238949   3.175   0.727   3.250 -0.2707  0.4495  0.3523
 5845TIP3    H138950   3.202   0.766   3.332  0.9297  1.6745 -0.5804
 5845TIP3    H238951   3.178   0.632   3.266  0.4394  0.6626  1.5519
 5846TIP3   OH238952   2.805   3.836  16.538 -0.0082 -0.3811  0.3266
 5846TIP3    H138953   2.751   3.803  16.467  0.3411 -0.0730 -0.0889
 5846TIP3    H238954   2.788   3.777  16.611  0.4225 -1.3421 -0.3332
 5847TIP3   OH238955   0.461   6.693   3.792  0.4446  0.2173  0.3628
 5847TIP3    H138956   0.446   6.762   3.728  1.2222 -0.1136 -0.1923
 5847TIP3    H238957   0.373   6.669   3.822  0.0877  0.5765 -0.3721
 5848TIP3   OH238958   5.723   4.477  13.576  0.2986 -0.2830 -0.1161
 5848TIP3    H138959   5.672   4.551  13.607  0.8137  0.2640 -0.5463
 5848TIP3    H238960   5.809   4.488  13.616  0.1437 -1.1024  0.4713
 5849TIP3   OH238961   0.802   5.702   6.240 -0.1705 -0.5541  0.3646
 5849TIP3    H138962   0.717   5.657   6.245 -1.0496  1.1197  1.3851
 5849TIP3    H238963   0.786   5.777   6.183  0.0643  0.8401  2.0517
 5850TIP3   OH238964   3.581   3.723  16.218  0.2117  0.7767  0.1829
 5850TIP3    H138965   3.673   3.749  16.223  0.4900 -0.1755  0.2245
 5850TIP3    H238966   3.570   3.663  16.292  0.3456 -1.4192 -1.4608
 5851TIP3   OH238967   3.278   3.960   3.195  0.4903 -0.0298  0.0484
 5851TIP3    H138968   3.216   3.947   3.123 -0.6575  0.1115  0.9789
 5851TIP3    H238969   3.306   4.051   3.187  1.4830 -0.4050 -1.0453
 5852TIP3   OH238970   0.409   1.502   1.793  0.7313  0.3124  0.1645
 5852TIP3    H138971   0.414   1.461   1.707  1.9021  0.0574  0.3282
 5852TIP3    H238972   0.498   1.492   1.829  0.8841  2.3659  0.4845
 5853TIP3   OH238973   2.899   4.517  12.786  0.3610  0.0676  0.2131
 5853TIP3    H138974   2.945   4.439  12.818  0.2803 -1.1771 -2.4498
 5853TIP3    H238975   2.931   4.529  12.696 -1.5369  1.5861 -0.3334
 5854TIP3   OH238976   0.874   2.178  15.028 -0.0195  0.2098  0.2775
 5854TIP3    H138977   0.868   2.147  15.118 -2.3928  0.9534  0.4474
 5854TIP3    H238978   0.814   2.253  15.024 -0.9077 -0.5242 -2.1909
 5855TIP3   OH238979   1.132   6.379  11.232 -0.4642 -0.9562  0.0443
 5855TIP3    H138980   1.102   6.440  11.300 -1.4270  0.2771 -1.4139
 5855TIP3    H238981   1.155   6.300  11.280 -1.5418 -0.2997  1.7620
 5856TIP3   OH238982   5.477   0.356   5.323  0.1297 -0.3603  0.2504
 5856TIP3    H138983   5.541   0.392   5.385  1.2172  1.1436 -1.6168
 5856TIP3    H238984   5.505   0.266   5.310 -0.3306 -0.8168  2.1595
 5857TIP3   OH238985   0.162   5.602  11.925 -0.3372 -0.4984 -0.5593
 5857TIP3    H138986   0.253   5.596  11.955 -0.5417 -1.6682 -0.1190
 5857TIP3    H238987   0.168   5.604  11.830  0.1703 -0.0525 -0.5241
 5858TIP3   OH238988   2.718   1.225  12.575 -0.0598  0.1859  0.2818
 5858TIP3    H138989   2.772   1.297  12.541  0.2973  0.5453  1.5845
 5858TIP3    H238990   2.654   1.267  12.631  0.6470 -0.5526  1.6963
 5859TIP3   OH238991   3.676   0.985   5.889  0.1665  0.7847  0.1502
 5859TIP3    H138992   3.661   0.995   5.795 -1.1129  0.1397  0.2633
 5859TIP3    H238993   3.732   0.907   5.896 -1.1476 -0.2159 -0.0197
 5860TIP3   OH238994   5.157   3.027  14.829  0.3336  0.4776  0.1146
 5860TIP3    H138995   5.134   3.042  14.738 -0.8619  0.3773  0.3762
 5860TIP3    H238996   5.231   2.967  14.826 -3.0679 -4.3090 -0.8906
 5861TIP3   OH238997   3.027   6.169  13.309 -0.0314  1.1100 -0.6044
 5861TIP3    H138998   3.012   6.151  13.402  0.8935 -0.0061 -0.6543
 5861TIP3    H238999   2.979   6.250  13.292 -0.8127  0.9311  0.6710
 5862TIP3   OH239000   2.559   1.163  15.465  0.4228 -0.4734  0.4639
 5862TIP3    H139001   2.527   1.186  15.552 -0.1678 -0.7495  0.3197
 5862TIP3    H239002   2.497   1.099  15.432  0.9192 -0.7432  0.0338
 5863TIP3   OH239003   2.536   2.121  15.089  0.0759  0.4500 -0.0246
 5863TIP3    H139004   2.515   2.129  15.182 -1.5854 -1.6114 -0.1590
 5863TIP3    H239005   2.543   2.212  15.059 -2.1482  1.2450  1.5483
 5864TIP3   OH239006   4.614   4.575  13.143  0.0247 -0.6956 -0.3873
 5864TIP3    H139007   4.644   4.489  13.112 -1.3877 -2.4589  2.6594
 5864TIP3    H239008   4.654   4.584  13.230 -0.8464  1.1450 -0.1404
 5865TIP3   OH239009   0.537   3.433  13.791 -0.1374 -0.0177  0.8102
 5865TIP3    H139010   0.550   3.357  13.848 -0.1583  0.0425  0.8926
 5865TIP3    H239011   0.596   3.500  13.825  1.9262 -0.8608 -0.8371
 5866TIP3   OH239012   1.071   5.503  11.317 -0.1092 -0.1583 -0.0367
 5866TIP3    H139013   1.045   5.538  11.402  0.6007 -0.3957  0.2848
 5866TIP3    H239014   1.107   5.416  11.337  1.7961  0.5206 -0.3319
 5867TIP3   OH239015   6.783   1.429  16.403 -0.9409 -0.3728  0.2944
 5867TIP3    H139016   6.838   1.479  16.343  1.1300 -0.3479  2.1042
 5867TIP3    H239017   6.783   1.481  16.484 -1.5486 -1.6440  1.1326
 5868TIP3   OH239018   2.971   5.238   1.418  0.9709 -0.4775  0.4242
 5868TIP3    H139019   2.893   5.294   1.422  0.5865 -0.8263 -1.3502
 5868TIP3    H239020   3.043   5.297   1.441  0.4502  0.4616 -0.2597
 5869TIP3   OH239021   6.622   4.772  14.252  0.1419  0.2021 -0.2504
 5869TIP3    H139022   6.563   4.793  14.179 -2.0020 -0.2095  1.2714
 5869TIP3    H239023   6.573   4.797  14.330  2.3483  0.5781  1.0872
 5870TIP3   OH239024   0.325   4.692   1.247  0.0729  0.6205  0.2872
 5870TIP3    H139025   0.260   4.689   1.177  0.7339  0.3482 -0.3226
 5870TIP3    H239026   0.300   4.620   1.306 -0.1582  0.4946  0.0376
 5871TIP3   OH239027   3.089   1.176   0.109 -0.3455 -0.6140  0.2014
 5871TIP3    H139028   3.175   1.210   0.132 -1.1486  1.3248  0.5120
 5871TIP3    H239029   3.062   1.125   0.185 -0.4549  0.7922  1.1466
 5872TIP3   OH239030   4.195   5.365   4.970 -0.0145  0.1584  0.1475
 5872TIP3    H139031   4.204   5.301   4.900 -0.2235 -0.1194  0.3712
 5872TIP3    H239032   4.106   5.352   5.003 -0.5043  1.4040 -0.6156
 5873TIP3   OH239033   5.584   5.338   3.047 -0.3190 -0.2793 -0.4531
 5873TIP3    H139034   5.540   5.299   2.971 -0.6814  0.2455 -0.5159
 5873TIP3    H239035   5.644   5.402   3.010  1.2834 -1.7006 -0.4325
 5874TIP3   OH239036   3.981   1.929  13.134 -0.0782 -0.3139 -0.7840
 5874TIP3    H139037   4.047   1.895  13.074 -0.0849  1.3286 -1.8009
 5874TIP3    H239038   3.961   1.856  13.192  2.1397 -1.0732 -0.8585
 5875TIP3   OH239039   2.630   3.939   2.143 -0.3719  0.0003  0.2960
 5875TIP3    H139040   2.687   3.993   2.199 -1.3230  0.3107  0.9869
 5875TIP3    H239041   2.648   3.970   2.054 -0.0394  0.6432  0.5756
 5876TIP3   OH239042   3.257   6.299   2.833  0.2269  0.1822 -0.6006
 5876TIP3    H139043   3.240   6.322   2.742  0.2513 -0.3881 -0.7540
 5876TIP3    H239044   3.188   6.344   2.883 -0.3092 -0.1988 -0.9875
 5877TIP3   OH239045   2.905   1.566   4.011  0.6330  1.0667 -0.7233
 5877TIP3    H139046   2.958   1.487   4.010  1.8730  1.8160  1.1397
 5877TIP3    H239047   2.969   1.638   4.012 -0.3944  2.0181  0.6903
 5878TIP3   OH239048   3.873   1.684  13.191  0.1745  0.4799  0.1584
 5878TIP3    H139049   3.888   1.604  13.141 -1.4010  0.5745 -0.5131
 5878TIP3    H239050   3.877   1.656  13.283 -0.5057 -0.3989 -0.0660
 5879TIP3   OH239051   2.593   5.306   3.640  0.1267 -0.4069  0.1922
 5879TIP3    H139052   2.525   5.356   3.684 -0.2301  1.4011 -2.2106
 5879TIP3    H239053   2.616   5.237   3.702 -4.1194 -1.3874  1.0175
 5880TIP3   OH239054   3.806   3.298   4.868 -0.4587 -0.0933 -0.4164
 5880TIP3    H139055   3.865   3.349   4.923 -1.1081  2.2099 -1.7123
 5880TIP3    H239056   3.726   3.351   4.864 -1.3742 -1.4946 -1.3973
 5881TIP3   OH239057   2.723   2.926  12.846  0.0762 -0.2638  0.1776
 5881TIP3    H139058   2.718   2.844  12.796 -0.5814  0.6955 -1.4325
 5881TIP3    H239059   2.662   2.985  12.800  1.4831  1.5205  0.4954
 5882TIP3   OH239060   5.086   6.440   1.426 -0.2023 -0.2442 -0.2402
 5882TIP3    H139061   5.135   6.394   1.359 -1.2607  2.5547 -3.1810
 5882TIP3    H239062   5.150   6.499   1.466 -0.0781 -0.2386 -0.4472
 5883TIP3   OH239063   6.649   0.893   1.289  0.0595  0.6133  0.3407
 5883TIP3    H139064   6.722   0.836   1.266 -0.1504  0.4819 -0.0295
 5883TIP3    H239065   6.659   0.911   1.382 -0.1408 -0.4279  0.5744
 5884TIP3   OH239066   6.166   5.840  16.857 -0.0310  0.0354  0.8100
 5884TIP3    H139067   6.197   5.790  16.781  0.3152 -1.6979  2.0408
 5884TIP3    H239068   6.134   5.922  16.819 -3.6771 -2.2790 -1.7526
 5885TIP3   OH239069   1.627   0.406  11.736  0.1814 -0.5804  0.2337
 5885TIP3    H139070   1.609   0.411  11.830 -3.1632 -1.4971 -0.2254
 5885TIP3    H239071   1.665   0.491  11.715 -0.6527  0.3400  2.1563
 5886TIP3   OH239072   5.672   4.649   5.802  0.4534  0.6484 -0.0378
 5886TIP3    H139073   5.661   4.556   5.822  1.1404 -0.1370 -2.7980
 5886TIP3    H239074   5.722   4.650   5.720  2.1242  3.5274  0.8939
 5887TIP3   OH239075   3.526   5.921   3.148 -0.1773 -0.1140 -0.5395
 5887TIP3    H139076   3.480   5.969   3.078 -2.1178  1.9435  1.9269
 5887TIP3    H239077   3.466   5.850   3.171  0.0482 -0.2488 -0.3737
 5888TIP3   OH239078   0.889   6.696   5.621 -0.5412  0.2294  0.3567
 5888TIP3    H139079   0.906   6.604   5.600 -2.0410  0.0091  0.0076
 5888TIP3    H239080   0.832   6.693   5.698 -0.1279  0.8975  0.6999
 5889TIP3   OH239081   1.953   3.938   4.664 -0.2976  0.3419  0.4304
 5889TIP3    H139082   1.933   4.027   4.693 -0.4465  0.1041  1.0672
 5889TIP3    H239083   1.868   3.894   4.664 -0.0672 -0.1140  1.2183
 5890TIP3   OH239084   5.320   6.542   2.004 -0.1734 -0.3689 -0.5024
 5890TIP3    H139085   5.246   6.507   1.955 -1.3883  0.8834  0.3298
 5890TIP3    H239086   5.281   6.607   2.063  1.6998  1.0824 -0.7336
 5891TIP3   OH239087   0.660   0.733   5.849 -0.4457 -0.0817  0.1789
 5891TIP3    H139088   0.643   0.753   5.941 -3.7154  1.1441 -0.5629
 5891TIP3    H239089   0.575   0.704   5.815  1.0766 -2.3447 -2.0772
 5892TIP3   OH239090   1.237   3.934   4.994  0.1256 -0.5339  0.1617
 5892TIP3    H139091   1.171   3.956   5.060 -0.5014 -1.3468 -0.1789
 5892TIP3    H239092   1.187   3.897   4.921  0.9939 -1.6748  0.1156
 5893TIP3   OH239093   4.659   0.797  13.882 -0.2960  0.2394 -0.3312
 5893TIP3    H139094   4.623   0.847  13.956  1.7519 -0.2121  1.0710
 5893TIP3    H239095   4.648   0.855  13.806 -0.0665  1.8605  0.8086
 5894TIP3   OH239096   2.786   4.963   1.235  0.6934 -0.0355 -0.3522
 5894TIP3    H139097   2.867   4.979   1.283 -0.7269 -0.0038  2.2004
 5894TIP3    H239098   2.773   5.042   1.182  0.4313  1.7298  2.1693
 5895TIP3   OH239099   6.018   6.731   1.972  0.0953  0.0044  0.3198
 5895TIP3    H139100   5.949   6.686   1.924  0.2414 -0.7298  0.7891
 5895TIP3    H239101   6.098   6.686   1.947  0.3268  0.4243  0.2941
 5896TIP3   OH239102   3.985   5.574   3.965 -0.8082  0.4600 -0.2114
 5896TIP3    H139103   4.042   5.645   3.936  2.4935 -1.3479  1.3113
 5896TIP3    H239104   3.943   5.608   4.044  0.0450  1.0502 -0.0016
 5897TIP3   OH239105   2.743   0.384  16.881  0.8718 -0.0821 -0.3794
 5897TIP3    H139106   2.675   0.390  16.814 -0.2361  1.0161  0.7889
 5897TIP3    H239107   2.822   0.360  16.833  0.1382  0.7811 -2.1081
 5898TIP3   OH239108   0.299   6.438   0.582  0.9164  0.2920 -0.3377
 5898TIP3    H139109   0.335   6.493   0.652  0.2692  1.3237 -0.7874
 5898TIP3    H239110   0.376   6.401   0.540  1.3204 -0.3806  0.9287
 5899TIP3   OH239111   5.750   1.828   3.863  0.4991 -0.3827  0.0915
 5899TIP3    H139112   5.760   1.738   3.833 -0.9900 -0.5643  0.1001
 5899TIP3    H239113   5.662   1.853   3.835  0.6690  0.8641  0.6301
 5900TIP3   OH239114   4.503   5.255   3.629  0.3565  0.6441  0.4529
 5900TIP3    H139115   4.581   5.202   3.645  1.0397  1.3272 -0.4637
 5900TIP3    H239116   4.449   5.200   3.571 -0.2492 -0.1569  1.7217
 5901TIP3   OH239117   2.724   1.859   2.205  0.3446 -0.0632 -0.3058
 5901TIP3    H139118   2.741   1.831   2.115 -1.2550  0.2726 -0.7313
 5901TIP3    H239119   2.709   1.777   2.253  0.9541 -0.2264 -0.3757
 5902TIP3   OH239120   1.978   3.605  13.453 -0.2763 -0.0238  0.1572
 5902TIP3    H139121   2.027   3.657  13.517  1.1164  0.3323 -1.1334
 5902TIP3    H239122   1.999   3.645  13.369 -1.6015 -0.8346 -0.5910
 5903TIP3   OH239123   2.690   4.052  12.814 -0.5959  0.4332 -0.0680
 5903TIP3    H139124   2.685   4.147  12.828 -1.0924  0.2797  0.8903
 5903TIP3    H239125   2.676   4.014  12.901 -0.8538 -0.5329 -0.5165
 5904TIP3   OH239126   4.209   4.370   0.887  0.3041  0.2980  0.3236
 5904TIP3    H139127   4.177   4.309   0.821 -0.7383  1.3023 -0.1351
 5904TIP3    H239128   4.286   4.410   0.847 -0.3644  0.9548 -0.3406
 5905TIP3   OH239129   5.161   5.275   6.073  0.0493 -0.4461 -0.3013
 5905TIP3    H139130   5.224   5.332   6.029 -0.9527  0.8485 -0.1186
 5905TIP3    H239131   5.194   5.267   6.162  0.1247 -0.0339 -0.2918
 5906TIP3   OH239132   1.844   0.811  14.398 -0.1369 -0.5847 -0.3697
 5906TIP3    H139133   1.771   0.866  14.424  0.0399 -0.4233 -0.2095
 5906TIP3    H239134   1.833   0.730  14.448 -0.4215 -0.7139 -0.6396
 5907TIP3   OH239135   4.454   6.735  10.885 -0.1673 -0.4741 -0.6305
 5907TIP3    H139136   4.415   6.822  10.893  1.3348  0.0650  1.4337
 5907TIP3    H239137   4.458   6.719  10.790 -2.4375  0.7392 -1.0053
 5908TIP3   OH239138   4.892   0.934   2.047 -0.3335 -0.1752 -0.1910
 5908TIP3    H139139   4.851   0.947   2.133 -0.6514  0.3139 -0.4088
 5908TIP3    H239140   4.834   0.874   2.001 -0.2452 -0.3159 -0.1186
 5909TIP3   OH239141   2.697   3.073  11.882 -0.4146  0.0467  0.0865
 5909TIP3    H139142   2.766   3.109  11.826 -0.4844 -0.1388 -0.1231
 5909TIP3    H239143   2.634   3.144  11.890 -1.3445 -0.5108 -1.6485
 5910TIP3   OH239144   6.253   1.673  12.232 -0.0296  0.0424 -0.3559
 5910TIP3    H139145   6.281   1.694  12.321 -1.1362  0.2023 -0.0367
 5910TIP3    H239146   6.249   1.758  12.188  0.7754 -0.0617 -0.6480
 5911TIP3   OH239147   5.182   2.613   0.067  0.6933  0.5488 -0.3861
 5911TIP3    H139148   5.268   2.573   0.080 -0.1844 -1.2056  0.2276
 5911TIP3    H239149   5.123   2.563   0.123 -0.8231  1.4386 -1.1209
 5912TIP3   OH239150   3.622   3.426   4.149 -0.3962  0.0498  0.6230
 5912TIP3    H139151   3.634   3.521   4.140 -2.4067  0.1765 -1.6969
 5912TIP3    H239152   3.558   3.417   4.220  0.7037  0.2795  1.6988
 5913TIP3   OH239153   6.213   1.820   4.443 -0.3430  0.1982  0.3292
 5913TIP3    H139154   6.240   1.797   4.532 -0.3589  0.9580  0.5362
 5913TIP3    H239155   6.212   1.916   4.442  0.1430  0.2061 -0.6339
 5914TIP3   OH239156   3.112   0.966  17.045 -0.1263 -0.2733 -0.5387
 5914TIP3    H139157   3.062   0.909  17.104  1.5040  0.0321  1.2331
 5914TIP3    H239158   3.097   1.055  17.079  0.3289 -0.0196 -0.9838
 5915TIP3   OH239159   1.195   6.219   0.784  0.3092 -0.2166 -0.0114
 5915TIP3    H139160   1.261   6.230   0.853  0.3609  0.6123 -0.1813
 5915TIP3    H239161   1.243   6.234   0.703 -0.1223  0.6386 -0.1235
 5916TIP3   OH239162   0.927   1.736   2.893  0.0646 -0.0078  0.0624
 5916TIP3    H139163   0.908   1.828   2.876 -1.1605  0.0741  1.5794
 5916TIP3    H239164   0.855   1.689   2.850 -0.1565 -0.1430  0.5766
 5917TIP3   OH239165   3.901   5.085  11.319  0.3824  0.4878 -0.1705
 5917TIP3    H139166   3.863   5.007  11.359  1.5545 -0.4917 -0.9275
 5917TIP3    H239167   3.833   5.152  11.328 -1.3973 -1.1139 -1.2218
 5918TIP3   OH239168   2.813   3.727  10.570  0.3692 -0.4918  0.5087
 5918TIP3    H139169   2.724   3.694  10.558  0.6140 -0.5194 -1.6273
 5918TIP3    H239170   2.870   3.654  10.544  0.9420  0.5976 -1.5209
 5919TIP3   OH239171   0.097   6.350  12.948  0.8628  0.0617 -0.3010
 5919TIP3    H139172   0.091   6.442  12.921 -1.0016 -0.0377 -0.2893
 5919TIP3    H239173   0.051   6.346  13.031 -1.9173 -1.4031 -1.7556
 5920TIP3   OH239174   1.941   4.123  16.192  0.7087 -0.0466  0.0228
 5920TIP3    H139175   1.958   4.093  16.103  1.5653 -1.2537  0.5608
 5920TIP3    H239176   1.901   4.209  16.182 -1.6084 -1.2122 -1.5895
 5921TIP3   OH239177   1.391   3.333   3.047 -0.6306 -0.5100 -0.1515
 5921TIP3    H139178   1.348   3.279   3.113  0.8641 -0.6805  0.7322
 5921TIP3    H239179   1.345   3.417   3.051 -0.6589 -0.5729  0.9972
 5922TIP3   OH239180   0.493   4.352   2.724 -0.2523 -0.2295 -0.1140
 5922TIP3    H139181   0.541   4.318   2.649 -1.6000 -0.2700 -1.0048
 5922TIP3    H239182   0.549   4.420   2.760 -0.1233  0.7363 -2.0015
 5923TIP3   OH239183   0.045   0.901  10.267 -0.0403 -0.7154 -0.3021
 5923TIP3    H139184   0.011   0.817  10.236 -3.2831  0.9370 -1.7218
 5923TIP3    H239185  -0.024   0.935  10.323  0.3382  1.7567 -1.2271
 5924TIP3   OH239186   2.831   1.043  15.553 -0.0176 -0.0434 -0.2213
 5924TIP3    H139187   2.830   1.051  15.649  0.2381 -0.4094 -0.1861
 5924TIP3    H239188   2.749   1.083  15.525  0.0770  0.4023  0.1232
 5925TIP3   OH239189   1.125   2.989  12.113 -0.0253  0.2538  0.3768
 5925TIP3    H139190   1.030   2.994  12.127 -0.0040 -0.3164  0.7916
 5925TIP3    H239191   1.161   3.051  12.176 -0.0351 -0.9146  1.5759
 5926TIP3   OH239192   1.252   2.658  14.736  1.0219  0.2202 -0.4331
 5926TIP3    H139193   1.347   2.649  14.728  1.0646  0.5885 -0.3249
 5926TIP3    H239194   1.226   2.709  14.659  0.7057 -1.2140 -1.3333
 5927TIP3   OH239195   6.214   5.860  13.763  0.0233  0.3639 -0.2565
 5927TIP3    H139196   6.140   5.812  13.800  0.5380  1.4992  2.5498
 5927TIP3    H239197   6.287   5.798  13.766  0.3654  0.7896  2.0648
 5928TIP3   OH239198   3.327   3.283  12.365 -0.5093 -0.2334  1.1167
 5928TIP3    H139199   3.239   3.248  12.356 -1.0921  0.9268  2.1077
 5928TIP3    H239200   3.316   3.378  12.371  0.9588  0.1098 -0.5580
 5929TIP3   OH239201   1.105   1.977  15.775  0.1215  1.0474  0.3851
 5929TIP3    H139202   1.163   1.927  15.718  1.1937  1.0243  1.4587
 5929TIP3    H239203   1.064   1.911  15.832  1.2860  1.3241  1.5806
 5930TIP3   OH239204   5.040   1.373  14.736  0.3853  0.0374  0.1300
 5930TIP3    H139205   5.079   1.459  14.720 -0.2284  0.6244  1.6225
 5930TIP3    H239206   5.114   1.313  14.736  0.9994  0.7678  0.4087
 5931TIP3   OH239207   3.872   0.855   1.994  0.2185 -0.0581 -0.2486
 5931TIP3    H139208   3.923   0.788   1.949  1.8598  1.9169 -1.4812
 5931TIP3    H239209   3.889   0.841   2.087  1.3104 -0.7608 -0.5431
 5932TIP3   OH239210   6.513   3.247  16.339  0.4886 -0.1505 -0.1204
 5932TIP3    H139211   6.593   3.295  16.363 -0.2414  0.5556  0.9732
 5932TIP3    H239212   6.520   3.236  16.244  2.1385 -0.5786  0.0136
 5933TIP3   OH239213   3.776   6.046   0.311  0.3832  0.1073  0.1550
 5933TIP3    H139214   3.758   5.996   0.390 -0.0974 -0.9567 -0.6041
 5933TIP3    H239215   3.831   5.988   0.258 -1.9313 -0.5691 -1.6697
 5934TIP3   OH239216   6.799   6.277  16.592  0.0346 -0.2572 -0.0448
 5934TIP3    H139217   6.791   6.225  16.512  1.8189 -0.8557  0.1262
 5934TIP3    H239218   6.710   6.309  16.609 -0.4708 -0.4974 -1.9916
 5935TIP3   OH239219   5.104   6.782   3.353  0.0685  0.0641 -0.7156
 5935TIP3    H139220   5.176   6.823   3.306 -0.0035  1.1428  0.0777
 5935TIP3    H239221   5.072   6.850   3.413 -0.4019 -0.9831  0.2652
 5936TIP3   OH239222   0.196   1.088  10.850 -0.0196  0.0053 -0.1182
 5936TIP3    H139223   0.291   1.080  10.839 -0.0283  1.0155 -1.0824
 5936TIP3    H239224   0.180   1.056  10.939  0.7851 -3.3530 -1.0074
 5937TIP3   OH239225   1.552   2.041  15.078 -0.1789 -0.2918  0.2277
 5937TIP3    H139226   1.639   2.007  15.099  0.2589  1.3695  1.3722
 5937TIP3    H239227   1.531   2.099  15.151 -1.0013  1.5392 -1.3690
 5938TIP3   OH239228   5.035   0.278  14.475 -0.0183 -1.0411 -0.7051
 5938TIP3    H139229   5.108   0.222  14.450 -1.3308 -2.5652 -1.2754
 5938TIP3    H239230   4.998   0.236  14.552  0.9838  0.9255  0.9356
 5939TIP3   OH239231   6.661   6.748   4.690  0.1231 -0.0766  0.4476
 5939TIP3    H139232   6.679   6.793   4.608  2.3865  0.8158  1.3598
 5939TIP3    H239233   6.742   6.755   4.740 -1.5515  0.5607  3.2961
 5940TIP3   OH239234   1.048   6.152  15.482 -0.3772 -0.4621 -0.3850
 5940TIP3    H139235   1.052   6.183  15.391  0.1277  0.4734 -0.0596
 5940TIP3    H239236   0.989   6.214  15.525 -1.2851 -1.3914 -0.2448
 5941TIP3   OH239237   2.299   0.131  13.047  0.5766 -0.1600  0.0639
 5941TIP3    H139238   2.308   0.067  12.977  2.6047  0.3931 -0.2295
 5941TIP3    H239239   2.255   0.083  13.117  0.7685 -1.4517 -0.6656
 5942TIP3   OH239240   4.041   1.793  14.502  0.1030 -0.6051 -0.0225
 5942TIP3    H139241   4.069   1.703  14.488  2.0061 -0.0413 -0.0581
 5942TIP3    H239242   3.982   1.789  14.577 -1.4259 -2.1283 -1.2381
 5943TIP3   OH239243   0.870   2.522  14.930  0.6062 -0.4211  0.4794
 5943TIP3    H139244   0.790   2.568  14.904  0.5770 -1.4376 -1.4153
 5943TIP3    H239245   0.848   2.482  15.014  0.3139  2.1416  1.7101
 5944TIP3   OH239246   3.972   1.719   6.563  0.3707 -0.2762 -0.0334
 5944TIP3    H139247   3.978   1.631   6.599  0.7500  0.2986  1.3555
 5944TIP3    H239248   3.965   1.706   6.468 -3.4834 -1.9659  0.3098
 5945TIP3   OH239249   4.348   1.520  13.004  0.0283  0.2223 -0.0131
 5945TIP3    H139250   4.410   1.450  13.024  0.3866  0.3635 -0.6067
 5945TIP3    H239251   4.400   1.600  13.008 -0.5914  0.5906  1.6936
 5946TIP3   OH239252   2.708   0.141  12.466  0.0582 -0.0704 -0.5133
 5946TIP3    H139253   2.638   0.078  12.480 -1.0482  1.0788 -0.6454
 5946TIP3    H239254   2.666   0.226  12.476  1.3091  0.6695 -1.2339
 5947TIP3   OH239255   6.309   1.241  16.869  0.0085 -0.0154 -0.1774
 5947TIP3    H139256   6.221   1.275  16.880  0.6734  1.7803 -0.1314
 5947TIP3    H239257   6.323   1.240  16.774 -0.5089 -1.5869 -0.2665
 5948TIP3   OH239258   2.628   2.615  12.375  0.2320  0.3347  0.0959
 5948TIP3    H139259   2.680   2.598  12.297  0.8596  0.1171  0.5525
 5948TIP3    H239260   2.537   2.606  12.346  0.4580  0.3003 -0.6141
 5949TIP3   OH239261   6.090   6.562   1.689 -0.7308 -0.0040 -0.0731
 5949TIP3    H139262   6.140   6.536   1.611  0.7766  1.2916  0.4245
 5949TIP3    H239263   5.999   6.565   1.659 -0.4801 -1.7860 -1.1685
 5950TIP3   OH239264   6.252   2.068   5.440 -0.1097 -0.2200  0.0938
 5950TIP3    H139265   6.346   2.087   5.437  0.2840 -1.6575  1.7504
 5950TIP3    H239266   6.211   2.153   5.456  0.9806  0.2949  0.2634
 5951TIP3   OH239267   0.211   0.880  17.011  0.4165 -0.4385  0.2952
 5951TIP3    H139268   0.287   0.901  17.066  0.7918 -0.8662 -0.0479
 5951TIP3    H239269   0.148   0.841  17.071  1.0900 -1.5302  0.3146
 5952TIP3   OH239270   2.932   5.627   3.526  0.2848  0.1080  0.2090
 5952TIP3    H139271   2.858   5.662   3.477  1.1208 -0.3999 -1.4748
 5952TIP3    H239272   2.892   5.580   3.599 -1.0047  0.6834 -0.1047
 5953TIP3   OH239273   4.489   4.980   0.413  0.4581 -0.1250 -0.3311
 5953TIP3    H139274   4.461   4.902   0.365 -0.8429 -0.8115  1.4273
 5953TIP3    H239275   4.564   4.952   0.465  0.1993 -0.1357  0.0461
 5954TIP3   OH239276   6.656   5.826  16.272 -0.0697 -0.3005  0.2162
 5954TIP3    H139277   6.564   5.801  16.263  0.4187 -1.8112 -1.0603
 5954TIP3    H239278   6.673   5.882  16.196  0.5586 -1.7675 -0.7806
 5955TIP3   OH239279   6.613   4.673   2.797  0.5310 -0.2290 -0.7814
 5955TIP3    H139280   6.665   4.742   2.837  1.6337 -0.9962 -0.8301
 5955TIP3    H239281   6.672   4.597   2.795 -1.5945 -2.2043  2.2536
 5956TIP3   OH239282   0.622   1.501  11.198 -0.0775  0.0877  0.0078
 5956TIP3    H139283   0.603   1.451  11.119 -3.1284 -1.2616  1.4157
 5956TIP3    H239284   0.686   1.567  11.170  0.6649 -1.7273 -2.9870
 5957TIP3   OH239285   3.492   2.793  13.191 -0.2282  1.2011  0.1840
 5957TIP3    H139286   3.558   2.823  13.253  0.9720  1.1658 -1.0268
 5957TIP3    H239287   3.527   2.711  13.157 -1.4600  0.5773  0.3440
 5958TIP3   OH239288   6.233   5.444  12.076  0.3427 -0.3156 -0.3858
 5958TIP3    H139289   6.260   5.364  12.029 -1.1359  0.2837 -2.3992
 5958TIP3    H239290   6.285   5.513  12.035  0.1377  0.0227 -0.0687
 5959TIP3   OH239291   5.463   0.563   4.529  0.2833  0.3484  0.5848
 5959TIP3    H139292   5.536   0.624   4.520  0.5670 -0.0961 -0.3209
 5959TIP3    H239293   5.444   0.535   4.439 -0.3397 -0.3034  0.9059
 5960TIP3   OH239294   0.570   5.204  13.201  0.2836 -0.1725  0.1220
 5960TIP3    H139295   0.511   5.240  13.134  0.9333  0.2274 -0.2498
 5960TIP3    H239296   0.588   5.114  13.171 -0.4083 -0.4186  0.4264
 5961TIP3   OH239297   2.773   4.840  11.193  0.5565 -0.1254  0.0820
 5961TIP3    H139298   2.798   4.842  11.285  0.4489 -1.2965  0.1558
 5961TIP3    H239299   2.815   4.761  11.158  0.0465 -0.0709 -0.6969
 5962TIP3   OH239300   1.548   0.962  15.937  0.2585 -0.1896 -0.1818
 5962TIP3    H139301   1.524   0.899  15.868  0.9898 -1.4356  0.6736
 5962TIP3    H239302   1.464   0.987  15.976  0.0047 -1.0982 -0.1319
 5963TIP3   OH239303   4.758   2.908  12.714 -0.3867  0.0564 -0.5296
 5963TIP3    H139304   4.755   2.914  12.810  0.7898  2.4619 -0.5578
 5963TIP3    H239305   4.735   2.817  12.695  0.5117 -0.8278  2.0919
 5964TIP3   OH239306   0.581   6.404  12.691 -0.1112 -0.1822  0.2735
 5964TIP3    H139307   0.648   6.434  12.629  0.4959 -0.3214  0.8486
 5964TIP3    H239308   0.631   6.362  12.761 -0.8316 -0.6182  0.5278
 5965TIP3   OH239309   5.025   6.626  13.478 -0.1896  0.3733 -0.7971
 5965TIP3    H139310   5.040   6.563  13.549 -1.2733 -0.0783 -0.9525
 5965TIP3    H239311   4.991   6.574  13.406 -0.7210  1.0732 -1.0700
 5966TIP3   OH239312   1.401   0.641   2.459 -0.3865 -0.1884 -0.2071
 5966TIP3    H139313   1.487   0.601   2.470 -0.8657 -1.2578 -0.2894
 5966TIP3    H239314   1.419   0.735   2.454  0.7537 -0.3866 -0.0325
 5967TIP3   OH239315   3.212   5.343  11.089  0.6139  0.4276  0.0169
 5967TIP3    H139316   3.254   5.308  11.011  1.8426  0.6102  0.5671
 5967TIP3    H239317   3.218   5.438  11.078 -0.1991  0.4598 -0.1745
 5968TIP3   OH239318   6.766   0.722  13.880  0.2135  0.2085  0.2899
 5968TIP3    H139319   6.705   0.771  13.936  0.9331  0.0828  1.2069
 5968TIP3    H239320   6.847   0.773  13.884  0.5325 -0.2820  0.0699
 5969TIP3   OH239321   0.182   2.507   3.414  0.0038 -0.7960 -0.4561
 5969TIP3    H139322   0.119   2.443   3.447  1.5712 -1.2717  1.8214
 5969TIP3    H239323   0.184   2.576   3.480 -0.1695  0.6431 -1.8935
 5970TIP3   OH239324   1.363   5.952  15.244  0.0603  0.3798  0.1803
 5970TIP3    H139325   1.407   5.870  15.224 -2.0001 -0.3113 -2.0868
 5970TIP3    H239326   1.326   5.940  15.332  2.3199  0.1351  1.1472
 5971TIP3   OH239327   2.304   0.772   4.057  0.0346 -0.3247  0.3122
 5971TIP3    H139328   2.220   0.795   4.097  0.4939 -0.4182  1.3455
 5971TIP3    H239329   2.288   0.779   3.963 -1.3563 -1.0788  0.4578
 5972TIP3   OH239330   0.289   2.902   0.742  0.8064  0.7324  0.1884
 5972TIP3    H139331   0.304   2.838   0.672  1.4633  0.6316  0.4126
 5972TIP3    H239332   0.376   2.919   0.778  0.3373 -0.3703  1.9930
 5973TIP3   OH239333   5.294   4.987  12.669  0.3539 -0.4531 -0.0531
 5973TIP3    H139334   5.281   5.082  12.680  0.6223 -0.5035  0.7991
 5973TIP3    H239335   5.386   4.979  12.643  0.6909 -0.5416  1.0959
 5974TIP3   OH239336   1.092   0.414   1.174  0.5328  0.1554  0.1427
 5974TIP3    H139337   1.064   0.480   1.111 -0.5830 -1.0448 -0.6621
 5974TIP3    H239338   1.128   0.343   1.121 -0.1932 -0.7777  0.8531
 5975TIP3   OH239339   6.261   4.297   5.617 -0.9142  0.0346 -0.0090
 5975TIP3    H139340   6.336   4.312   5.559 -0.5860  2.0010  0.8361
 5975TIP3    H239341   6.257   4.376   5.671 -1.1213 -1.7588  2.7524
 5976TIP3   OH239342   2.527   3.582   4.874  1.2333 -0.1615  0.7889
 5976TIP3    H139343   2.519   3.673   4.903  0.0520  0.3393 -0.9587
 5976TIP3    H239344   2.445   3.540   4.903  1.1254 -0.2785  0.3236
 5977TIP3   OH239345   3.250   1.444  11.758 -0.8960  0.3235 -0.5522
 5977TIP3    H139346   3.321   1.508  11.760 -0.2980 -0.3389  0.5791
 5977TIP3    H239347   3.221   1.437  11.849 -3.1209  1.2973 -1.1118
 5978TIP3   OH239348   3.314   2.420   0.293 -0.2276 -0.2566 -0.1532
 5978TIP3    H139349   3.344   2.411   0.383 -1.1141 -0.7055  0.1076
 5978TIP3    H239350   3.395   2.424   0.241  0.2899 -0.8437  0.5779
 5979TIP3   OH239351   2.349   1.739  11.501 -0.3136 -0.0607  0.3990
 5979TIP3    H139352   2.253   1.744  11.503 -0.3836 -0.5102 -0.8493
 5979TIP3    H239353   2.375   1.809  11.441  0.1633  0.2243  0.9333
 5980TIP3   OH239354   1.869   3.924  11.867 -0.2256  0.7778  0.1026
 5980TIP3    H139355   1.948   3.977  11.880  0.8706 -0.9663  0.9634
 5980TIP3    H239356   1.831   3.916  11.954  1.2151 -2.1174  0.5778
 5981TIP3   OH239357   6.631   1.528   5.681 -0.2337  0.2103  0.0690
 5981TIP3    H139358   6.544   1.507   5.647  0.7077 -1.9519 -1.1953
 5981TIP3    H239359   6.650   1.615   5.645 -1.6412  0.5019 -0.0469
 5982TIP3   OH239360   2.855   4.730   4.236 -0.2104 -0.0511  0.2346
 5982TIP3    H139361   2.917   4.790   4.193  0.6338 -0.1900  1.2215
 5982TIP3    H239362   2.869   4.647   4.191  0.5366 -0.1535  0.6476
 5983TIP3   OH239363   4.223   4.356  14.880  0.0104  0.5868  0.6525
 5983TIP3    H139364   4.295   4.345  14.818 -1.2262 -0.8909 -0.6062
 5983TIP3    H239365   4.266   4.378  14.963  1.7810  1.4147 -0.4290
 5984TIP3   OH239366   1.044   2.943   1.341  0.1108 -0.1640 -0.1866
 5984TIP3    H139367   1.018   2.906   1.256 -0.5480 -0.7192  0.2498
 5984TIP3    H239368   1.079   2.869   1.389 -0.9746 -0.1921  0.6013
 5985TIP3   OH239369   2.183   6.610  15.705  0.1984  0.0886 -0.0123
 5985TIP3    H139370   2.145   6.533  15.661  0.1433  0.6764 -1.0341
 5985TIP3    H239371   2.209   6.578  15.791 -1.6456 -0.5791  0.3251
 5986TIP3   OH239372   3.020   0.650   4.957 -0.6048  0.5867 -0.1147
 5986TIP3    H139373   3.026   0.570   5.009 -0.9576  0.3249 -0.4724
 5986TIP3    H239374   2.938   0.691   4.987  0.3472  1.6248  1.1973
 5987TIP3   OH239375   0.614   0.277  11.248 -0.3021 -0.7954  0.0672
 5987TIP3    H139376   0.621   0.218  11.174  0.4189 -1.1245  0.3896
 5987TIP3    H239377   0.564   0.229  11.314 -1.5094 -0.2603 -0.4323
 5988TIP3   OH239378   4.271   4.075  11.161  0.3988  0.4133 -0.2978
 5988TIP3    H139379   4.249   4.165  11.139  2.2335  0.8208 -0.6372
 5988TIP3    H239380   4.268   4.072  11.257  0.2911  0.8174 -0.2880
 5989TIP3   OH239381   1.072   2.675   5.937  0.4558  0.1616  0.5163
 5989TIP3    H139382   0.978   2.689   5.949  0.1105  2.1376 -3.0797
 5989TIP3    H239383   1.113   2.740   5.994 -0.2714 -0.8583  2.2880
 5990TIP3   OH239384   3.563   3.405  12.035 -0.3088  0.3414 -0.7038
 5990TIP3    H139385   3.520   3.467  12.094 -0.2073 -0.5503  0.3339
 5990TIP3    H239386   3.495   3.382  11.972 -1.4148 -1.0483  0.9102
 5991TIP3   OH239387   0.930   5.942   0.268  0.2715  0.7078  0.6550
 5991TIP3    H139388   0.894   5.853   0.277  0.1099  0.6721 -0.3150
 5991TIP3    H239389   0.946   5.953   0.175  0.3922  1.6674  0.7759
 5992TIP3   OH239390   3.914   3.020  15.901 -0.0299 -0.4004 -0.0194
 5992TIP3    H139391   3.821   3.027  15.880 -0.1898 -0.9641  0.4756
 5992TIP3    H239392   3.917   2.987  15.990  0.6484  1.4875  0.7150
 5993TIP3   OH239393   1.091   5.329  16.216 -0.1140 -0.3043 -0.2806
 5993TIP3    H139394   1.150   5.277  16.160  0.6007  1.6532 -1.4554
 5993TIP3    H239395   1.059   5.398  16.158 -1.5808  0.1763  1.0488
 5994TIP3   OH239396   3.972   5.656  16.764 -0.0967  0.1000  0.2623
 5994TIP3    H139397   3.954   5.682  16.674  2.9313 -1.4327 -0.9190
 5994TIP3    H239398   3.906   5.589  16.783  0.8440 -1.5903 -1.9187
 5995TIP3   OH239399   6.789   2.106  16.428 -0.0716  0.1371  0.2419
 5995TIP3    H139400   6.762   2.195  16.406  1.4093  0.2177 -1.4911
 5995TIP3    H239401   6.708   2.061  16.450 -1.1191  1.3474 -0.9699
 5996TIP3   OH239402   0.400   3.074   4.650  0.2353 -0.0005 -0.1038
 5996TIP3    H139403   0.404   2.978   4.649 -0.2475 -0.0340 -1.8072
 5996TIP3    H239404   0.306   3.094   4.651  0.3278  0.4498 -0.2151
 5997TIP3   OH239405   6.032   3.370   2.854  0.4812  0.3603  0.3560
 5997TIP3    H139406   5.981   3.449   2.833  0.8741  0.7331  0.7823
 5997TIP3    H239407   6.119   3.403   2.876  0.7525 -0.2279  0.1731
 5998TIP3   OH239408   6.485   2.541   2.998 -0.6643  0.1731 -0.2631
 5998TIP3    H139409   6.393   2.561   3.016 -0.0830  3.2564 -0.1236
 5998TIP3    H239410   6.485   2.451   2.966 -3.4544 -0.6387  1.7060
 5999TIP3   OH239411   0.080   1.282  14.477 -0.3083  0.2880 -0.2272
 5999TIP3    H139412  -0.000   1.334  14.483 -0.7783  0.0317 -2.9106
 5999TIP3    H239413   0.147   1.345  14.449  0.1406  0.2420  0.7050
 6000TIP3   OH239414   6.383   4.437  14.280  0.3977 -0.3586  0.0011
 6000TIP3    H139415   6.409   4.522  14.316  0.6570 -0.4371  0.0015
 6000TIP3    H239416   6.334   4.459  14.201 -2.3450 -0.0566  1.6436
 6001TIP3   OH239417   6.165   5.777  12.279 -0.1557  0.3641  0.0683
 6001TIP3    H139418   6.191   5.777  12.187 -1.3520 -3.3653 -0.4468
 6001TIP3    H239419   6.245   5.795  12.327  1.1166 -0.3154 -1.6839
 6002TIP3   OH239420   4.357   5.254  13.281 -0.1448  0.2980 -0.2912
 6002TIP3    H139421   4.361   5.159  13.279 -1.8071  0.2048 -1.6089
 6002TIP3    H239422   4.302   5.275  13.356 -0.8355  0.1433 -0.7469
 6003TIP3   OH239423   3.037   5.461   4.444 -0.6765 -0.3109 -0.2418
 6003TIP3    H139424   2.944   5.442   4.431 -0.2155 -2.6453 -0.4683
 6003TIP3    H239425   3.075   5.379   4.473  1.4913  0.3587 -0.9541
 6004TIP3   OH239426   5.819   2.205  13.088  0.2173  0.4443 -0.3389
 6004TIP3    H139427   5.795   2.184  12.998  3.5093  1.4832 -1.6030
 6004TIP3    H239428   5.796   2.298  13.098 -0.2681  0.2961 -0.0192
 6005TIP3   OH239429   6.067   1.330  16.908  0.2987  0.6876  0.4508
 6005TIP3    H139430   6.059   1.395  16.978  0.1364  0.1063  0.9832
 6005TIP3    H239431   6.023   1.370  16.833  1.0039  1.5748  0.4833
 6006TIP3   OH239432   3.416   3.291   2.670 -0.7231 -0.0100 -0.0218
 6006TIP3    H139433   3.409   3.260   2.760 -2.0386 -0.6934 -0.3366
 6006TIP3    H239434   3.484   3.237   2.631 -0.3711  0.0766  0.4686
 6007TIP3   OH239435   0.999   0.878   5.277 -0.2229  0.3323 -0.0385
 6007TIP3    H139436   0.924   0.915   5.323 -1.7790 -0.1969 -2.0402
 6007TIP3    H239437   1.033   0.812   5.338 -0.8881  1.0915  1.2107
 6008TIP3   OH239438   0.773   3.416  12.493  0.2010 -0.0678  0.1128
 6008TIP3    H139439   0.770   3.321  12.494  0.8876 -0.1006  0.6422
 6008TIP3    H239440   0.682   3.444  12.489 -0.0144 -0.7468  0.2186
 6009TIP3   OH239441   0.889   0.512  11.574 -0.9533  0.3520  0.1477
 6009TIP3    H139442   0.862   0.551  11.491 -0.7783  0.6860  0.2496
 6009TIP3    H239443   0.828   0.548  11.639 -0.0668  1.3525  0.4316
 6010TIP3   OH239444   5.409   6.071  15.919  0.4450 -0.2924  0.1214
 6010TIP3    H139445   5.419   6.142  15.983 -0.2937  0.0733 -0.1556
 6010TIP3    H239446   5.427   6.112  15.834  0.5649 -0.5659  0.0143
 6011TIP3   OH239447   2.574   5.276  11.050 -0.4142  0.7488  0.0438
 6011TIP3    H139448   2.655   5.304  11.009  1.1447 -0.0128  2.4134
 6011TIP3    H239449   2.600   5.206  11.109 -2.7724  0.6656  1.1010
 6012TIP3   OH239450   6.620   2.862  13.882 -0.3734  0.7804  0.0512
 6012TIP3    H139451   6.694   2.820  13.926 -1.2646 -0.3714  0.5161
 6012TIP3    H239452   6.547   2.852  13.943 -1.2727  0.5066 -1.0347
 6013TIP3   OH239453   6.362   0.118  11.380  0.0980 -0.0072 -0.7774
 6013TIP3    H139454   6.451   0.150  11.369 -0.0113 -0.4960 -3.6495
 6013TIP3    H239455   6.367   0.024  11.360 -0.8844 -0.2991  0.1979
 6014TIP3   OH239456   3.194   0.504  13.694  0.4459  0.2441  0.1208
 6014TIP3    H139457   3.215   0.454  13.773  0.6049  0.1878  0.0429
 6014TIP3    H239458   3.204   0.596  13.720 -0.0702  0.2468  0.3281
 6015TIP3   OH239459   2.344   5.868   1.989  0.2238  0.6874 -0.6380
 6015TIP3    H139460   2.255   5.881   1.958 -0.8977 -1.4292  1.3954
 6015TIP3    H239461   2.354   5.931   2.060 -1.3735 -1.8918  2.0921
 6016TIP3   OH239462   3.925   6.657   5.103  0.2423 -0.6064  0.1264
 6016TIP3    H139463   3.904   6.748   5.122  0.7326 -0.4888  0.1241
 6016TIP3    H239464   3.948   6.619   5.188  2.0089 -0.1945 -0.1290
 6017TIP3   OH239465   3.617   0.237  14.702 -0.2978  0.3441 -0.4658
 6017TIP3    H139466   3.574   0.266  14.782  1.3419 -2.5118  1.6165
 6017TIP3    H239467   3.685   0.302  14.686 -0.5038  0.8299  0.5943
 6018TIP3   OH239468   2.758   0.530  14.390  0.5077 -0.8374 -0.1555
 6018TIP3    H139469   2.844   0.573  14.398  0.8588 -1.5050 -0.2674
 6018TIP3    H239470   2.696   0.603  14.382  1.3058 -0.3059 -2.7234
 6019TIP3   OH239471   0.586   1.163  14.345  0.2883  0.1631  0.0777
 6019TIP3    H139472   0.513   1.182  14.404  0.6641  1.2574  0.2353
 6019TIP3    H239473   0.616   1.250  14.316  1.4282 -0.2666 -0.0903
 6020TIP3   OH239474   3.001   4.554  13.653  0.1146  0.2931  0.2699
 6020TIP3    H139475   3.034   4.583  13.738 -0.1045 -0.4560  0.6155
 6020TIP3    H239476   2.943   4.625  13.624  1.7639  1.5085 -0.2202
 6021TIP3   OH239477   3.024   6.031   6.078 -0.4065  0.7963  0.1752
 6021TIP3    H139478   3.031   5.939   6.103 -4.4109  0.1768 -0.3313
 6021TIP3    H239479   3.084   6.076   6.138  1.7073 -2.0507  0.4339
 6022TIP3   OH239480   1.386   3.015   5.654  0.0761 -0.4454  0.0643
 6022TIP3    H139481   1.432   3.070   5.717 -0.4495 -0.6029  0.5863
 6022TIP3    H239482   1.366   2.934   5.701 -1.7274  0.0469  0.2148
 6023TIP3   OH239483   2.859   5.662  13.540  0.6377 -0.1854  0.0012
 6023TIP3    H139484   2.837   5.588  13.484  2.8103  0.5592 -2.0077
 6023TIP3    H239485   2.875   5.624  13.626 -1.1850 -1.5910 -0.2258
 6024TIP3   OH239486   1.284   1.325  15.797 -0.7098 -0.7728  0.3796
 6024TIP3    H139487   1.338   1.377  15.737 -0.5864 -1.0667  0.2309
 6024TIP3    H239488   1.319   1.345  15.884  0.5994 -2.0093  0.1985
 6025TIP3   OH239489   3.290   5.125  12.975  0.0389  0.5561  0.4840
 6025TIP3    H139490   3.314   5.218  12.966 -2.4008  1.2736  0.5239
 6025TIP3    H239491   3.289   5.091  12.886  1.2165  0.4626  0.4918
 6026TIP3   OH239492   3.521   0.337   5.348  0.8731 -0.1439  0.2021
 6026TIP3    H139493   3.477   0.337   5.263 -0.2314  0.4815  0.7520
 6026TIP3    H239494   3.563   0.423   5.354  0.7544 -0.0975  0.3854
 6027TIP3   OH239495   5.656   2.338   2.031  0.1156 -0.1057  0.3489
 6027TIP3    H139496   5.579   2.310   2.081 -1.6387  3.1685 -0.2501
 6027TIP3    H239497   5.726   2.342   2.097 -0.6780 -1.2293  1.3198
 6028TIP3   OH239498   3.970   5.953  16.242  0.5797  0.4295 -0.3608
 6028TIP3    H139499   3.968   6.027  16.301  0.3001 -0.1955  0.4342
 6028TIP3    H239500   4.000   5.989  16.159  0.7766  1.3568  0.1032
 6029TIP3   OH239501   0.196   0.413  17.020 -0.9018  0.0874  0.4806
 6029TIP3    H139502   0.256   0.352  17.064 -1.2423 -0.4931  0.1575
 6029TIP3    H239503   0.155   0.462  17.092  0.1085  0.6523  0.6963
 6030TIP3   OH239504   1.483   2.435  12.175 -0.4572 -0.3563  0.2911
 6030TIP3    H139505   1.472   2.460  12.267 -1.0757  0.4199  0.0198
 6030TIP3    H239506   1.559   2.487  12.146 -1.6815  1.2141 -0.2450
 6031TIP3   OH239507   6.308   6.249   2.906 -0.3092 -0.1452  0.0158
 6031TIP3    H139508   6.350   6.210   2.983 -1.1477 -0.8944  0.1135
 6031TIP3    H239509   6.230   6.195   2.891  0.7261 -1.1648 -2.4124
 6032TIP3   OH239510   5.993   1.350  15.051 -0.2707 -0.0011  0.5394
 6032TIP3    H139511   5.897   1.354  15.055 -0.2154  0.2187  2.7478
 6032TIP3    H239512   6.019   1.441  15.035 -0.4013  0.2819  1.8364
 6033TIP3   OH239513   1.451   5.868  16.705 -0.1968  0.8222 -0.3765
 6033TIP3    H139514   1.452   5.964  16.699  0.6310  0.8450 -0.0857
 6033TIP3    H239515   1.542   5.843  16.688 -0.0932  0.1787  1.0359
 6034TIP3   OH239516   1.596   1.929  11.817 -0.2411 -0.0056 -0.7117
 6034TIP3    H139517   1.584   1.999  11.881 -0.0825  0.6996 -1.4466
 6034TIP3    H239518   1.564   1.851  11.862  0.9405  0.2531  0.6630
 6035TIP3   OH239519   1.367   6.067  12.039 -0.0322 -0.3372 -0.0271
 6035TIP3    H139520   1.455   6.070  12.077 -0.2385 -0.2724  0.4541
 6035TIP3    H239521   1.355   6.155  12.001  1.1463 -1.1569 -2.5245
 6036TIP3   OH239522   4.998   1.471   4.988 -0.2720 -0.3601 -0.0494
 6036TIP3    H139523   5.032   1.455   4.900  0.1183 -2.7113  0.4872
 6036TIP3    H239524   5.069   1.518   5.033 -0.5820  1.1124 -1.0117
 6037TIP3   OH239525   3.557   2.816  13.597 -0.0107  0.2814 -0.0292
 6037TIP3    H139526   3.587   2.748  13.536 -1.8919 -0.4618 -0.1704
 6037TIP3    H239527   3.462   2.808  13.598 -0.3379  3.1294 -0.2560
 6038TIP3   OH239528   3.054   2.255  16.120  0.2426 -0.9119  0.3551
 6038TIP3    H139529   3.005   2.318  16.173 -0.6760  0.4739 -2.0097
 6038TIP3    H239530   3.011   2.171  16.138 -1.1577 -0.1899  0.5278
 6039TIP3   OH239531   4.549   1.806  10.952  0.2918  0.2553  0.1082
 6039TIP3    H139532   4.528   1.836  11.040  0.7180  0.0702  0.2760
 6039TIP3    H239533   4.484   1.738  10.934  0.6625 -0.2422  0.5839
 6040TIP3   OH239534   3.948   3.530  15.390 -0.8954  0.1457 -1.0158
 6040TIP3    H139535   4.032   3.503  15.428 -1.0987 -1.0277 -1.3636
 6040TIP3    H239536   3.898   3.449  15.382 -2.4535  0.9571  0.0701
 6041TIP3   OH239537   3.371   0.512  10.842 -0.2944  0.0918  0.0160
 6041TIP3    H139538   3.434   0.574  10.805  0.3876 -0.3629  0.4109
 6041TIP3    H239539   3.293   0.566  10.861  0.9802  1.3123  2.2473
 6042TIP3   OH239540   0.482   2.191   4.428  0.0930 -0.1888  0.2486
 6042TIP3    H139541   0.418   2.127   4.396 -0.9288  0.3724  1.0838
 6042TIP3    H239542   0.467   2.268   4.374  0.7073 -0.3632 -0.1686
 6043TIP3   OH239543   0.994   6.808   5.184 -0.1499  0.2198  0.4227
 6043TIP3    H139544   1.030   6.734   5.136  1.8531  0.8337  0.8929
 6043TIP3    H239545   0.905   6.782   5.205  0.5916 -2.1988  0.8544
 6044TIP3   OH239546   4.429   3.939  12.715 -0.4138 -0.0241  0.7357
 6044TIP3    H139547   4.444   3.849  12.743  1.0510  0.3578  1.2230
 6044TIP3    H239548   4.382   3.979  12.788 -0.6165 -0.2509  0.7305
 6045TIP3   OH239549   6.566   5.544   0.046 -0.7530  0.6050  0.3631
 6045TIP3    H139550   6.542   5.452   0.032 -0.8074  0.6807 -0.0641
 6045TIP3    H239551   6.520   5.591  -0.024 -2.3866  1.2198  1.7715
 6046TIP3   OH239552   0.081   3.226   0.806  0.8054 -0.1912  0.3302
 6046TIP3    H139553   0.115   3.266   0.726 -0.3302 -0.2243 -0.2003
 6046TIP3    H239554   0.051   3.139   0.778  1.4401 -0.6536  1.0471
 6047TIP3   OH239555   6.655   0.719  11.216 -0.7660 -0.0155  0.2590
 6047TIP3    H139556   6.573   0.751  11.255 -0.4168 -0.6749  1.5961
 6047TIP3    H239557   6.724   0.768  11.261 -0.3219 -1.2239  0.9452
 6048TIP3   OH239558   6.060   2.924   3.390  0.3430  0.2533 -0.7904
 6048TIP3    H139559   6.119   2.958   3.457 -0.5587  0.6392 -0.1758
 6048TIP3    H239560   6.081   2.973   3.311  1.8642 -0.6599 -0.9803
 6049TIP3   OH239561   6.316   5.512   1.917 -0.3192  0.0838 -0.4451
 6049TIP3    H139562   6.371   5.433   1.918  1.1679  1.0691 -0.1406
 6049TIP3    H239563   6.250   5.496   1.984  0.7861 -0.3679  0.5852
 6050TIP3   OH239564   1.660   0.682  11.683  0.2848  0.0799 -0.2805
 6050TIP3    H139565   1.578   0.635  11.662  0.3729 -0.8145  1.2411
 6050TIP3    H239566   1.639   0.733  11.761  1.1275 -0.0360  0.0326
 6051TIP3   OH239567   1.719   3.532   4.534  0.5896 -0.6753  0.1963
 6051TIP3    H139568   1.787   3.464   4.537 -0.1254 -1.4948 -1.1998
 6051TIP3    H239569   1.674   3.518   4.451 -0.9477  0.1867  0.8300
 6052TIP3   OH239570   2.235   2.184  11.229  0.4984 -0.2292  1.0008
 6052TIP3    H139571   2.196   2.252  11.284  1.4268  1.4557 -0.3044
 6052TIP3    H239572   2.286   2.233  11.164 -2.7500 -1.8977 -3.1945
 6053TIP3   OH239573   4.168   4.249   4.836 -0.0669  0.1221 -0.2332
 6053TIP3    H139574   4.202   4.313   4.773  0.3670  1.1773  1.0390
 6053TIP3    H239575   4.113   4.300   4.895 -0.1800 -0.7930  0.4718
 6054TIP3   OH239576   0.140   0.242  15.650  0.3717  0.5280 -0.0995
 6054TIP3    H139577   0.079   0.297  15.701  1.3085  1.7453 -0.2399
 6054TIP3    H239578   0.085   0.202  15.583 -0.3129  1.5127 -0.1537
 6055TIP3   OH239579   2.131   2.210   5.326  0.4336  0.0767  0.2385
 6055TIP3    H139580   2.046   2.232   5.287  0.0741 -0.4793  0.6967
 6055TIP3    H239581   2.154   2.126   5.288  0.3921 -0.1600  0.7317
 6056TIP3   OH239582   3.336   2.186   1.810  0.1565 -0.6991 -0.3328
 6056TIP3    H139583   3.276   2.118   1.839 -0.6768 -0.6961 -1.9155
 6056TIP3    H239584   3.328   2.186   1.714  2.0629 -0.1175 -0.5382
 6057TIP3   OH239585   2.860   1.576  13.676 -0.4147 -0.0972  0.6275
 6057TIP3    H139586   2.879   1.576  13.770 -1.8633  2.3233  1.0204
 6057TIP3    H239587   2.778   1.529  13.668  0.2654 -1.2878  0.3724
 6058TIP3   OH239588   4.562   0.403  15.366 -0.0825 -0.0147 -0.1935
 6058TIP3    H139589   4.613   0.323  15.376  2.2453  1.4094 -0.0645
 6058TIP3    H239590   4.567   0.446  15.452  0.0700  1.0203 -0.7014
 6059TIP3   OH239591   2.936   0.076   0.807  0.7787 -0.0693  0.6077
 6059TIP3    H139592   2.849   0.036   0.817  0.7623 -0.0464  0.5569
 6059TIP3    H239593   2.966   0.047   0.721  0.0672  1.3526 -0.1471
 6060TIP3   OH239594   1.261   6.686  14.519  0.5183  0.0652  0.0225
 6060TIP3    H139595   1.262   6.730  14.433 -1.9174 -0.5758 -0.3935
 6060TIP3    H239596   1.309   6.605  14.504  2.1499  0.9980 -0.0700
 6061TIP3   OH239597   5.768   4.444  11.160  0.6216 -0.4214  0.4378
 6061TIP3    H139598   5.688   4.468  11.206 -0.4619 -0.0461 -1.5427
 6061TIP3    H239599   5.790   4.357  11.194 -1.0496 -0.8526  0.5128
 6062TIP3   OH239600   4.882   4.636   2.031  0.0105  0.2112  0.3445
 6062TIP3    H139601   4.794   4.672   2.040  0.3438  0.6543  2.4414
 6062TIP3    H239602   4.901   4.599   2.117  1.9507  0.3174  0.0045
 6063TIP3   OH239603   2.975   4.374  16.845 -0.0492  0.0170 -0.5172
 6063TIP3    H139604   2.998   4.403  16.757 -0.5604  0.8890 -0.3759
 6063TIP3    H239605   3.020   4.290  16.856  2.0683  1.0910 -0.6685
 6064TIP3   OH239606   0.646   1.242  13.719  0.0378  0.0062 -0.2263
 6064TIP3    H139607   0.647   1.337  13.705  1.7860  0.2023  0.9287
 6064TIP3    H239608   0.726   1.211  13.678 -0.7931 -1.0907 -1.0968
 6065TIP3   OH239609   5.250   0.164  16.442 -0.2444 -0.2763 -0.0580
 6065TIP3    H139610   5.286   0.220  16.373 -2.3994 -2.1240 -2.8918
 6065TIP3    H239611   5.321   0.104  16.465  1.4092  2.0955  1.5191
 6066TIP3   OH239612   3.163   2.307   5.296 -0.5052  0.3982  0.8374
 6066TIP3    H139613   3.229   2.357   5.247 -0.0164 -0.7343  0.3033
 6066TIP3    H239614   3.080   2.341   5.264 -0.1870  0.4551  0.0371
 6067TIP3   OH239615   3.007   1.223  16.864  0.4475  0.2587 -0.4884
 6067TIP3    H139616   2.984   1.277  16.940  2.6134  0.6762 -0.0659
 6067TIP3    H239617   2.950   1.147  16.871 -0.6548  1.1361  0.5374
 6068TIP3   OH239618   0.389   0.682  15.262 -0.1667  0.7535  0.0911
 6068TIP3    H139619   0.358   0.735  15.335 -2.2145 -1.5714  1.0606
 6068TIP3    H239620   0.308   0.654  15.218  0.7785 -1.8425 -0.1136
 6069TIP3   OH239621   3.899   4.294   5.157 -0.4556 -0.0935  0.4135
 6069TIP3    H139622   3.993   4.305   5.140 -0.7996  0.9281 -0.9209
 6069TIP3    H239623   3.870   4.378   5.191 -1.2254  0.1872 -0.8721
 6070TIP3   OH239624   6.670   6.145   5.280  0.1323  0.2579 -0.1569
 6070TIP3    H139625   6.673   6.091   5.359  1.5335 -0.1034 -0.4207
 6070TIP3    H239626   6.722   6.222   5.303  0.0633  0.4157 -0.5350
 6071TIP3   OH239627   4.145   1.939   6.198  0.0593 -0.3665  0.0695
 6071TIP3    H139628   4.149   1.959   6.291 -0.6432  1.2911 -0.2186
 6071TIP3    H239629   4.181   2.016   6.155  1.6767 -1.6470 -1.0384
 6072TIP3   OH239630   6.761   1.693   1.502  0.4524 -0.1492 -0.8103
 6072TIP3    H139631   6.845   1.655   1.530  0.4880  0.7242  0.3736
 6072TIP3    H239632   6.783   1.782   1.476 -0.4553  1.2237  2.5265
 6073TIP3   OH239633   3.975   4.543   1.369 -0.2163 -0.3823 -0.7408
 6073TIP3    H139634   4.043   4.581   1.313 -0.1547 -1.3057 -1.3025
 6073TIP3    H239635   4.014   4.463   1.403 -0.3482  0.0340  0.4331
 6074TIP3   OH239636   4.609   4.031  14.014  0.1683  0.2602  0.1707
 6074TIP3    H139637   4.561   4.092  13.958 -0.1083 -0.3247 -0.2438
 6074TIP3    H239638   4.542   3.971  14.047  0.6052 -0.5537 -0.3928
 6075TIP3   OH239639   1.018   0.493   1.882  0.4080 -0.6311  0.6344
 6075TIP3    H139640   1.000   0.418   1.827 -0.0175 -1.1616  1.4816
 6075TIP3    H239641   0.941   0.549   1.874  0.4051 -0.6401  0.5993
 6076TIP3   OH239642   3.574   0.065   4.660  0.8320  0.6679 -0.2874
 6076TIP3    H139643   3.555   0.159   4.665 -1.4203  0.2208  0.7690
 6076TIP3    H239644   3.632   0.049   4.734 -1.5385  0.7253  1.7223
 6077TIP3   OH239645   2.231   2.176  16.677 -0.9813 -0.4007 -0.3569
 6077TIP3    H139646   2.165   2.225  16.726 -0.4260  0.1308 -0.1314
 6077TIP3    H239647   2.192   2.089  16.665 -1.4211 -0.3232  0.4078
 6078TIP3   OH239648   5.707   6.766   1.221 -0.0113  0.2175 -0.2633
 6078TIP3    H139649   5.742   6.792   1.135 -0.4592 -0.6113 -0.7069
 6078TIP3    H239650   5.661   6.684   1.204  2.2361 -1.4805  1.2656
 6079TIP3   OH239651   2.713   5.209  16.459  0.1096 -0.5165 -0.0084
 6079TIP3    H139652   2.739   5.288  16.411 -1.2899  0.5614  0.8970
 6079TIP3    H239653   2.782   5.197  16.524 -0.9704  1.6892  1.7003
 6080TIP3   OH239654   4.571   6.097   4.728 -0.5987 -0.1003  0.0016
 6080TIP3    H139655   4.547   6.080   4.637  0.2081 -0.4604 -0.1553
 6080TIP3    H239656   4.524   6.031   4.779  0.8303 -1.4905 -0.4018
 6081TIP3   OH239657   1.725   1.469  12.167 -0.2653  0.2146 -0.3521
 6081TIP3    H139658   1.765   1.430  12.090  1.4822  0.3290  0.4609
 6081TIP3    H239659   1.781   1.443  12.240  0.6152  3.5213  0.3381
 6082TIP3   OH239660   1.418   3.042  13.914 -0.6239 -0.0858 -0.2402
 6082TIP3    H139661   1.326   3.065  13.922 -1.0456 -2.0824  1.6086
 6082TIP3    H239662   1.419   2.947  13.909  1.3160 -0.0775 -1.1146
 6083TIP3   OH239663   2.779   5.239  13.556  0.2034 -0.7995 -0.3182
 6083TIP3    H139664   2.807   5.211  13.643  3.1459  1.3935 -0.4201
 6083TIP3    H239665   2.791   5.161  13.501 -0.1434 -1.7441  0.8990
 6084TIP3   OH239666   2.477   4.672   4.724  0.7049 -0.2175  0.2477
 6084TIP3    H139667   2.430   4.690   4.806  0.4844 -0.5289  0.1935
 6084TIP3    H239668   2.542   4.605   4.747 -0.3321 -1.4075 -0.1225
 6085TIP3   OH239669   3.267   4.539   1.317  0.2687  0.0501  0.3473
 6085TIP3    H139670   3.260   4.582   1.232  2.3230 -0.6692 -0.2356
 6085TIP3    H239671   3.217   4.595   1.376 -2.2128 -0.0325 -1.4828
 6086TIP3   OH239672   1.786   1.174   1.758  0.5354 -0.1443 -0.0676
 6086TIP3    H139673   1.764   1.256   1.714  0.8106 -0.4551 -0.7858
 6086TIP3    H239674   1.706   1.121   1.751 -0.1702  0.5908  1.6941
 6087TIP3   OH239675   4.548   0.369   2.894  0.1519  0.5045  0.1423
 6087TIP3    H139676   4.476   0.309   2.911  0.4724  0.1370  0.2128
 6087TIP3    H239677   4.600   0.325   2.826  0.3857  0.7039  0.1907
 6088TIP3   OH239678   4.904   4.426   1.508 -0.2989  0.1153 -0.2432
 6088TIP3    H139679   4.982   4.477   1.486  1.8538 -1.9310  2.0218
 6088TIP3    H239680   4.860   4.477   1.575 -0.7189  1.0810 -1.2280
 6089TIP3   OH239681   1.408   0.164  15.475  0.1750 -0.0918  0.3610
 6089TIP3    H139682   1.436   0.223  15.405 -1.7996  3.2448  2.1326
 6089TIP3    H239683   1.441   0.204  15.555 -0.0206 -2.2383  1.5935
 6090TIP3   OH239684   0.005   5.418   6.074 -0.8300 -0.5772  0.3082
 6090TIP3    H139685  -0.038   5.445   6.155 -0.5581 -3.5111  1.5584
 6090TIP3    H239686  -0.015   5.325   6.067  0.2127 -0.6726 -2.3696
 6091TIP3   OH239687   4.733   1.809  11.839  0.1882 -0.3583  0.6415
 6091TIP3    H139688   4.784   1.756  11.778  0.3673  0.2510  0.2428
 6091TIP3    H239689   4.781   1.805  11.921  2.5416  2.4650 -0.3976
 6092TIP3   OH239690   3.843   0.432  14.968  0.0143 -0.6792 -0.2051
 6092TIP3    H139691   3.855   0.481  14.886  3.1488  1.5319  1.3656
 6092TIP3    H239692   3.865   0.342  14.946  2.2595  0.1279 -1.5768
 6093TIP3   OH239693   2.878   6.517   3.604  0.5480 -0.1072 -0.1139
 6093TIP3    H139694   2.873   6.562   3.689  0.0072  0.0877 -0.2416
 6093TIP3    H239695   2.790   6.481   3.591  0.5106  0.1991 -0.7704
 6094TIP3   OH239696   2.812   4.145   2.885 -0.1314 -0.0101  0.1944
 6094TIP3    H139697   2.902   4.175   2.894  0.0976 -0.7410  0.3316
 6094TIP3    H239698   2.759   4.223   2.903  0.4739  0.5030 -0.2207
 6095TIP3   OH239699   0.161   4.399  12.042 -0.2529  0.0427 -0.0541
 6095TIP3    H139700   0.139   4.305  12.045 -0.2470  0.0476  0.1941
 6095TIP3    H239701   0.224   4.411  12.113  0.4999  0.0466 -0.7080
 6096TIP3   OH239702   6.737   1.092  13.353  0.1132  0.1773 -0.3919
 6096TIP3    H139703   6.828   1.099  13.383  0.6476 -0.8312 -1.7187
 6096TIP3    H239704   6.741   1.114  13.260 -1.1885  1.1738 -0.2402
 6097TIP3   OH239705   6.568   1.811  16.388 -0.1875  0.2205  0.3269
 6097TIP3    H139706   6.660   1.815  16.361 -0.2975 -1.1281 -0.3078
 6097TIP3    H239707   6.569   1.754  16.465 -0.1384  2.4943  2.1057
 6098TIP3   OH239708   1.093   2.530  14.215 -0.2464 -0.0766  0.5288
 6098TIP3    H139709   1.006   2.503  14.186 -0.5912  0.7404  0.7922
 6098TIP3    H239710   1.152   2.489  14.152 -0.8117 -0.6826  0.3769
 6099TIP3   OH239711   4.737   1.695  15.937  0.5230 -0.1453 -0.4473
 6099TIP3    H139712   4.807   1.736  15.886  1.9800 -0.5710  1.1021
 6099TIP3    H239713   4.780   1.623  15.983 -0.6530  0.3067  1.4876
 6100TIP3   OH239714   3.645   3.084  13.769 -0.9501  0.7332  0.8520
 6100TIP3    H139715   3.636   3.020  13.698 -0.7083  0.3904  1.1245
 6100TIP3    H239716   3.620   3.035  13.848  2.8036 -0.2249  1.6522
 6101TIP3   OH239717   0.392   6.175   2.908 -0.8456 -0.1134  0.5091
 6101TIP3    H139718   0.476   6.140   2.879  0.3149  1.7949  1.4015
 6101TIP3    H239719   0.332   6.100   2.902  0.8234 -1.4569 -0.4026
 6102TIP3   OH239720   4.052   0.379   2.385  0.0481  0.4923  0.2999
 6102TIP3    H139721   4.080   0.407   2.472  2.8381  1.4589 -0.7688
 6102TIP3    H239722   4.057   0.283   2.387  1.0465  0.5447  0.9618
 6103TIP3   OH239723   2.870   3.623   5.728 -0.2295  0.2809  0.1288
 6103TIP3    H139724   2.885   3.531   5.750 -0.6965  0.3454  0.7563
 6103TIP3    H239725   2.796   3.648   5.783 -0.3055  0.9458 -0.2739
 6104TIP3   OH239726   1.055   5.695   4.346  0.4207 -0.0118 -0.6022
 6104TIP3    H139727   1.091   5.780   4.323  0.9502 -0.0907 -0.0836
 6104TIP3    H239728   1.123   5.632   4.322  0.3118 -0.2297 -0.3441
 6105TIP3   OH239729   5.209   1.077   4.135  0.5276 -0.6910 -0.1707
 6105TIP3    H139730   5.115   1.067   4.120  0.2020  0.8910  0.5895
 6105TIP3    H239731   5.229   1.166   4.106  1.8343 -1.0468 -0.4615
 6106TIP3   OH239732   0.195   2.015  16.977 -0.1432 -0.3850 -0.4309
 6106TIP3    H139733   0.235   1.937  16.937 -0.3869 -0.4707 -0.5118
 6106TIP3    H239734   0.181   2.075  16.904  1.6593  0.4682 -0.1438
 6107TIP3   OH239735   3.580   3.623   6.456 -0.6395 -0.5467  0.2012
 6107TIP3    H139736   3.597   3.531   6.477  1.6550 -0.1689  0.2253
 6107TIP3    H239737   3.640   3.672   6.512  0.8167  0.7965 -2.3427
 6108TIP3   OH239738   5.286   2.808   4.623  0.2826  0.4092 -0.1870
 6108TIP3    H139739   5.305   2.730   4.571 -1.3793  0.5122 -1.0489
 6108TIP3    H239740   5.257   2.873   4.558 -2.0368  0.4912  0.8274
 6109TIP3   OH239741   2.968   2.656   5.028  0.0594  0.4762  0.0704
 6109TIP3    H139742   2.956   2.726   5.093  0.9696 -0.0254  0.7955
 6109TIP3    H239743   2.892   2.599   5.041  1.2957 -0.7949  2.2288
 6110TIP3   OH239744   1.307   1.890   5.250  0.6774 -0.3037  0.2210
 6110TIP3    H139745   1.262   1.892   5.335 -0.4156  0.7330 -0.3518
 6110TIP3    H239746   1.324   1.797   5.234 -0.9138 -0.7105  0.6668
 6111TIP3   OH239747   1.057   1.153   5.251  0.4328  0.5741 -0.8540
 6111TIP3    H139748   1.076   1.116   5.337 -2.1094  1.8685  0.3858
 6111TIP3    H239749   1.012   1.083   5.204  0.4790  0.3500 -0.5699
 6112TIP3   OH239750   1.822   6.413  12.865 -0.3151 -0.5333  0.2235
 6112TIP3    H139751   1.858   6.328  12.840  1.7490  0.5063 -0.6328
 6112TIP3    H239752   1.770   6.440  12.789 -0.4866 -0.7756  0.2551
 6113TIP3   OH239753   2.126   3.907   4.864  0.0909  0.2787  0.5344
 6113TIP3    H139754   2.042   3.908   4.818 -0.0071  2.3951  0.6336
 6113TIP3    H239755   2.176   3.978   4.823  1.0917  0.3251  1.7656
 6114TIP3   OH239756   1.934   5.957  16.070  0.2379  0.2257 -0.4858
 6114TIP3    H139757   1.925   5.886  16.133 -0.0045 -0.3876 -1.1901
 6114TIP3    H239758   2.000   5.926  16.008 -1.3866 -0.3348 -2.0174
 6115TIP3   OH239759   0.813   0.096   1.056 -0.5810  0.4219 -0.1953
 6115TIP3    H139760   0.776   0.047   1.130  0.3094 -0.4356 -0.2912
 6115TIP3    H239761   0.831   0.183   1.091  0.7991 -0.2667  0.9460
 6116TIP3   OH239762   4.480   0.550   4.721 -0.3244 -0.0209 -0.1642
 6116TIP3    H139763   4.422   0.483   4.756  0.8021 -1.0899 -0.2442
 6116TIP3    H239764   4.435   0.633   4.737 -1.8554 -0.8029 -0.2580
 6117TIP3   OH239765   2.137   5.099   3.583  0.5466 -0.4674 -0.4421
 6117TIP3    H139766   2.166   5.022   3.632  1.0797 -0.5510 -0.8747
 6117TIP3    H239767   2.090   5.152   3.647 -1.4332 -1.9896 -0.5509
 6118TIP3   OH239768   2.098   6.180   3.895 -0.0022 -0.2694  0.2681
 6118TIP3    H139769   2.161   6.252   3.902 -0.4569  0.1528  0.0653
 6118TIP3    H239770   2.024   6.207   3.950 -1.1735  0.4985 -1.5711
 6119TIP3   OH239771   5.572   2.891  12.938  0.0027 -0.3993 -0.8606
 6119TIP3    H139772   5.633   2.916  12.869 -0.5104  1.4220 -0.7231
 6119TIP3    H239773   5.628   2.873  13.014  0.4849 -1.1058 -1.3742
 6120TIP3   OH239774   1.662   3.529  11.949 -0.7591 -0.9159 -0.6057
 6120TIP3    H139775   1.650   3.497  12.039  1.2657  1.5367  0.6617
 6120TIP3    H239776   1.754   3.510  11.930 -0.3321  1.3228 -0.9487
 6121TIP3   OH239777   0.612   3.849  14.250 -0.1141  0.5894 -0.2647
 6121TIP3    H139778   0.575   3.779  14.197 -1.0011  0.4858  0.4630
 6121TIP3    H239779   0.554   3.855  14.326 -0.0224  2.0694 -0.2823
 6122TIP3   OH239780   1.706   6.216  12.530 -0.4036 -0.1939 -0.0641
 6122TIP3    H139781   1.646   6.146  12.503 -0.0799 -0.4835 -0.0493
 6122TIP3    H239782   1.793   6.182  12.507 -0.2857  0.4669 -0.6291
 6123TIP3   OH239783   5.978   6.182  12.411  0.6239 -0.2713  0.2200
 6123TIP3    H139784   5.994   6.271  12.444 -2.7789  0.1624  1.0418
 6123TIP3    H239785   6.002   6.125  12.484 -2.1981  0.4135  1.8511
 6124TIP3   OH239786   3.096   6.356  16.329  0.2140  0.2380 -0.1845
 6124TIP3    H139787   3.128   6.369  16.418  0.4225 -0.6649 -0.1202
 6124TIP3    H239788   3.033   6.427  16.316 -1.2682 -0.7132  1.3819
 6125TIP3   OH239789   2.246   0.631   5.534 -0.2114 -1.1052  0.9555
 6125TIP3    H139790   2.213   0.719   5.517  1.3040 -0.5557  0.6831
 6125TIP3    H239791   2.169   0.580   5.559 -1.3265 -0.0384 -0.1845
 6126TIP3   OH239792   0.543   0.139   5.509 -0.1188  0.2392  0.0107
 6126TIP3    H139793   0.551   0.046   5.489 -0.6276  0.4465 -1.2739
 6126TIP3    H239794   0.550   0.182   5.423  1.3106  1.4639  0.6970
 6127TIP3   OH239795   4.653   5.419   5.885  0.0864 -0.0317  0.1382
 6127TIP3    H139796   4.740   5.406   5.921 -0.2121 -2.2548  0.2077
 6127TIP3    H239797   4.594   5.411   5.960 -0.3661 -2.0516 -0.3849
 6128TIP3   OH239798   4.270   1.612  13.371  0.3288  0.5772 -0.3859
 6128TIP3    H139799   4.212   1.602  13.447 -1.0902  0.5301 -1.4375
 6128TIP3    H239800   4.276   1.524  13.334 -1.0004  1.0177 -1.7266
 6129TIP3   OH239801   6.621   2.643   4.881 -0.1379  0.4216  0.0750
 6129TIP3    H139802   6.625   2.739   4.880  1.1647  0.3952  0.4243
 6129TIP3    H239803   6.678   2.618   4.953 -1.4010 -0.6083  0.7435
 6130TIP3   OH239804   5.968   6.532  15.702  0.6463 -0.2442 -0.4452
 6130TIP3    H139805   5.891   6.547  15.756 -0.4913 -1.7337 -1.5463
 6130TIP3    H239806   5.985   6.438  15.710  1.8337 -0.0848 -0.8962
 6131TIP3   OH239807   4.159   4.801  14.589  0.1605  0.0840 -0.1761
 6131TIP3    H139808   4.235   4.858  14.582 -0.9370  1.5941 -0.2124
 6131TIP3    H239809   4.096   4.851  14.641 -0.3416 -1.6621  0.9852
 6132TIP3   OH239810   1.034   3.271   2.320 -0.2446  0.3322 -0.1349
 6132TIP3    H139811   1.041   3.178   2.299 -1.1347  0.2745 -0.1874
 6132TIP3    H239812   1.097   3.284   2.391  0.6324 -0.0857 -0.8063
 6133TIP3   OH239813   2.380   0.500  11.846 -0.1291 -0.7315 -0.3893
 6133TIP3    H139814   2.422   0.574  11.802  1.1272 -0.4177  1.2130
 6133TIP3    H239815   2.447   0.468  11.907 -0.9091 -2.7232 -0.5152
 6134TIP3   OH239816   2.318   4.920  13.965 -0.2015 -1.1449  0.6580
 6134TIP3    H139817   2.388   4.953  13.909 -0.3208 -0.8996  0.6515
 6134TIP3    H239818   2.272   4.856  13.909  1.0518 -2.6141  1.2216
 6135TIP3   OH239819   0.685   4.622  15.437 -0.1024  0.0170 -0.2867
 6135TIP3    H139820   0.774   4.647  15.410 -0.4372  0.8501 -0.6552
 6135TIP3    H239821   0.692   4.529  15.460  1.0195  0.2492  0.3793
 6136TIP3   OH239822   2.373   0.356  12.765  0.0413  0.3280 -0.8021
 6136TIP3    H139823   2.329   0.366  12.849 -0.7725 -0.3714 -1.1305
 6136TIP3    H239824   2.466   0.348  12.788 -0.1761  0.0593  0.0373
 6137TIP3   OH239825   6.321   3.737  16.546 -0.0008 -0.7745 -0.8660
 6137TIP3    H139826   6.293   3.678  16.615  2.9866 -0.3793  0.8376
 6137TIP3    H239827   6.346   3.679  16.474  2.6055 -1.7165  0.6651
 6138TIP3   OH239828   4.035   2.436   5.720 -0.0401 -0.2874  0.1135
 6138TIP3    H139829   4.058   2.348   5.691 -0.5420 -0.7239  0.9933
 6138TIP3    H239830   4.056   2.438   5.813 -2.4424 -0.3671  0.7240
 6139TIP3   OH239831   3.396   2.978  15.601  0.0273 -0.3281 -0.2780
 6139TIP3    H139832   3.330   3.048  15.597  0.4875  0.4427  2.6675
 6139TIP3    H239833   3.480   3.024  15.593  0.6077  0.4217  5.6214
 6140TIP3   OH239834   1.409   6.289   6.346 -0.0389  0.5038  0.4249
 6140TIP3    H139835   1.455   6.213   6.311  0.2297  0.9885 -0.2927
 6140TIP3    H239836   1.478   6.345   6.381 -0.2862  0.1205  1.5743
 6141TIP3   OH239837   6.148   0.208   4.081 -0.5409  0.3153 -0.4938
 6141TIP3    H139838   6.125   0.262   4.157 -3.4217 -0.3643 -0.7477
 6141TIP3    H239839   6.110   0.122   4.101  1.7669 -0.9487 -1.1956
 6142TIP3   OH239840   5.448   4.797   5.795  0.4704 -0.1807 -0.1839
 6142TIP3    H139841   5.537   4.765   5.809  0.8787  0.7226 -0.6094
 6142TIP3    H239842   5.415   4.746   5.721  0.4002 -0.9301  0.3437
 6143TIP3   OH239843   1.379   5.887   1.803 -0.1369 -0.4628  0.5549
 6143TIP3    H139844   1.411   5.837   1.728 -1.1329 -1.2114  0.6018
 6143TIP3    H239845   1.407   5.835   1.879  1.4061  0.6079  0.7569
 6144TIP3   OH239846   3.908   2.596   3.852  0.2981 -0.3224 -0.3147
 6144TIP3    H139847   3.998   2.622   3.832 -0.0395 -0.1426 -1.6826
 6144TIP3    H239848   3.911   2.500   3.855  0.7699 -0.2892  0.9169
 6145TIP3   OH239849   3.183   3.866   0.178  0.0165  0.3790  0.1587
 6145TIP3    H139850   3.230   3.944   0.205 -1.5365  0.8719  1.6118
 6145TIP3    H239851   3.181   3.870   0.082  1.1677  1.3469  0.1571
 6146TIP3   OH239852   3.788   4.555   5.268  0.3983 -0.0042  0.1622
 6146TIP3    H139853   3.726   4.615   5.226  0.7591 -0.1490 -0.5998
 6146TIP3    H239854   3.744   4.526   5.347 -0.5915 -0.2606 -0.4643
 6147TIP3   OH239855   4.198   5.446  15.624  0.3864  0.5045 -0.3501
 6147TIP3    H139856   4.209   5.379  15.556 -1.8963  0.5713 -0.8658
 6147TIP3    H239857   4.184   5.527  15.576 -1.4248  0.5230  0.1220
 6148TIP3   OH239858   6.640   0.641   4.207  0.5049  0.4270 -0.3723
 6148TIP3    H139859   6.614   0.631   4.116  0.9826  0.1704 -0.4851
 6148TIP3    H239860   6.692   0.563   4.226  2.0381  1.3889 -0.4625
 6149TIP3   OH239861   6.069   5.082  12.438  0.5096 -0.0005  0.6817
 6149TIP3    H139862   6.085   5.168  12.476 -0.5597  0.0998  0.9311
 6149TIP3    H239863   6.087   5.094  12.345  0.5986  0.4220  0.7498
 6150TIP3   OH239864   1.980   2.118   1.619  0.3622 -0.3256 -1.0652
 6150TIP3    H139865   2.000   2.171   1.697 -2.3013 -0.8903  0.1388
 6150TIP3    H239866   1.942   2.181   1.557 -1.3617 -0.4813 -0.2333
 6151TIP3   OH239867   3.854   1.724   2.835  0.4035 -0.2178  0.0430
 6151TIP3    H139868   3.840   1.699   2.926  1.0467  0.4108  0.3190
 6151TIP3    H239869   3.824   1.815   2.830 -1.5518 -0.8481 -0.8652
 6152TIP3   OH239870   5.111   1.161  10.521 -0.2589  0.3148  0.1666
 6152TIP3    H139871   5.041   1.222  10.500 -1.0304 -0.0115  1.6324
 6152TIP3    H239872   5.153   1.142  10.437 -0.3794  2.3641 -0.3953
 6153TIP3   OH239873   1.681   3.901   6.034  0.1416 -0.6459  0.7748
 6153TIP3    H139874   1.653   3.936   6.119  0.5002  1.7431 -0.0154
 6153TIP3    H239875   1.635   3.955   5.970  1.5972 -0.9299 -0.5551
 6154TIP3   OH239876   0.886   5.422  15.862 -0.3195  0.2607 -0.4657
 6154TIP3    H139877   0.964   5.367  15.872  1.1291  2.2737 -0.0409
 6154TIP3    H239878   0.872   5.426  15.768  1.3998  1.5360 -0.7130
 6155TIP3   OH239879   4.761   5.341   3.114 -0.2112  0.4754 -0.5364
 6155TIP3    H139880   4.721   5.292   3.186 -1.4613  1.0546 -0.8117
 6155TIP3    H239881   4.746   5.433   3.136  2.0631  0.7867 -0.0503
 6156TIP3   OH239882   3.006   4.360  11.019  0.6173  0.2244  0.1684
 6156TIP3    H139883   2.993   4.336  10.928  1.2017 -1.1340  0.4174
 6156TIP3    H239884   2.931   4.416  11.040  1.2035  1.7343 -1.5160
 6157TIP3   OH239885   1.752   0.789  13.348  0.1559  0.0187 -0.3745
 6157TIP3    H139886   1.780   0.699  13.364  0.5170  0.0553 -0.7942
 6157TIP3    H239887   1.722   0.820  13.434 -0.1279 -0.5527 -0.2625
 6158TIP3   OH239888   6.675   2.372   1.320  0.2892  0.0931  0.1494
 6158TIP3    H139889   6.580   2.373   1.317  0.2410 -0.6242  0.8401
 6158TIP3    H239890   6.702   2.334   1.236 -0.0501  0.0156  0.0752
 6159TIP3   OH239891   3.188   3.521   0.811  0.7515  0.3973  0.0247
 6159TIP3    H139892   3.150   3.608   0.819  1.0364  0.4504  0.9428
 6159TIP3    H239893   3.151   3.485   0.730  0.7881  1.4392 -0.4606
 6160TIP3   OH239894   2.505   4.152   4.966  0.3367 -0.5593  0.0948
 6160TIP3    H139895   2.503   4.111   4.879  3.1510  0.5049 -0.5795
 6160TIP3    H239896   2.576   4.108   5.012  0.2416  0.2950  1.1032
 6161TIP3   OH239897   4.519   4.865  12.807  0.7417 -0.1715 -0.3082
 6161TIP3    H139898   4.583   4.795  12.792  1.0398 -0.1739  0.8453
 6161TIP3    H239899   4.518   4.877  12.902 -0.0308  0.7215 -0.4055
 6162TIP3   OH239900   5.131   0.726   2.067  0.1576 -0.1319  0.2150
 6162TIP3    H139901   5.145   0.815   2.034  0.0885 -1.1404 -2.8481
 6162TIP3    H239902   5.037   0.712   2.055  0.4578 -1.2023 -1.1014
 6163TIP3   OH239903   2.271   4.264  15.202 -0.2359 -0.5627  0.2029
 6163TIP3    H139904   2.283   4.356  15.181 -3.1630  0.2213  1.4462
 6163TIP3    H239905   2.314   4.253  15.287  1.2026 -0.7122 -0.5165
 6164TIP3   OH239906   3.417   1.157  10.954  0.0107 -0.5313  0.5673
 6164TIP3    H139907   3.419   1.070  10.914  0.0653  0.2168 -1.1005
 6164TIP3    H239908   3.348   1.150  11.021  1.7541 -2.5808  2.3150
 6165TIP3   OH239909   2.326   3.833  15.681 -0.3221  0.3311 -0.1097
 6165TIP3    H139910   2.395   3.808  15.743  0.4450  0.6451 -0.8199
 6165TIP3    H239911   2.289   3.749  15.653  0.4815  0.0952 -0.5081
 6166TIP3   OH239912   2.739   1.902  12.758  0.0264  0.1683 -0.4411
 6166TIP3    H139913   2.783   1.933  12.837 -1.5410 -0.6719  0.8033
 6166TIP3    H239914   2.700   1.818  12.782 -2.9041  1.1796 -1.1815
 6167TIP3   OH239915   3.087   6.496  11.187  0.0851 -0.0351 -0.8338
 6167TIP3    H139916   3.062   6.412  11.149  0.0725 -0.2299 -0.4006
 6167TIP3    H239917   3.175   6.481  11.222  0.2331  0.2396 -1.0865
 6168TIP3   OH239918   2.276   0.484   1.069 -0.4474 -0.3127  0.2069
 6168TIP3    H139919   2.243   0.510   0.982  1.1636 -1.1416 -0.6797
 6168TIP3    H239920   2.312   0.396   1.056 -0.1435 -0.4303  1.7161
 6169TIP3   OH239921   2.421   5.217   0.229 -0.1166  0.2576  0.4765
 6169TIP3    H139922   2.391   5.281   0.165 -1.1244 -0.1193  0.5587
 6169TIP3    H239923   2.363   5.142   0.218  1.1653 -0.7265  0.2618
 6170TIP3   OH239924   6.703   1.133  15.795  0.0991  0.1301  0.4798
 6170TIP3    H139925   6.780   1.089  15.759 -0.5790 -1.7001  1.1427
 6170TIP3    H239926   6.727   1.153  15.885 -0.0070  0.0502  0.5268
 6171TIP3   OH239927   4.650   4.747  16.375 -0.1464 -0.1504  0.0742
 6171TIP3    H139928   4.664   4.652  16.378 -0.0312 -0.1155  0.7809
 6171TIP3    H239929   4.614   4.763  16.288 -1.9189 -1.0809  0.5933
 6172TIP3   OH239930   1.964   0.857  12.737  0.0473 -0.0294 -0.5740
 6172TIP3    H139931   2.030   0.792  12.764 -0.7380 -1.0127 -0.9480
 6172TIP3    H239932   1.894   0.805  12.698 -0.6516  1.0534 -0.8060
 6173TIP3   OH239933   2.497   1.797  11.737  0.3780 -0.6709  0.1691
 6173TIP3    H139934   2.493   1.761  11.648  1.8866  0.3667 -0.3690
 6173TIP3    H239935   2.418   1.765  11.779  0.0986 -1.9891 -1.2438
 6174TIP3   OH239936   5.329   5.350  11.915  0.2182 -0.2493 -0.1549
 6174TIP3    H139937   5.254   5.304  11.878  0.9572 -1.8071  0.2098
 6174TIP3    H239938   5.375   5.284  11.966  1.2253  0.9560  0.5633
 6175TIP3   OH239939   3.556   5.892   2.382  0.1536  0.0091  0.2608
 6175TIP3    H139940   3.581   5.962   2.443  2.6501 -1.2126  0.7866
 6175TIP3    H239941   3.585   5.923   2.296  0.7974 -0.1553  0.4153
 6176TIP3   OH239942   4.766   1.960   5.099  0.0943 -0.3818  0.4167
 6176TIP3    H139943   4.785   1.993   5.011  1.3663  0.5394  1.0085
 6176TIP3    H239944   4.751   2.038   5.151  3.7145 -0.5136  1.9693
 6177TIP3   OH239945   4.079   1.067  11.372 -0.0456 -0.2165 -0.6684
 6177TIP3    H139946   4.171   1.087  11.390 -0.4539  1.5373 -0.2960
 6177TIP3    H239947   4.075   1.056  11.277  0.5678 -0.4251 -0.6739
 6178TIP3   OH239948   6.666   1.075   5.285  0.5904 -0.1262 -0.0740
 6178TIP3    H139949   6.711   1.017   5.223  3.8561  0.9796  1.0683
 6178TIP3    H239950   6.621   1.015   5.345  1.8413 -1.4150 -0.3736
 6179TIP3   OH239951   3.847   3.265   4.067 -0.5305 -0.6926  0.0322
 6179TIP3    H139952   3.774   3.326   4.077  1.5579  1.6734  2.6002
 6179TIP3    H239953   3.854   3.222   4.152  0.6618 -1.3663 -0.3875
 6180TIP3   OH239954   6.372   6.587  15.195  0.1634 -0.6917  0.1267
 6180TIP3    H139955   6.388   6.647  15.122  1.3984  0.8355  1.5689
 6180TIP3    H239956   6.276   6.580  15.198 -0.1118  1.9860  0.4363
 6181TIP3   OH239957   6.351   6.781   1.403  0.5681 -0.1713 -0.7929
 6181TIP3    H139958   6.421   6.833   1.364  1.6396 -0.9215  0.0540
 6181TIP3    H239959   6.330   6.826   1.484 -2.0613  1.7098 -2.3938
 6182TIP3   OH239960   2.200   1.134   3.658 -0.2991 -0.0257  0.8333
 6182TIP3    H139961   2.109   1.108   3.672 -0.3819 -0.2510 -0.0351
 6182TIP3    H239962   2.194   1.211   3.600  0.0199  0.7078  1.7486
 6183TIP3   OH239963   2.964   6.464  11.910  0.3045 -0.3732  0.9219
 6183TIP3    H139964   2.983   6.541  11.857  0.0210 -0.6135  0.4590
 6183TIP3    H239965   3.046   6.416  11.913 -0.1430 -1.3966 -1.0468
 6184TIP3   OH239966   0.552   0.149  11.957  0.0965  0.1604 -0.2351
 6184TIP3    H139967   0.568   0.163  12.051 -0.5627 -0.6029  0.0003
 6184TIP3    H239968   0.617   0.085  11.931 -0.2244 -0.2171 -0.1148
 6185TIP3   OH239969   1.923   5.400  11.593 -0.4479 -0.2979  0.4017
 6185TIP3    H139970   1.918   5.364  11.681  0.4162 -1.6860 -0.0867
 6185TIP3    H239971   2.003   5.454  11.594 -0.9984  0.5320  0.7417
 6186TIP3   OH239972   1.186   6.222   0.020 -0.2158  0.7972 -0.3670
 6186TIP3    H139973   1.153   6.311   0.014  1.0927  1.3967  0.7346
 6186TIP3    H239974   1.144   6.185   0.098  0.7758  1.1635  0.3570
 6187TIP3   OH239975   0.250   6.768  14.038 -0.1941 -0.6144 -0.3602
 6187TIP3    H139976   0.194   6.846  14.036  0.2901 -0.2034  0.8775
 6187TIP3    H239977   0.269   6.755  14.131  1.9185 -0.6178 -0.7397
 6188TIP3   OH239978   4.395   5.003  13.871 -0.3237  0.4981  0.4840
 6188TIP3    H139979   4.355   5.077  13.916  0.3811 -0.1479  2.2498
 6188TIP3    H239980   4.398   4.933  13.936 -0.0370 -0.7678 -0.8280
 6189TIP3   OH239981   2.132   1.790   4.435  0.4111  0.1785 -0.0530
 6189TIP3    H139982   2.136   1.870   4.383  0.7807 -0.6358 -1.3447
 6189TIP3    H239983   2.215   1.745   4.416  1.0766  0.3503  2.1486
 6190TIP3   OH239984   0.549   0.981  15.835  0.1824 -0.5240 -0.7777
 6190TIP3    H139985   0.555   0.949  15.745 -0.8380  1.3214 -1.5572
 6190TIP3    H239986   0.544   1.076  15.827  1.5836 -0.1868  1.3421
 6191TIP3   OH239987   1.658   1.950   1.415  0.2383 -0.7919 -0.1063
 6191TIP3    H139988   1.687   1.871   1.370  0.3669 -0.0635 -1.3652
 6191TIP3    H239989   1.699   1.945   1.502  2.0657 -1.0671 -0.9274
 6192TIP3   OH239990   1.119   2.043   1.871 -0.6768 -0.1022 -0.2453
 6192TIP3    H139991   1.190   2.001   1.919 -0.6845  0.7529  0.5386
 6192TIP3    H239992   1.075   1.971   1.826  1.0409 -0.5878 -1.2515
 6193TIP3   OH239993   2.030   3.402   0.951 -0.9162 -0.3107  0.0567
 6193TIP3    H139994   2.017   3.452   1.032  1.0428 -1.3169  1.0583
 6193TIP3    H239995   1.956   3.342   0.948 -1.4737  0.3226  0.6280
 6194TIP3   OH239996   0.046   4.156  11.355  0.4302 -0.2829 -0.3031
 6194TIP3    H139997  -0.015   4.110  11.414  1.1220 -0.1803  0.5211
 6194TIP3    H239998   0.126   4.166  11.407  0.8995  0.2515 -1.1059
 6195TIP3   OH239999   0.173   5.930  15.696  0.2044  0.5054 -0.4695
 6195TIP3    H140000   0.083   5.940  15.663  0.7930  0.6689 -2.1398
 6195TIP3    H240001   0.180   5.837  15.717 -0.8493  0.7856  1.3093
 6196TIP3   OH240002   6.291   5.851   3.689  0.5263  0.7348 -0.5375
 6196TIP3    H140003   6.346   5.878   3.762 -0.2582  0.1493  0.2820
 6196TIP3    H240004   6.347   5.794   3.636  0.4423 -0.6513  0.8047
 6197TIP3   OH240005   2.647   0.652  12.892 -0.0990  0.1172  0.1399
 6197TIP3    H140006   2.742   0.649  12.907 -0.1721  0.2384  0.6456
 6197TIP3    H240007   2.638   0.646  12.797  0.4696  1.4147 -0.0196
 6198TIP3   OH240008   4.123   5.918  13.423  0.6444  0.1072 -0.3619
 6198TIP3    H140009   4.104   6.006  13.455  0.1699 -0.1770  0.1573
 6198TIP3    H240010   4.205   5.927  13.375  1.8662  0.3907  1.6717
 6199TIP3   OH240011   3.168   5.741  12.714 -0.2073 -0.2563  0.2423
 6199TIP3    H140012   3.109   5.729  12.788 -0.7970  1.8351  0.1697
 6199TIP3    H240013   3.255   5.720  12.749 -0.8340 -2.6403  0.5384
 6200TIP3   OH240014   1.759   1.310   5.239 -0.4077  0.0625  0.8344
 6200TIP3    H140015   1.847   1.345   5.225 -0.6914  0.2793 -0.5816
 6200TIP3    H240016   1.719   1.368   5.303  0.2342  0.3911  0.9424
 6201TIP3   OH240017   2.829   1.849  15.745  0.7416 -0.2802 -0.5661
 6201TIP3    H140018   2.829   1.883  15.834 -1.4595 -1.8315  0.0996
 6201TIP3    H240019   2.917   1.815  15.732  1.1130  0.0235  0.9917
 6202TIP3   OH240020   4.759   4.957   1.072  0.0318  0.0440  0.4188
 6202TIP3    H140021   4.840   4.975   1.120  0.7834 -1.1234 -0.3430
 6202TIP3    H240022   4.692   4.948   1.139  0.6629  0.3768  1.1071
 6203TIP3   OH240023   4.011   0.784   5.667 -0.4291 -0.2428  0.1936
 6203TIP3    H140024   3.968   0.816   5.587 -2.0391  0.2683  1.2216
 6203TIP3    H240025   4.094   0.832   5.669 -0.5992  0.1442 -0.8923
 6204TIP3   OH240026   4.903   5.790   5.174  0.1131  0.7471  0.7479
 6204TIP3    H140027   4.909   5.882   5.202  0.6124  1.1275 -0.5472
 6204TIP3    H240028   4.809   5.772   5.173 -0.1520  1.9049 -0.9236
 6205TIP3   OH240029   3.019   5.059   3.863  0.2931 -0.3906  0.2524
 6205TIP3    H140030   3.047   4.993   3.927 -0.8250  0.0911  1.2697
 6205TIP3    H240031   3.101   5.100   3.834  0.8227 -0.6230  1.3586
 6206TIP3   OH240032   5.388   0.205   1.377  0.3669 -0.4761  0.0541
 6206TIP3    H140033   5.314   0.145   1.385 -0.7799  0.7922 -0.5770
 6206TIP3    H240034   5.455   0.170   1.436 -1.2039 -0.9591  1.6199
 6207TIP3   OH240035   0.893   5.899   5.814 -0.2604  0.2795 -0.7576
 6207TIP3    H140036   0.867   5.986   5.784 -1.4397 -0.0769 -0.8190
 6207TIP3    H240037   0.884   5.843   5.736 -0.6569 -0.1247 -0.4205
 6208TIP3   OH240038   1.002   5.405   0.282 -0.1964  0.2682 -0.3220
 6208TIP3    H140039   0.922   5.355   0.270 -0.0075  0.3999 -2.5937
 6208TIP3    H240040   1.069   5.338   0.299 -0.4471 -0.0125 -0.4255
 6209TIP3   OH240041   0.305   4.386  11.282 -0.0284  0.7278 -0.3974
 6209TIP3    H140042   0.217   4.352  11.295 -0.8176  2.6173 -0.5608
 6209TIP3    H240043   0.328   4.425  11.367  0.4435  0.7284 -0.5206
 6210TIP3   OH240044   0.281   1.223  16.358 -0.3627  0.6694  0.5242
 6210TIP3    H140045   0.187   1.210  16.350 -0.4652  0.6225  1.6885
 6210TIP3    H240046   0.307   1.169  16.433  0.4280  1.4470  0.8318
 6211TIP3   OH240047   4.024   4.625   5.695 -0.3412 -0.2077 -0.3699
 6211TIP3    H140048   3.931   4.605   5.706 -0.3778 -0.1329 -0.5423
 6211TIP3    H240049   4.066   4.589   5.773 -0.7583  1.2886  0.5966
 6212TIP3   OH240050   0.225   0.693   0.220 -0.0091  0.5385 -0.1003
 6212TIP3    H140051   0.277   0.613   0.231  0.7104  1.1850  1.3096
 6212TIP3    H240052   0.289   0.761   0.200 -0.6198  0.7954 -1.2642
 6213TIP3   OH240053   6.117   4.995   3.591 -0.0374 -0.2217  0.6290
 6213TIP3    H140054   6.187   5.020   3.652  0.6103  1.0756 -0.5771
 6213TIP3    H240055   6.042   4.977   3.647  0.4998  1.0220  1.8196
 6214TIP3   OH240056   2.290   4.123   5.539 -0.2432  0.4272 -0.4115
 6214TIP3    H140057   2.274   4.138   5.632  0.7109 -2.5737  0.3639
 6214TIP3    H240058   2.218   4.065   5.511  1.4617 -1.8297 -0.4432
 6215TIP3   OH240059   5.411   6.736   4.587  0.1275  0.2378 -0.4598
 6215TIP3    H140060   5.371   6.650   4.576 -0.0440  0.3263 -0.5315
 6215TIP3    H240061   5.480   6.723   4.652 -0.9661  0.3789  0.7743
 6216TIP3   OH240062   1.040   4.517  16.106 -0.4825  0.2841 -0.3104
 6216TIP3    H140063   1.117   4.486  16.058  0.4601  2.6008 -0.4504
 6216TIP3    H240064   0.970   4.518  16.040  0.4374  2.0259 -1.3682
 6217TIP3   OH240065   2.925   6.172   3.153 -0.2322 -0.0541 -0.2741
 6217TIP3    H140066   2.919   6.104   3.087 -1.1124 -1.4789  1.1874
 6217TIP3    H240067   3.011   6.159   3.194 -0.4677 -0.4204  0.1158
 6218TIP3   OH240068   3.534   2.004   5.456 -0.4435 -0.2129 -0.0591
 6218TIP3    H140069   3.479   2.080   5.440 -1.4172 -0.7053  0.8490
 6218TIP3    H240070   3.575   1.985   5.371  0.6513  1.9307 -0.0724
 6219TIP3   OH240071   4.703   2.832  10.690  0.2817  0.1175  0.2435
 6219TIP3    H140072   4.634   2.791  10.742  1.1445 -2.3819 -0.4290
 6219TIP3    H240073   4.752   2.885  10.753 -0.5435 -0.3485  1.3125
 6220TIP3   OH240074   1.186   1.339   2.296  0.1754 -0.8943 -0.5036
 6220TIP3    H140075   1.281   1.331   2.291  0.4097  0.5489  0.8535
 6220TIP3    H240076   1.169   1.367   2.386 -1.4111  0.3298 -1.1392
 6221TIP3   OH240077   3.719   0.500  16.371 -0.3752  0.0196  0.0516
 6221TIP3    H140078   3.756   0.502  16.459  2.0065 -2.9767 -0.7333
 6221TIP3    H240079   3.773   0.560  16.320  1.3277 -1.7374 -0.3130
 6222TIP3   OH240080   4.986   6.417   3.726  0.0713 -0.1474  0.1197
 6222TIP3    H140081   5.081   6.428   3.728  0.3074 -1.8446 -0.1128
 6222TIP3    H240082   4.965   6.408   3.633 -0.7053  2.7419 -0.0838
 6223TIP3   OH240083   3.508   3.194  14.604 -0.4095 -0.1169  0.3777
 6223TIP3    H140084   3.588   3.168  14.559 -0.6002 -0.5845  0.3036
 6223TIP3    H240085   3.468   3.258  14.545 -0.3334 -0.2450  0.1832
 6224TIP3   OH240086   2.449   2.814   2.379 -0.4677 -0.6063  0.5099
 6224TIP3    H140087   2.453   2.753   2.306  2.4575  1.0842 -0.9067
 6224TIP3    H240088   2.472   2.761   2.456 -0.2104 -1.7241 -0.3180
 6225TIP3   OH240089   2.647   1.311   4.231 -0.1126  0.1929  0.5674
 6225TIP3    H140090   2.590   1.366   4.178  1.1313 -0.5836 -1.6782
 6225TIP3    H240091   2.633   1.222   4.199  2.7743  0.0348 -0.5784
 6226TIP3   OH240092   1.228   1.673  16.654 -0.0777  0.2663  0.4768
 6226TIP3    H140093   1.293   1.663  16.723  0.0432  0.7090  0.4301
 6226TIP3    H240094   1.222   1.767  16.639  1.1660  0.1212 -1.3147
 6227TIP3   OH240095   4.979   1.390  12.787  0.2096 -0.3306 -0.6641
 6227TIP3    H140096   4.985   1.472  12.737 -0.1492 -0.2378 -0.5584
 6227TIP3    H240097   4.886   1.368  12.785  0.3891 -1.0656 -1.2149
 6228TIP3   OH240098   0.408   6.409   2.350 -0.0273  0.0607  0.0309
 6228TIP3    H140099   0.353   6.459   2.410  1.0048  1.3931 -0.1080
 6228TIP3    H240100   0.358   6.328   2.335 -2.2692  1.4516 -0.5693
 6229TIP3   OH240101   6.473   1.049   3.463  0.3365 -0.0138 -0.0386
 6229TIP3    H140102   6.470   1.116   3.531 -1.9136  0.7915 -0.8345
 6229TIP3    H240103   6.384   1.014   3.460  1.0413 -1.8984 -0.7889
 6230TIP3   OH240104   5.212   1.253  16.037  0.4273 -0.1505  0.1368
 6230TIP3    H140105   5.178   1.229  16.123  1.8207 -2.2552  0.1554
 6230TIP3    H240106   5.300   1.286  16.054  1.0781 -1.4651 -0.5195
 6231TIP3   OH240107   2.456   1.263  15.710  0.0074 -0.2391 -0.1217
 6231TIP3    H140108   2.430   1.217  15.789 -0.4488 -1.1176 -0.7609
 6231TIP3    H240109   2.461   1.355  15.735  2.1682 -0.7314  1.5240
 6232TIP3   OH240110   3.048   6.011  12.164  0.1303 -0.2040  0.5475
 6232TIP3    H140111   3.091   5.963  12.234 -1.0969 -1.6831  0.3362
 6232TIP3    H240112   3.004   6.084  12.208  0.8323 -0.0863  1.0670
 6233TIP3   OH240113   3.625   6.715  13.686  0.1383  0.0700 -0.0818
 6233TIP3    H140114   3.617   6.691  13.778 -0.2668  1.3136  0.2208
 6233TIP3    H240115   3.545   6.682  13.646  0.3672 -0.5764 -0.0227
 6234TIP3   OH240116   3.696   6.462  16.265 -0.3256  0.0102 -0.5753
 6234TIP3    H140117   3.689   6.367  16.259 -2.1339  0.0961 -0.1342
 6234TIP3    H240118   3.623   6.489  16.320 -1.3299  1.8667 -2.6532
 6235TIP3   OH240119   3.366   0.120   0.621 -0.3578 -0.0886 -0.5341
 6235TIP3    H140120   3.430   0.175   0.576  0.6016  0.0331  0.9030
 6235TIP3    H240121   3.344   0.052   0.558  1.5054 -0.3687 -0.9356
 6236TIP3   OH240122   2.851   4.527   1.258 -0.5935 -0.3141 -0.0363
 6236TIP3    H140123   2.853   4.460   1.326 -0.6640 -0.4571 -0.1756
 6236TIP3    H240124   2.929   4.510   1.205 -0.5054 -0.1653  0.0439
 6237TIP3   OH240125   1.386   2.734   5.944 -0.0698 -0.3457  1.2569
 6237TIP3    H140126   1.340   2.650   5.952  0.9523 -1.0851 -0.2227
 6237TIP3    H240127   1.419   2.735   5.854  2.0194  0.5536  1.9693
 6238TIP3   OH240128   1.226   0.854   2.207  0.0351  0.4344 -0.6465
 6238TIP3    H140129   1.159   0.915   2.237 -1.0491 -0.7923 -0.4942
 6238TIP3    H240130   1.261   0.816   2.288 -0.3789 -0.2753 -0.8031
 6239TIP3   OH240131   0.443   1.577   0.117 -0.6270  0.0803 -0.1683
 6239TIP3    H140132   0.445   1.574   0.213 -1.4482  4.0561  0.1300
 6239TIP3    H240133   0.350   1.578   0.095 -0.4935 -2.4883 -1.2540
 6240TIP3   OH240134   6.056   5.070  13.875  0.0441  0.1406 -0.4087
 6240TIP3    H140135   6.043   5.129  13.949 -0.1236 -0.6115  0.1654
 6240TIP3    H240136   5.968   5.037  13.855  0.4804 -2.3785  1.3462
 6241TIP3   OH240137   5.741   3.572  13.484  0.2312  0.1865  0.4226
 6241TIP3    H140138   5.740   3.653  13.433 -0.4200 -0.3727 -0.5018
 6241TIP3    H240139   5.827   3.569  13.524  1.1456  0.1950 -1.4360
 6242TIP3   OH240140   0.289   4.680  11.194 -0.4254 -0.1662  0.1332
 6242TIP3    H140141   0.324   4.592  11.207  1.9989  0.7050 -0.0516
 6242TIP3    H240142   0.248   4.677  11.107  0.7550 -0.8044 -0.4315
 6243TIP3   OH240143   2.019   2.160  12.444  0.4168  0.0865  0.3088
 6243TIP3    H140144   1.927   2.159  12.417  0.5795 -1.3871 -0.2913
 6243TIP3    H240145   2.057   2.084  12.400  1.7117  0.1465  1.2859
 6244TIP3   OH240146   4.353   0.379   4.918 -0.1375  0.2030 -0.1750
 6244TIP3    H140147   4.292   0.443   4.955  2.0640  1.9201  0.7454
 6244TIP3    H240148   4.376   0.323   4.991  0.5918  0.5956 -0.0913
 6245TIP3   OH240149   5.448   1.556   0.441  0.8001 -0.4669  0.1411
 6245TIP3    H140150   5.401   1.639   0.441  2.0806  0.2901  0.8200
 6245TIP3    H240151   5.449   1.529   0.349  0.1013  0.0990 -0.0421
 6246TIP3   OH240152   6.449   0.687  11.382 -0.1975  0.0084 -0.5940
 6246TIP3    H140153   6.448   0.614  11.443  0.9633  0.5108  0.0617
 6246TIP3    H240154   6.446   0.765  11.438 -0.9537  0.4715 -1.2607
 6247TIP3   OH240155   3.041   6.679  11.742 -0.5305 -0.3136 -0.0761
 6247TIP3    H140156   3.113   6.657  11.683 -1.0581 -0.8817 -0.5209
 6247TIP3    H240157   3.070   6.759  11.786  2.3886 -2.7955  3.1030
 6248TIP3   OH240158   2.740   3.868   1.846 -0.1365 -1.0642 -0.3385
 6248TIP3    H140159   2.762   3.799   1.909  0.9230 -0.6079 -0.1684
 6248TIP3    H240160   2.715   3.822   1.767  0.6217 -1.6623 -0.2472
 6249TIP3   OH240161   5.759   0.715  11.797  0.5439  0.5469 -0.4079
 6249TIP3    H140162   5.805   0.796  11.775 -0.2319  1.6380  1.7614
 6249TIP3    H240163   5.812   0.675  11.866  0.7056 -0.6332 -1.1793
 6250TIP3   OH240164   1.077   2.291  14.411  0.1269  0.3271 -0.2667
 6250TIP3    H140165   1.077   2.361  14.346  2.1906  0.6244 -0.0151
 6250TIP3    H240166   1.067   2.211  14.360  1.3780  0.5797 -0.9543
 6251TIP3   OH240167   0.736   1.217   0.327  0.1033  0.8347  0.0750
 6251TIP3    H140168   0.676   1.176   0.389  0.6084 -0.3138 -0.1790
 6251TIP3    H240169   0.779   1.286   0.378 -0.9449  1.2469  0.4330
 6252TIP3   OH240170   4.901   1.933   3.925  0.8756 -0.6054 -0.6801
 6252TIP3    H140171   4.857   1.995   3.984  0.2524 -1.2351 -0.4681
 6252TIP3    H240172   4.966   1.986   3.879  1.4420 -0.1116  0.6351
 6253TIP3   OH240173   0.320   0.250   0.271  0.2020 -0.0757  0.3108
 6253TIP3    H140174   0.398   0.305   0.281 -0.3678  0.6301  1.0513
 6253TIP3    H240175   0.293   0.230   0.360 -0.4659 -0.3110  0.0640
 6254TIP3   OH240176   3.001   2.818  11.520 -0.1537 -0.0132 -0.3738
 6254TIP3    H140177   3.038   2.779  11.441  0.1681  0.8115 -0.6343
 6254TIP3    H240178   2.979   2.907  11.494 -1.6698 -0.2606 -0.0273
 6255TIP3   OH240179   6.677   1.070   2.458  0.1492 -0.6612  0.1420
 6255TIP3    H140180   6.652   1.006   2.392 -0.9312 -0.5651  0.4319
 6255TIP3    H240181   6.733   1.132   2.412 -0.4268 -0.7051 -0.6469
 6256TIP3   OH240182   3.168   5.790   0.783  0.8289  0.6672 -0.2185
 6256TIP3    H140183   3.169   5.719   0.846  1.9141 -0.3157 -1.3003
 6256TIP3    H240184   3.176   5.870   0.835  1.8679 -0.1263  0.8534
 6257TIP3   OH240185   2.639   1.829   5.382  0.1473  0.3246 -0.0808
 6257TIP3    H140186   2.644   1.804   5.474 -1.3613 -1.8859 -0.5169
 6257TIP3    H240187   2.572   1.898   5.380  0.3916  0.5845  0.5096
 6258TIP3   OH240188   2.964   2.838   3.615  0.5126  0.6519 -0.2102
 6258TIP3    H140189   2.916   2.888   3.680  1.0829 -0.3125  1.0130
 6258TIP3    H240190   2.959   2.890   3.535 -1.6612  1.0518  0.1378
 6259TIP3   OH240191   0.283   0.400  11.440 -0.1124 -0.3956  0.1256
 6259TIP3    H140192   0.198   0.434  11.470  0.5056 -0.2778  1.8812
 6259TIP3    H240193   0.346   0.465  11.470  0.6743 -0.9211 -0.3866
 6260TIP3   OH240194   3.744   1.811  12.086 -0.3632 -0.0363 -0.1828
 6260TIP3    H140195   3.649   1.814  12.097 -0.4334 -2.4176  0.3648
 6260TIP3    H240196   3.768   1.721  12.108  1.6764 -0.3328 -3.0962
 6261TIP3   OH240197   6.635   2.387  15.825  0.0671 -0.1736  0.2599
 6261TIP3    H140198   6.621   2.318  15.761 -0.7995  0.7412 -0.5935
 6261TIP3    H240199   6.720   2.424  15.803  0.5523 -0.9795  0.7490
 6262TIP3   OH240200   0.506   1.093  11.612 -0.2566 -0.2252 -0.2128
 6262TIP3    H140201   0.421   1.081  11.654 -0.9417  0.2078 -1.4334
 6262TIP3    H240202   0.494   1.168  11.553  1.5119  1.0700  0.9701
 6263TIP3   OH240203   4.678   1.673  15.631 -0.0402  0.4579 -0.0139
 6263TIP3    H140204   4.755   1.665  15.688  2.4020 -1.9884 -3.2071
 6263TIP3    H240205   4.620   1.602  15.659  1.4334 -1.1460 -0.8574
 6264TIP3   OH240206   1.994   4.068   5.840 -0.1030  1.0127 -0.2662
 6264TIP3    H140207   1.960   3.978   5.843  0.3987  0.8355  0.7929
 6264TIP3    H240208   1.952   4.112   5.914  2.1893  0.6653  1.3826
 6265TIP3   OH240209   3.475   5.890   3.972  0.0568  0.0487  0.3489
 6265TIP3    H140210   3.561   5.927   3.951 -0.3446  1.0968  0.4886
 6265TIP3    H240211   3.458   5.918   4.062 -1.3300  1.6328 -0.3693
 6266TIP3   OH240212   2.609   3.208  12.217 -0.3013 -0.0770  0.2783
 6266TIP3    H140213   2.580   3.126  12.257  0.2005 -0.4706 -0.1691
 6266TIP3    H240214   2.603   3.193  12.123 -0.2517  0.4149  0.1950
 6267TIP3   OH240215   3.935   5.389  13.630  0.9373  0.3165 -0.3549
 6267TIP3    H140216   3.951   5.313  13.686  2.3082  0.9800  0.1970
 6267TIP3    H240217   3.985   5.460  13.670 -0.5252  1.6117 -0.6955
 6268TIP3   OH240218   3.875   4.898   3.264 -0.2086 -0.9166 -0.0848
 6268TIP3    H140219   3.797   4.857   3.303 -0.0431 -1.4011 -0.2527
 6268TIP3    H240220   3.868   4.990   3.287 -1.8611 -0.5672 -1.7370
 6269TIP3   OH240221   3.218   6.028  11.349 -0.0073  0.4637 -0.2392
 6269TIP3    H140222   3.263   5.985  11.422  0.8041  1.1042 -0.3376
 6269TIP3    H240223   3.151   6.083  11.391 -0.8962 -0.7003 -0.1048
 6270TIP3   OH240224   3.209   6.706   1.286 -0.2263  0.7020 -0.5121
 6270TIP3    H140225   3.282   6.682   1.342 -0.0373  2.4488  0.0407
 6270TIP3    H240226   3.240   6.685   1.197  0.2125 -0.2702 -0.1479
 6271TIP3   OH240227   2.827   3.532  16.954 -0.4178 -0.3790 -0.0541
 6271TIP3    H140228   2.736   3.548  16.979 -0.4453 -0.3344 -0.1781
 6271TIP3    H240229   2.875   3.528  17.036 -0.7939 -2.0948  0.1270
 6272TIP3   OH240230   2.926   4.157  14.240 -0.0661 -0.4472  0.0011
 6272TIP3    H140231   2.852   4.167  14.181 -0.2109 -0.1309  0.2403
 6272TIP3    H240232   2.950   4.064  14.232 -0.4944 -0.5529 -0.0629
 6273TIP3   OH240233   1.747   4.162  13.171  0.8827 -0.0949 -0.2563
 6273TIP3    H140234   1.761   4.234  13.110  0.7555 -0.3338 -0.5729
 6273TIP3    H240235   1.829   4.155  13.220  0.4643  1.0781  0.6624
 6274TIP3   OH240236   5.692   1.113   6.448  0.3478 -0.5066 -0.2779
 6274TIP3    H140237   5.616   1.065   6.415 -1.3139  0.2345  2.2025
 6274TIP3    H240238   5.760   1.047   6.458  0.3116 -1.0888 -3.0713
 6275TIP3   OH240239   6.107   6.302  12.143  0.5308  0.0220 -0.2410
 6275TIP3    H140240   6.074   6.224  12.187  0.1248  0.6852  0.6513
 6275TIP3    H240241   6.031   6.336  12.094  0.9388 -0.6265 -1.3651
 6276TIP3   OH240242   3.474   1.532  13.697 -0.3591 -0.7493  0.8080
 6276TIP3    H140243   3.565   1.548  13.670 -1.0351  0.1877 -1.1707
 6276TIP3    H240244   3.454   1.444  13.665 -0.8316 -0.0426 -0.9644
 6277TIP3   OH240245   3.945   4.712  15.514  0.2784 -0.0219  0.0453
 6277TIP3    H140246   3.863   4.742  15.475  0.3989  0.0458 -0.1543
 6277TIP3    H240247   3.978   4.645  15.454 -0.2132 -0.8831  0.7150
 6278TIP3   OH240248   5.967   4.888   3.842 -0.2072  0.0063 -0.6463
 6278TIP3    H140249   5.905   4.949   3.803  0.6323  1.1073 -0.3010
 6278TIP3    H240250   5.975   4.917   3.933 -0.5286 -1.2272 -0.1993
 6279TIP3   OH240251   4.069   6.222   4.630 -0.2477  0.2100 -0.2508
 6279TIP3    H140252   4.000   6.189   4.687 -0.8634  3.3535  1.0681
 6279TIP3    H240253   4.023   6.257   4.554  0.0939  0.4906 -0.3312
 6280TIP3   OH240254   0.836   5.567  13.759  0.0436 -0.4482  0.2431
 6280TIP3    H140255   0.777   5.623  13.808  1.0121  2.2893 -1.5155
 6280TIP3    H240256   0.793   5.553  13.675  0.3516 -1.4169  0.2251
 6281TIP3   OH240257   1.608   0.664  16.749 -0.0340  0.3549  0.8066
 6281TIP3    H140258   1.661   0.738  16.780 -1.3725  1.0731  1.4254
 6281TIP3    H240259   1.522   0.701  16.731 -0.0889 -0.5855 -1.1989
 6282TIP3   OH240260   3.553   4.543  14.228  0.4108  0.2526  0.1965
 6282TIP3    H140261   3.497   4.553  14.151 -0.5055  2.1253  1.0357
 6282TIP3    H240262   3.607   4.622  14.228 -1.3951  1.6215  2.8053
 6283TIP3   OH240263   4.363   4.055  15.909  0.1577 -0.9031  0.9002
 6283TIP3    H140264   4.433   4.120  15.900  0.0867 -0.9887 -0.3349
 6283TIP3    H240265   4.384   3.987  15.846 -1.3157 -0.6847  0.1282
 6284TIP3   OH240266   1.361   6.361   3.089 -0.6083  0.0917 -0.4226
 6284TIP3    H140267   1.275   6.403   3.099 -1.0754  0.0967 -3.3999
 6284TIP3    H240268   1.421   6.416   3.140 -1.7212  2.6173 -1.6474
 6285TIP3   OH240269   3.401   2.234  14.778 -0.6975  0.5765  0.1320
 6285TIP3    H140270   3.465   2.267  14.840 -0.8823  0.8032  0.2030
 6285TIP3    H240271   3.410   2.290  14.701 -0.0439 -0.0864 -0.2895
 6286TIP3   OH240272   1.661   4.763  16.852  0.5117  0.3403  0.1584
 6286TIP3    H140273   1.575   4.721  16.848  0.8448 -0.2770 -1.0904
 6286TIP3    H240274   1.715   4.713  16.791  1.5932  1.1046  0.4576
 6287TIP3   OH240275   0.572   6.547   4.078 -0.3767 -0.3934  0.2412
 6287TIP3    H140276   0.591   6.476   4.139  1.5410 -0.7825 -0.7555
 6287TIP3    H240277   0.605   6.626   4.121  0.1709 -0.5359  0.0791
 6288TIP3   OH240278   1.212   3.476  12.816 -0.5551  0.0921 -0.3439
 6288TIP3    H140279   1.200   3.381  12.829  1.5127 -0.1446  0.1238
 6288TIP3    H240280   1.152   3.516  12.879 -0.3224 -0.9349  0.5682
 6289TIP3   OH240281   6.399   3.120   4.894  0.1576 -0.0240  0.0468
 6289TIP3    H140282   6.458   3.080   4.957  1.5792  0.1605 -1.1063
 6289TIP3    H240283   6.449   3.123   4.812 -1.3441  0.4228 -0.9112
 6290TIP3   OH240284   0.960   5.805  14.524 -0.2650  0.1125 -0.0716
 6290TIP3    H140285   0.925   5.847  14.444  0.9172  0.0236 -0.6574
 6290TIP3    H240286   0.882   5.774  14.570 -0.9530 -0.4160 -1.5133
 6291TIP3   OH240287   2.055   0.918   6.184 -0.2411 -0.2089  0.4941
 6291TIP3    H140288   2.009   1.001   6.174  0.0110 -0.0872  0.3194
 6291TIP3    H240289   2.051   0.899   6.277  0.1142  0.2449  0.6071
 6292TIP3   OH240290   4.559   0.490  11.859 -0.0854 -0.1430  0.4824
 6292TIP3    H140291   4.482   0.442  11.829  2.0234 -2.8133 -1.0773
 6292TIP3    H240292   4.567   0.564  11.798 -0.3731 -0.9366 -0.5340
 6293TIP3   OH240293   1.195   5.768  15.964 -0.2117  0.4250  0.2943
 6293TIP3    H140294   1.134   5.831  15.925  0.2380  0.5287 -0.2630
 6293TIP3    H240295   1.245   5.818  16.028 -0.6873  0.3452  0.7365
 6294TIP3   OH240296   0.784   6.800  11.946 -0.1751 -0.1085 -0.4445
 6294TIP3    H140297   0.851   6.842  12.001 -1.5841  0.6809  0.7476
 6294TIP3    H240298   0.813   6.818  11.857  0.6795  1.1117  0.0315
 6295TIP3   OH240299   0.621   4.836   4.324 -0.1206  0.8065 -0.5339
 6295TIP3    H140300   0.598   4.769   4.259  0.1665 -0.4114  0.5699
 6295TIP3    H240301   0.537   4.863   4.361 -0.3394  1.9425 -1.7881
 6296TIP3   OH240302   1.774   5.482   1.255 -0.5888 -0.2374  0.2695
 6296TIP3    H140303   1.826   5.493   1.335 -2.4170  3.3580  1.1847
 6296TIP3    H240304   1.815   5.541   1.191 -1.8866  0.6018  0.1691
 6297TIP3   OH240305   3.164   6.599   5.101  0.2372  0.0956  0.2818
 6297TIP3    H140306   3.080   6.644   5.109 -0.0305 -0.5593  1.2622
 6297TIP3    H240307   3.153   6.518   5.150  1.5141  0.1047  0.6210
 6298TIP3   OH240308   3.968   1.762   3.647  0.0138 -0.0392  0.5908
 6298TIP3    H140309   3.887   1.803   3.677 -0.0430  0.8578 -0.7440
 6298TIP3    H240310   4.004   1.823   3.583  0.0377 -1.9313 -1.3062
 6299TIP3   OH240311   4.010   3.988   4.928  0.4796 -0.0438 -0.1170
 6299TIP3    H140312   4.044   4.053   4.866  1.5860 -2.6065 -2.3818
 6299TIP3    H240313   3.930   3.955   4.886  0.5901 -0.9887  0.4002
 6300TIP3   OH240314   2.213   6.313   3.517 -0.3754  0.0460  0.4115
 6300TIP3    H140315   2.160   6.382   3.555 -1.8418 -0.3155 -0.9014
 6300TIP3    H240316   2.205   6.325   3.422  2.1491  0.1563  0.1446
 6301TIP3   OH240317   0.712   0.411  12.061  0.0720  0.1652 -0.1663
 6301TIP3    H140318   0.639   0.364  12.102  0.4785  0.1493  0.5585
 6301TIP3    H240319   0.704   0.390  11.968 -0.0241 -0.9796  0.0813
 6302TIP3   OH240320   2.599   6.799   2.637 -0.0182 -0.2564  0.4822
 6302TIP3    H140321   2.535   6.805   2.566 -0.4543 -1.6511  0.7277
 6302TIP3    H240322   2.680   6.832   2.600 -0.4476 -0.1854 -0.4079
 6303TIP3   OH240323   1.951   3.622  15.217  0.4794 -0.0765  0.9634
 6303TIP3    H140324   2.017   3.691  15.219  1.5023 -0.9525 -0.7369
 6303TIP3    H240325   1.889   3.647  15.285  1.8202  1.5074  1.6807
 6304TIP3   OH240326   5.085   4.383   0.479 -0.3148 -0.2120 -0.0093
 6304TIP3    H140327   5.155   4.434   0.439 -0.0904 -0.6393 -0.1718
 6304TIP3    H240328   5.085   4.300   0.431 -0.4654 -0.4848  0.4500
 6305TIP3   OH240329   0.312   6.310  12.612  0.1672  0.2409 -0.0474
 6305TIP3    H140330   0.251   6.383  12.598  0.7265  0.6397 -0.4316
 6305TIP3    H240331   0.399   6.347  12.596  0.5096 -0.3500  0.3909
 6306TIP3   OH240332   1.633   4.198  11.925  0.1187 -0.3600 -0.7811
 6306TIP3    H140333   1.674   4.113  11.910 -0.1420 -0.5914 -0.2207
 6306TIP3    H240334   1.592   4.190  12.011 -0.0270  0.2884 -0.7842
 6307TIP3   OH240335   3.014   0.381   3.883  0.6873 -0.4549 -0.1074
 6307TIP3    H140336   3.031   0.439   3.957  3.5442 -0.6211 -0.5284
 6307TIP3    H240337   2.923   0.353   3.894 -0.1260  2.3809  1.2807
 6308TIP3   OH240338   2.783   2.209   3.483 -0.2443  0.1978 -0.0583
 6308TIP3    H140339   2.791   2.122   3.443 -0.6361 -0.2166  0.7326
 6308TIP3    H240340   2.871   2.245   3.479 -0.1684 -0.0528 -0.7980
 6309TIP3   OH240341   1.639   1.966   0.815 -0.0570 -0.0906  0.0080
 6309TIP3    H140342   1.648   2.060   0.803 -2.0406  0.3815  1.5675
 6309TIP3    H240343   1.711   1.927   0.765  1.5437  2.2938  0.3268
 6310TIP3   OH240344   2.063   1.078  15.866 -0.2325  0.0025 -0.1715
 6310TIP3    H140345   2.084   1.030  15.945  1.2009  0.0036 -0.5299
 6310TIP3    H240346   2.037   1.165  15.896 -1.3544 -0.5033  0.3780
 6311TIP3   OH240347   5.024   5.318   5.393 -0.5122  0.3013  0.1866
 6311TIP3    H140348   4.958   5.376   5.431 -1.1229  1.9333 -3.0141
 6311TIP3    H240349   5.103   5.371   5.388 -0.5935  0.3209 -1.2027
 6312TIP3   OH240350   5.823   5.617  14.164 -0.0938  0.1889 -0.8905
 6312TIP3    H140351   5.890   5.649  14.105  0.1012  1.5643  0.0254
 6312TIP3    H240352   5.799   5.531  14.129  2.0307 -0.2947 -1.3135
 6313TIP3   OH240353   1.178   0.566   2.135 -0.5315  0.1711  0.4779
 6313TIP3    H140354   1.119   0.549   2.062 -1.2616  1.9355  0.6323
 6313TIP3    H240355   1.208   0.656   2.122  1.1387 -0.2424  1.1177
 6314TIP3   OH240356   4.752   4.930  16.784 -0.2321  0.1547  0.0626
 6314TIP3    H140357   4.702   4.849  16.769  0.3837 -0.0660 -0.8693
 6314TIP3    H240358   4.732   4.985  16.708 -1.1805  1.1824  1.0090
 6315TIP3   OH240359   2.507   6.149   0.385 -0.0362  0.4625 -0.6489
 6315TIP3    H140360   2.560   6.219   0.423  1.5175  0.1428 -2.0897
 6315TIP3    H240361   2.571   6.081   0.363 -1.6754 -2.6379  2.9734
 6316TIP3   OH240362   1.128   0.778   4.771 -0.3962 -0.2168  0.0563
 6316TIP3    H140363   1.158   0.791   4.681  1.7186  0.3877  0.7844
 6316TIP3    H240364   1.115   0.867   4.806  1.6189 -0.2912  1.1668
 6317TIP3   OH240365   3.518   1.244  15.649 -0.1450  0.7317  0.3512
 6317TIP3    H140366   3.520   1.216  15.557  0.0830  2.1099 -0.0807
 6317TIP3    H240367   3.607   1.229  15.680  0.2664  1.9555 -0.1943
 6318TIP3   OH240368   2.455   0.010   2.395  0.2625  0.1103  0.1711
 6318TIP3    H140369   2.467  -0.032   2.310  0.8674  1.2284 -0.3177
 6318TIP3    H240370   2.367   0.048   2.390  0.5756  0.8062 -0.2591
 6319TIP3   OH240371   3.154   4.273   3.315 -0.6395 -0.0958  0.3337
 6319TIP3    H140372   3.226   4.330   3.345 -0.2262 -0.1000 -0.6317
 6319TIP3    H240373   3.133   4.220   3.392  0.2387  0.0670  0.7038
 6320TIP3   OH240374   3.586   4.563   3.892 -0.2146  0.4357  0.5210
 6320TIP3    H140375   3.524   4.598   3.828  1.1583  1.5723 -0.2546
 6320TIP3    H240376   3.572   4.468   3.890 -1.1986  0.5792 -0.3732
 6321TIP3   OH240377   5.688   5.950  12.129  0.7175 -0.0466  0.2351
 6321TIP3    H140378   5.670   6.009  12.055 -0.0214  0.9948  1.2129
 6321TIP3    H240379   5.757   5.994  12.179 -0.2873  0.3363  1.3214
 6322TIP3   OH240380   6.034   3.917  14.632  0.1260  0.4584  0.3966
 6322TIP3    H140381   5.970   3.944  14.698 -1.8819 -0.9668 -0.8729
 6322TIP3    H240382   6.047   3.824  14.648  1.5275  0.6117  0.2868
 6323TIP3   OH240383   4.622   5.251  16.147 -0.6634  0.1454  0.2671
 6323TIP3    H140384   4.577   5.257  16.232  2.8837 -0.9159  2.4488
 6323TIP3    H240385   4.664   5.337  16.137  0.5102 -0.3627  0.6446
 6324TIP3   OH240386   5.067   3.876  15.838 -0.0579 -0.3833  0.1575
 6324TIP3    H140387   5.043   3.874  15.745 -0.6827 -0.8045  0.3167
 6324TIP3    H240388   4.990   3.910  15.882  0.6928  1.0496  0.4072
 6325TIP3   OH240389   1.665   5.443   3.768 -0.8526 -0.0737 -0.3545
 6325TIP3    H140390   1.711   5.360   3.780 -0.1441  0.4056  0.3708
 6325TIP3    H240391   1.574   5.423   3.790 -0.0740  0.1679  4.0444
 6326TIP3   OH240392   2.279   0.060   5.163 -0.1315  0.0454  0.7863
 6326TIP3    H140393   2.195   0.052   5.209 -0.0579  0.2273  0.9533
 6326TIP3    H240394   2.342   0.016   5.221  0.3539  2.0851  1.9082
 6327TIP3   OH240395   0.914   1.684  16.353 -0.0197  0.0776  0.1198
 6327TIP3    H140396   0.990   1.626  16.357 -0.6258 -0.6934  0.6557
 6327TIP3    H240397   0.869   1.657  16.273 -0.9171 -0.9999  0.9571
 6328TIP3   OH240398   5.390   1.580   4.858 -0.7978 -0.3208  0.3594
 6328TIP3    H140399   5.345   1.571   4.774 -1.5261  1.1529  0.5480
 6328TIP3    H240400   5.449   1.505   4.862 -0.2780 -0.0937 -1.7508
 6329TIP3   OH240401   2.467   4.318  12.539  0.1515  0.0304  0.5393
 6329TIP3    H140402   2.385   4.296  12.582  0.1779  0.3570  0.7634
 6329TIP3    H240403   2.522   4.353  12.609  0.5584 -0.3788  0.4324
 6330TIP3   OH240404   1.735   3.392  15.526  0.2817  0.1037  0.2123
 6330TIP3    H140405   1.783   3.475  15.521  3.0661 -1.3632  0.1810
 6330TIP3    H240406   1.692   3.384  15.441  2.6045  0.1610 -1.0773
 6331TIP3   OH240407   0.021   5.926  14.004 -0.4059 -0.6268 -0.2359
 6331TIP3    H140408   0.020   5.844  14.054 -0.9148  0.0885  0.9766
 6331TIP3    H240409   0.097   5.974  14.039 -0.0212 -0.6339 -1.0459
 6332TIP3   OH240410   0.047   0.572   4.504  0.1681 -0.3251  0.3522
 6332TIP3    H140411   0.091   0.657   4.499  1.4374 -0.7990  2.1100
 6332TIP3    H240412  -0.028   0.587   4.562  0.6232 -0.4508  0.9942
 6333TIP3   OH240413   1.605   1.845  12.491 -0.2190 -0.0486  0.3560
 6333TIP3    H140414   1.543   1.785  12.533 -0.4599 -0.3576 -0.4386
 6333TIP3    H240415   1.550   1.913  12.453  0.0787  1.1039  1.8497
 6334TIP3   OH240416   0.351   0.732   2.070 -0.2683 -0.2928 -0.5839
 6334TIP3    H140417   0.360   0.822   2.102  3.1538 -0.2754 -1.2219
 6334TIP3    H240418   0.287   0.692   2.129 -1.0986  2.2479  0.3744
 6335TIP3   OH240419   0.590   3.678   3.060 -0.3764  0.1785 -0.1443
 6335TIP3    H140420   0.600   3.772   3.073 -0.0167  0.3256 -1.3511
 6335TIP3    H240421   0.497   3.667   3.039 -0.4366  0.2437  0.0813
 6336TIP3   OH240422   6.484   3.721  14.406  0.7365 -0.2987 -0.3086
 6336TIP3    H140423   6.504   3.766  14.324  1.3495 -2.9106 -1.6978
 6336TIP3    H240424   6.569   3.699  14.443  0.4799 -1.7668 -0.5455
 6337TIP3   OH240425   4.894   1.778   5.241 -0.1862 -0.3974  0.0741
 6337TIP3    H140426   4.969   1.836   5.229 -0.4896 -0.1120 -0.4799
 6337TIP3    H240427   4.822   1.823   5.197 -0.4230 -1.1907 -0.3674
 6338TIP3   OH240428   6.055   3.959   5.698  0.2341  0.4827 -0.5412
 6338TIP3    H140429   6.076   3.874   5.737  5.8109  0.7798 -2.0001
 6338TIP3    H240430   6.054   3.942   5.604 -1.3055  1.7000 -0.7881
 6339TIP3   OH240431   3.982   0.799  14.276  0.0327  0.1049  0.0231
 6339TIP3    H140432   3.995   0.746  14.354  0.8002  1.0482  0.5633
 6339TIP3    H240433   3.967   0.888  14.309 -0.8900  0.3115 -0.8644
 6340TIP3   OH240434   5.484   6.489   4.255  0.4746 -0.1226  0.7132
 6340TIP3    H140435   5.504   6.569   4.206 -0.1646  0.3016  1.1399
 6340TIP3    H240436   5.555   6.482   4.319 -0.5172  1.2132  2.0211
 6341TIP3   OH240437   0.761   5.619   4.847 -0.6357  0.4496 -0.0647
 6341TIP3    H140438   0.781   5.543   4.901  0.9906 -0.3006 -1.6439
 6341TIP3    H240439   0.753   5.584   4.758  1.4452  2.2225 -1.0431
 6342TIP3   OH240440   5.941   1.466   4.613  0.7554 -0.0090  0.1374
 6342TIP3    H140441   5.956   1.455   4.707 -1.9299  0.1621  0.6741
 6342TIP3    H240442   5.950   1.378   4.577 -0.1306 -0.4259  0.8994
 6343TIP3   OH240443   2.287   4.224  16.979 -0.4867  0.1783  0.2753
 6343TIP3    H140444   2.352   4.291  16.956  0.7737 -1.1554 -0.2171
 6343TIP3    H240445   2.301   4.154  16.915 -0.4204 -1.4055  1.9271
 6344TIP3   OH240446   2.576   0.606   4.749 -0.1363 -0.2297  0.1657
 6344TIP3    H140447   2.605   0.681   4.801  1.0237  0.6785 -1.7025
 6344TIP3    H240448   2.656   0.557   4.729 -0.6264 -0.8527 -0.3245
 6345TIP3   OH240449   1.326   2.764  15.468  0.2333 -0.2610  0.0801
 6345TIP3    H140450   1.401   2.738  15.415 -0.0808 -1.9406  0.3946
 6345TIP3    H240451   1.287   2.682  15.497 -1.0969  0.5848  0.8269
 6346TIP3   OH240452   3.668   0.449  11.490 -0.4407 -0.5984  0.2852
 6346TIP3    H140453   3.751   0.470  11.532 -0.7545 -0.6130  0.9253
 6346TIP3    H240454   3.667   0.503  11.411 -0.9731  1.4066  1.5879
 6347TIP3   OH240455   0.495   4.515   4.402  0.1877  0.1428  0.2720
 6347TIP3    H140456   0.527   4.448   4.462  1.8644  2.0966  1.6903
 6347TIP3    H240457   0.527   4.597   4.439 -3.7511  2.0338 -0.0459
 6348TIP3   OH240458   5.004   0.697  16.444  0.1702 -0.2553 -0.6842
 6348TIP3    H140459   5.017   0.614  16.398 -0.7580 -0.5376 -0.4559
 6348TIP3    H240460   4.968   0.756  16.378  0.1602 -0.2470 -0.6716
 6349TIP3   OH240461   4.199   1.629  15.218 -0.7893 -0.6804 -0.3075
 6349TIP3    H140462   4.261   1.588  15.157 -1.6557 -2.0690 -0.2991
 6349TIP3    H240463   4.238   1.714  15.237 -0.3841 -0.2555 -2.6556
 6350TIP3   OH240464   6.170   0.578  15.033 -0.1766  0.1419 -0.2200
 6350TIP3    H140465   6.244   0.517  15.030 -1.3028 -1.2562 -0.6633
 6350TIP3    H240466   6.140   0.583  14.942 -0.7187  0.5742 -0.0215
 6351TIP3   OH240467   1.033   4.435  11.385  0.0675 -1.2893  0.3417
 6351TIP3    H140468   0.979   4.450  11.308 -1.7884  1.7629  2.0329
 6351TIP3    H240469   0.986   4.478  11.456  3.9872  0.3612  2.2458
 6352TIP3   OH240470   6.797   1.677  17.079 -0.0324 -0.2008  0.3487
 6352TIP3    H140471   6.778   1.756  17.130  0.5358 -0.5217  1.0731
 6352TIP3    H240472   6.717   1.661  17.028 -0.1817  0.7851  0.2591
 6353TIP3   OH240473   5.951   4.455   5.732  0.1362 -0.7018  0.2406
 6353TIP3    H140474   5.945   4.514   5.657  1.4797 -0.4518  0.3200
 6353TIP3    H240475   5.966   4.513   5.807 -1.1632 -0.9508  0.7210
 6354TIP3   OH240476   4.518   3.840  14.834 -0.0338 -0.1030 -0.3789
 6354TIP3    H140477   4.456   3.897  14.880  0.9813  0.5814  0.1775
 6354TIP3    H240478   4.509   3.864  14.742  0.3776  0.9602 -0.1487
 6355TIP3   OH240479   1.883   2.166  14.068  0.8372 -0.2898 -0.3296
 6355TIP3    H140480   1.877   2.128  14.155  3.1708 -0.7255 -0.2935
 6355TIP3    H240481   1.818   2.118  14.016 -1.1904  0.5613  1.3106
 6356TIP3   OH240482   6.777   5.161  15.891  0.6529 -0.0656 -0.1646
 6356TIP3    H140483   6.697   5.213  15.897  0.6201 -0.1840  0.4923
 6356TIP3    H240484   6.848   5.225  15.889  0.5386  0.0578 -1.1824
 6357TIP3   OH240485   0.620   2.113   3.237  0.2750 -0.5995  0.1509
 6357TIP3    H140486   0.586   2.201   3.222 -1.3367 -1.1047  0.6619
 6357TIP3    H240487   0.611   2.100   3.332 -1.5569 -2.0828 -0.1637
 6358TIP3   OH240488   3.219   0.393   3.133  0.2889  0.4730  0.2430
 6358TIP3    H140489   3.246   0.329   3.199 -1.0496  0.1457  0.4841
 6358TIP3    H240490   3.299   0.443   3.115  0.4003  1.4567  3.0778
 6359TIP3   OH240491   5.018   1.334   4.730 -0.1425  0.0709 -0.1871
 6359TIP3    H140492   5.069   1.311   4.653 -1.2054  0.9404 -1.1944
 6359TIP3    H240493   4.971   1.414   4.705 -0.2547  0.5680  1.4823
 6360TIP3   OH240494   6.515   5.159  15.733  0.2136  0.5842  0.1064
 6360TIP3    H140495   6.516   5.159  15.829 -0.4352 -0.1064  0.1242
 6360TIP3    H240496   6.565   5.081  15.709  0.0096  0.5221 -0.1139
 6361TIP3   OH240497   5.179   1.208   3.392  0.6601  0.0356 -0.4217
 6361TIP3    H140498   5.086   1.189   3.383 -0.0103  2.0870  1.4830
 6361TIP3    H240499   5.218   1.175   3.311 -1.3330 -2.8713 -0.3623
 6362TIP3   OH240500   5.090   3.523  12.354  0.3162  0.4830 -0.1291
 6362TIP3    H140501   5.160   3.581  12.383 -0.5513  1.9632 -0.8403
 6362TIP3    H240502   5.014   3.581  12.343 -0.2791 -0.5461 -2.0295
 6363TIP3   OH240503   1.406   0.930   1.535 -0.1416 -0.0161  0.3010
 6363TIP3    H140504   1.450   0.970   1.460  2.0966  0.5190  1.8091
 6363TIP3    H240505   1.349   0.863   1.497  0.9739  0.1880 -1.8604
 6364TIP3   OH240506   3.061   6.219   0.396  0.0653 -0.0641  0.3197
 6364TIP3    H140507   3.138   6.164   0.378 -1.2410 -1.3952 -1.6619
 6364TIP3    H240508   3.020   6.230   0.310 -1.6308  1.1384  1.2322
 6365TIP3   OH240509   5.913   6.738   5.186 -0.4167  0.1337  0.5316
 6365TIP3    H140510   5.919   6.729   5.091  1.2348  0.3935  0.5961
 6365TIP3    H240511   5.833   6.690   5.209 -0.7487 -0.0772 -0.9552
 6366TIP3   OH240512   6.176   0.082  11.979 -0.3999 -0.6621 -0.1216
 6366TIP3    H140513   6.154   0.094  11.887 -0.8737  0.2760  0.1069
 6366TIP3    H240514   6.127   0.004  12.005 -0.9503 -0.4234 -0.4358
 6367TIP3   OH240515   6.069   1.269  12.457  0.3288  0.3383 -0.1229
 6367TIP3    H140516   6.022   1.189  12.436  2.3502 -1.0817  0.4653
 6367TIP3    H240517   6.051   1.327  12.383 -1.8647 -0.2880 -0.1561
 6368TIP3   OH240518   2.158   6.173   3.225  0.2986  0.0849 -0.5634
 6368TIP3    H140519   2.095   6.240   3.250  0.2489 -0.1264 -0.1133
 6368TIP3    H240520   2.211   6.214   3.156 -0.9026 -0.0390 -1.6006
 6369TIP3   OH240521   6.276   1.300   1.930  0.0470 -0.5325  0.1293
 6369TIP3    H140522   6.304   1.211   1.951 -0.4468 -0.3561  1.6457
 6369TIP3    H240523   6.356   1.345   1.903  0.3962 -1.2794 -0.1020
 6370TIP3   OH240524   0.393   0.151   2.805  0.6352 -0.1414  0.0846
 6370TIP3    H140525   0.324   0.207   2.769  0.9957  1.3839  1.6608
 6370TIP3    H240526   0.395   0.075   2.746 -1.7725  0.1763 -0.5017
 6371TIP3   OH240527   0.919   2.528  12.334  0.5974  0.1091  0.4621
 6371TIP3    H140528   1.004   2.556  12.298 -0.1060  2.2994  0.3351
 6371TIP3    H240529   0.856   2.592  12.298 -1.0282 -1.1248  1.0003
 6372TIP3   OH240530   2.034   3.047  14.386  0.1367 -0.9504 -0.1601
 6372TIP3    H140531   1.972   3.061  14.314 -0.8791 -1.5496  0.5609
 6372TIP3    H240532   2.118   3.079  14.353 -0.1535 -1.8051 -1.8557
 6373TIP3   OH240533   4.842   6.129   0.563 -0.0180 -0.2913  0.1936
 6373TIP3    H140534   4.795   6.055   0.602 -2.8522  0.9257 -0.6014
 6373TIP3    H240535   4.934   6.112   0.581 -0.6374 -3.4463  0.9453
 6374TIP3   OH240536   4.532   3.219  14.176 -0.1695 -0.0799  0.1700
 6374TIP3    H140537   4.609   3.214  14.233  0.3939  2.1351 -0.2908
 6374TIP3    H240538   4.567   3.203  14.088 -0.4061 -0.0605  0.0739
 6375TIP3   OH240539   2.592   5.609  14.867 -0.9301  0.5243 -0.0406
 6375TIP3    H140540   2.531   5.537  14.881  1.1968 -1.0962  1.6175
 6375TIP3    H240541   2.628   5.594  14.780  1.3115 -2.0435  1.1812
 6376TIP3   OH240542   3.399   6.556   2.479  0.0530  0.4140  0.3983
 6376TIP3    H140543   3.417   6.640   2.520  0.4734  1.4172 -1.7053
 6376TIP3    H240544   3.336   6.576   2.409  0.8646 -0.8355 -0.7461
 6377TIP3   OH240545   5.244   3.349  12.168  0.0446  0.2816 -0.2425
 6377TIP3    H140546   5.175   3.381  12.226  1.4725  1.3883  0.8940
 6377TIP3    H240547   5.289   3.428  12.138  0.2300 -0.3625 -1.7392
 6378TIP3   OH240548   6.344   5.803   0.066  0.0560  0.2454  0.4633
 6378TIP3    H140549   6.286   5.769   0.134  1.6954 -1.4329  1.1014
 6378TIP3    H240550   6.328   5.747  -0.010 -0.7024  1.1670 -0.0675
 6379TIP3   OH240551   4.294   6.402   4.679  0.0774  0.3260  0.7288
 6379TIP3    H140552   4.372   6.458   4.679  0.9222 -0.7475  2.9662
 6379TIP3    H240553   4.311   6.338   4.609  0.4978  1.0164  0.1890
 6380TIP3   OH240554   0.005   1.914   0.118 -0.3397 -0.0553  0.2035
 6380TIP3    H140555  -0.067   1.960   0.075 -0.1854 -0.7943 -0.8711
 6380TIP3    H240556   0.079   1.924   0.058  0.2131 -0.0670  0.8746
 6381TIP3   OH240557   3.720   2.920   0.823  0.2067  0.5285  0.4606
 6381TIP3    H140558   3.645   2.942   0.878  0.0554  0.3717  0.3178
 6381TIP3    H240559   3.755   2.840   0.861  0.0434  0.3666  0.2700
 6382TIP3   OH240560   2.472   5.579  14.364  0.3288  0.2588 -0.1601
 6382TIP3    H140561   2.497   5.493  14.328  1.8540 -0.2573  1.9085
 6382TIP3    H240562   2.456   5.562  14.456 -0.1619  2.0742  0.1189
 6383TIP3   OH240563   0.409   2.337   2.049  0.3929 -0.1409 -0.0404
 6383TIP3    H140564   0.475   2.342   2.118 -0.8086  1.0239  1.1028
 6383TIP3    H240565   0.408   2.424   2.010  0.5767 -0.5907 -1.0853
 6384TIP3   OH240566   3.426   5.209   0.516 -0.6151  0.3658 -0.4767
 6384TIP3    H140567   3.497   5.148   0.494 -1.2696 -0.0099 -1.5987
 6384TIP3    H240568   3.430   5.276   0.449 -0.2507  1.3039  0.4467
 6385TIP3   OH240569   2.529   6.136  11.997 -0.0673 -0.2178  0.2659
 6385TIP3    H140570   2.595   6.196  11.963  0.8368 -1.1750  0.2815
 6385TIP3    H240571   2.579   6.061  12.030 -1.1065 -0.5754  1.0920
 6386TIP3   OH240572   1.779   0.092   1.748 -0.1568  0.1206  0.4207
 6386TIP3    H140573   1.784   0.043   1.666 -1.4132 -0.3953  0.6309
 6386TIP3    H240574   1.870   0.099   1.777  0.1692 -1.0131 -0.2497
 6387TIP3   OH240575   0.612   4.520  11.373  0.0695 -0.0946  0.3315
 6387TIP3    H140576   0.565   4.439  11.394  1.1544 -0.4977  1.3273
 6387TIP3    H240577   0.556   4.590  11.406  0.1853 -0.5714  1.6000
 6388TIP3   OH240578   3.998   2.143  13.395 -0.3017  0.5642 -0.3212
 6388TIP3    H140579   3.950   2.218  13.359 -0.7277  0.0616 -0.8207
 6388TIP3    H240580   4.087   2.154  13.363 -0.9141 -0.5156 -2.6268
 6389TIP3   OH240581   6.787   4.479   2.529 -0.3387 -0.1362 -0.0755
 6389TIP3    H140582   6.876   4.453   2.551  0.0100  0.0952 -1.1596
 6389TIP3    H240583   6.731   4.417   2.576  0.4112 -0.7067  0.0691
 6390TIP3   OH240584   3.699   2.745   3.982  0.0076 -0.0961  0.5080
 6390TIP3    H140585   3.783   2.709   3.952 -0.5224 -0.2830 -0.7986
 6390TIP3    H240586   3.691   2.713   4.072  1.7294  0.6428  0.9606
 6391TIP3   OH240587   6.515   0.145  13.710 -0.4870 -0.7480 -0.1011
 6391TIP3    H140588   6.496   0.210  13.777 -0.5161  0.0355 -0.8480
 6391TIP3    H240589   6.533   0.064  13.758  2.1041  0.3948  0.9898
 6392TIP3   OH240590   3.205   5.436   1.423  0.4341 -0.2872  0.8304
 6392TIP3    H140591   3.282   5.380   1.437  0.9088  0.2604  0.4478
 6392TIP3    H240592   3.229   5.520   1.461 -0.3156 -0.3583  1.4848
 6393TIP3   OH240593   3.515   0.817  13.800 -0.0856  0.2619  0.1848
 6393TIP3    H140594   3.592   0.781  13.757 -0.1940  0.2919 -0.0378
 6393TIP3    H240595   3.543   0.902  13.833 -0.9804  2.0376 -3.1333
 6394TIP3   OH240596   5.990   2.408   3.124  0.5198  0.0102 -0.3169
 6394TIP3    H140597   5.912   2.380   3.076  0.3831  1.0851 -0.7334
 6394TIP3    H240598   5.959   2.478   3.181  0.8186 -0.7861  0.8811
 6395TIP3   OH240599   6.602   0.339  11.941  0.1839 -0.2653  0.6633
 6395TIP3    H140600   6.682   0.294  11.915  1.1521  1.5680  0.2918
 6395TIP3    H240601   6.631   0.403  12.007 -1.5428 -1.9282  3.2558
 6396TIP3   OH240602   2.330   6.721   4.638  0.3452  0.0883 -0.1687
 6396TIP3    H140603   2.269   6.791   4.661  0.5485 -0.0075  0.7178
 6396TIP3    H240604   2.394   6.722   4.709  0.9263 -0.3348 -0.6763
 6397TIP3   OH240605   4.313   5.588  10.170 -0.1799 -0.1625 -0.6866
 6397TIP3    H140606   4.236   5.537  10.144 -1.0898  0.0103  1.4583
 6397TIP3    H240607   4.368   5.525  10.217 -0.1016  0.2317 -0.2447
 6398TIP3   OH240608   3.337   0.015   5.452  0.0061  0.1935  0.6929
 6398TIP3    H140609   3.305   0.095   5.409  1.1684 -1.3556 -3.5652
 6398TIP3    H240610   3.379  -0.035   5.381  1.4633 -3.1315  3.6160
 6399TIP3   OH240611   3.402   4.166  15.949 -0.6602 -0.0662  0.3732
 6399TIP3    H140612   3.348   4.190  16.024 -1.9904 -2.9152  0.4615
 6399TIP3    H240613   3.478   4.123  15.988  0.3872  1.5070  0.1442
 6400TIP3   OH240614   5.401   3.097  13.617  0.8213  0.0750 -0.3216
 6400TIP3    H140615   5.373   3.156  13.687  1.7832 -0.6349  0.7074
 6400TIP3    H240616   5.348   3.019  13.629  0.0003  0.4791 -1.2792
 6401TIP3   OH240617   1.779   5.822   2.043  0.2284 -0.2710 -0.1880
 6401TIP3    H140618   1.735   5.820   1.958 -0.2515 -1.1939  0.0734
 6401TIP3    H240619   1.776   5.914   2.069 -1.4239 -0.2875 -0.2436
 6402TIP3   OH240620   2.967   2.708  15.370  0.0277  0.1123  0.0770
 6402TIP3    H140621   3.062   2.712  15.375  0.0023 -1.0072  3.0126
 6402TIP3    H240622   2.937   2.794  15.400  0.0397  0.9725 -2.1683
 6403TIP3   OH240623   2.196   3.621   4.040 -0.4479 -0.1949  0.3413
 6403TIP3    H140624   2.171   3.549   4.097 -0.8034 -0.8558 -0.6205
 6403TIP3    H240625   2.210   3.695   4.099 -3.2066 -0.1638  1.0907
 6404TIP3   OH240626   3.781   0.162   1.528  0.0228  0.1244 -0.0226
 6404TIP3    H140627   3.825   0.207   1.456  0.0509  0.4027  0.1687
 6404TIP3    H240628   3.846   0.161   1.598  1.6183 -3.7530 -1.2626
 6405TIP3   OH240629   3.836   2.684  15.853 -0.1734  0.1451 -0.2012
 6405TIP3    H140630   3.774   2.748  15.820 -1.0124 -0.0288  0.9668
 6405TIP3    H240631   3.887   2.658  15.776 -1.3760  0.4805 -1.1490
 6406TIP3   OH240632   6.109   2.101   0.347 -0.2234  0.2292  0.1117
 6406TIP3    H140633   6.092   2.195   0.339  2.5512  0.7203 -0.7987
 6406TIP3    H240634   6.057   2.062   0.277 -0.4014  1.2302 -0.3409
 6407TIP3   OH240635   3.031   5.233  10.414  0.4868 -0.3978 -0.7054
 6407TIP3    H140636   2.938   5.237  10.437  0.4231 -1.2020 -0.8163
 6407TIP3    H240637   3.067   5.165  10.471  1.5855  1.6909  1.2695
 6408TIP3   OH240638   5.132   3.653   1.022 -0.0695 -0.5336  0.2918
 6408TIP3    H140639   5.183   3.695   0.953 -0.5531  0.3147  0.4252
 6408TIP3    H240640   5.183   3.667   1.102  0.1285 -0.8555  0.2221
 6409TIP3   OH240641   3.484   1.025   3.618 -0.4583 -0.1844 -0.0613
 6409TIP3    H140642   3.525   0.966   3.555 -1.0807  1.0717 -1.7187
 6409TIP3    H240643   3.535   1.014   3.698  0.8115 -1.3279 -0.9772
 6410TIP3   OH240644   4.661   6.624  15.966 -0.1275  0.4585 -0.5024
 6410TIP3    H140645   4.708   6.569  16.029 -0.9293  1.6251  1.2041
 6410TIP3    H240646   4.618   6.562  15.907 -1.3595 -0.7986  1.6152
 6411TIP3   OH240647   3.255   1.996   5.723  0.5279 -0.3553 -0.9427
 6411TIP3    H140648   3.298   1.944   5.791 -1.0501 -1.2335 -0.5775
 6411TIP3    H240649   3.305   1.976   5.643  3.2598  1.7099  0.0838
 6412TIP3   OH240650   2.248   2.572  12.403  0.8122 -0.6982  0.2779
 6412TIP3    H140651   2.266   2.478  12.409 -1.0429 -1.0421  1.6039
 6412TIP3    H240652   2.170   2.585  12.458 -1.4172  0.9372 -2.9210
 6413TIP3   OH240653   6.593   2.300   2.900  0.8875  0.0172 -0.1862
 6413TIP3    H140654   6.665   2.297   2.837  1.5412 -1.7053  0.5975
 6413TIP3    H240655   6.607   2.225   2.957 -0.7986  0.4081  0.8193
 6414TIP3   OH240656   0.685   3.710   0.322  0.3046 -0.2508 -0.0018
 6414TIP3    H140657   0.775   3.692   0.348 -0.0632  0.8862  2.2999
 6414TIP3    H240658   0.633   3.688   0.399 -1.3251 -0.2066 -1.0455
 6415TIP3   OH240659   3.370   4.627   3.719  0.5657 -0.3858 -0.3465
 6415TIP3    H140660   3.313   4.555   3.744  0.8291 -0.8476 -1.0570
 6415TIP3    H240661   3.350   4.643   3.626 -0.0522  0.9715 -0.0158
 6416TIP3   OH240662   0.257   3.455  15.848 -0.6248  0.1351 -0.4018
 6416TIP3    H140663   0.343   3.415  15.838 -0.3348  0.6626 -0.0508
 6416TIP3    H240664   0.240   3.497  15.763  0.3352  1.6945  0.1269
 6417TIP3   OH240665   3.250   4.793   3.485  0.4301  0.3059  0.7857
 6417TIP3    H140666   3.186   4.851   3.528 -1.3177 -0.2532 -0.9140
 6417TIP3    H240667   3.268   4.835   3.401  1.3523 -0.2026  0.7121
 6418TIP3   OH240668   4.297   3.230  12.327  0.0231  0.3884  0.3956
 6418TIP3    H140669   4.278   3.148  12.283  0.4126  1.1653 -1.3133
 6418TIP3    H240670   4.388   3.250  12.303 -0.6630  2.2543 -0.8567
 6419TIP3   OH240671   3.948   3.999   1.093  0.4750 -0.3044  0.0011
 6419TIP3    H140672   3.861   4.040   1.090 -0.1084 -1.5372 -1.1516
 6419TIP3    H240673   3.987   4.021   1.008 -0.5391 -3.4229 -1.4322
 6420TIP3   OH240674   0.055   3.702  12.281 -0.5472 -0.2074  0.2718
 6420TIP3    H140675   0.108   3.665  12.351  0.6489  3.4645  1.5447
 6420TIP3    H240676   0.108   3.692  12.202  0.4552  0.2203  0.8772
 6421TIP3   OH240677   1.418   5.060   5.312  0.3282 -0.1731 -0.2326
 6421TIP3    H140678   1.350   5.072   5.247  1.3056  1.4457 -1.0281
 6421TIP3    H240679   1.372   5.029   5.390 -1.5844  2.2423 -0.2643
 6422TIP3   OH240680   0.081   0.940  12.449 -0.1005  0.2032 -0.0281
 6422TIP3    H140681   0.072   0.845  12.443 -1.0151  0.1223  1.8720
 6422TIP3    H240682  -0.007   0.971  12.470  0.4304  1.3511  0.5650
 6423TIP3   OH240683   5.917   0.436   3.597 -0.7292  0.4577  0.1643
 6423TIP3    H140684   5.916   0.437   3.692  1.3362  0.6549  0.2207
 6423TIP3    H240685   5.880   0.351   3.573  1.1152 -0.7074  1.2427
 6424TIP3   OH240686   0.785   0.059  16.517  0.1859 -0.3137 -0.3291
 6424TIP3    H140687   0.868   0.096  16.486 -0.2521  0.0450 -1.0716
 6424TIP3    H240688   0.749   0.127  16.575  0.8321 -0.8398  0.7313
 6425TIP3   OH240689   3.702   6.212  16.568  0.4193  0.5973  0.3206
 6425TIP3    H140690   3.734   6.127  16.599  0.7509 -0.2522 -2.1462
 6425TIP3    H240691   3.777   6.271  16.579  0.3208  0.4931  1.6603
 6426TIP3   OH240692   3.043   2.246   4.091  0.5231  0.2878  0.0224
 6426TIP3    H140693   2.975   2.189   4.055 -1.0516  0.4961  2.4305
 6426TIP3    H240694   3.119   2.188   4.103 -0.4886 -0.9382  0.8364
 6427TIP3   OH240695   1.963   1.670   5.493  0.2298  0.4202 -0.0958
 6427TIP3    H140696   1.970   1.615   5.571 -0.7761  0.6151  0.1395
 6427TIP3    H240697   1.978   1.610   5.420  2.6804  0.4934  0.2508
 6428TIP3   OH240698   6.595   4.865  12.590 -0.3756  0.7108 -0.2208
 6428TIP3    H140699   6.658   4.916  12.641 -0.6869  0.4408  0.4400
 6428TIP3    H240700   6.533   4.929  12.556 -0.8019  0.7725  0.6576
 6429TIP3   OH240701   3.459   5.940   4.230  0.4808  0.3375 -0.1830
 6429TIP3    H140702   3.439   5.846   4.227 -1.2330  0.6273  1.0218
 6429TIP3    H240703   3.374   5.982   4.243  0.7669  2.3069 -3.4864
 6430TIP3   OH240704   5.470   2.452  12.629 -1.0487 -0.2021 -0.2576
 6430TIP3    H140705   5.526   2.485  12.559 -1.4376  1.2900  0.1071
 6430TIP3    H240706   5.490   2.508  12.704 -0.9213 -1.5187  0.7265
 6431TIP3   OH240707   2.018   5.531  13.562 -0.2968  0.2453 -0.2653
 6431TIP3    H140708   1.961   5.586  13.507 -2.8099 -1.7760  0.1329
 6431TIP3    H240709   2.042   5.458  13.506  0.2611  0.0641  0.2054
 6432TIP3   OH240710   2.060   0.271  12.796  0.7911  0.3314  0.1892
 6432TIP3    H140711   2.113   0.246  12.720 -0.5084 -0.0707 -0.6248
 6432TIP3    H240712   2.105   0.232  12.870  1.5304 -0.1551 -0.4962
 6433TIP3   OH240713   5.103   0.290  11.226 -0.0124 -0.3459 -0.6604
 6433TIP3    H140714   5.148   0.239  11.293  0.1083  1.9676  1.1695
 6433TIP3    H240715   5.155   0.277  11.147  1.3530 -1.1600  0.3270
 6434TIP3   OH240716   2.428   3.083  13.417  0.2209 -0.4084  0.1722
 6434TIP3    H140717   2.360   3.037  13.467 -2.5146  0.4651 -2.3895
 6434TIP3    H240718   2.407   3.176  13.430  0.8295 -0.1300 -0.7889
 6435TIP3   OH240719   6.781   2.792   6.312 -0.5619  0.1560  0.3320
 6435TIP3    H140720   6.709   2.789   6.375 -1.9231  1.6020 -1.0606
 6435TIP3    H240721   6.752   2.854   6.246  0.6899 -1.4724 -1.8731
 6436TIP3   OH240722   0.872   0.627  13.200 -0.8603  0.4585 -0.3578
 6436TIP3    H140723   0.897   0.634  13.108  3.2026  0.4310  0.5521
 6436TIP3    H240724   0.805   0.558  13.201 -1.6610  1.0515 -3.3142
 6437TIP3   OH240725   5.235   6.385   6.401 -0.3741 -0.3562 -0.2955
 6437TIP3    H140726   5.260   6.320   6.467 -0.0036  1.4077  1.4026
 6437TIP3    H240727   5.140   6.374   6.391 -0.3272 -1.1059  0.0372
 6438TIP3   OH240728   1.462   5.502   4.807  0.2269  0.2253 -0.3466
 6438TIP3    H140729   1.542   5.550   4.826 -0.5270  0.9913  0.9887
 6438TIP3    H240730   1.397   5.569   4.787 -0.0635 -0.3972 -1.6574
 6439TIP3   OH240731   1.350   3.892   1.953 -0.4455 -0.2464  0.7905
 6439TIP3    H140732   1.349   3.901   2.048 -0.7061  0.7090  0.7108
 6439TIP3    H240733   1.344   3.982   1.920  0.8640 -0.4506 -0.1265
 6440TIP3   OH240734   6.282   4.178  12.919 -0.0601  0.1764 -0.0838
 6440TIP3    H140735   6.192   4.194  12.892 -0.3201  1.3829  1.3524
 6440TIP3    H240736   6.290   4.221  13.004  1.4955 -1.0740  0.4524
 6441TIP3   OH240737   0.167   3.837   4.091 -0.6340  0.3325  0.4970
 6441TIP3    H140738   0.205   3.892   4.023  0.0128  0.7297  1.1683
 6441TIP3    H240739   0.149   3.897   4.163  0.2705 -0.3575  1.3152
 6442TIP3   OH240740   6.358   5.601   5.232 -0.0953 -0.2237  0.5903
 6442TIP3    H140741   6.367   5.565   5.143 -2.3980  0.2007  0.1189
 6442TIP3    H240742   6.388   5.691   5.224 -1.5361  0.2257 -0.1353
 6443TIP3   OH240743   4.437   1.128   3.462  0.3760 -0.1624  0.4928
 6443TIP3    H140744   4.500   1.167   3.400  0.4432 -0.0915  0.6047
 6443TIP3    H240745   4.371   1.196   3.474 -0.4510 -0.7409 -0.6722
 6444TIP3   OH240746   4.803   5.379   1.184  0.1816  0.1548  0.2237
 6444TIP3    H140747   4.885   5.390   1.136 -0.2863  0.0587 -0.6191
 6444TIP3    H240748   4.740   5.350   1.118 -0.1652 -1.2915  1.1365
 6445TIP3   OH240749   1.612   4.983   1.532 -0.1609  0.4626 -0.4112
 6445TIP3    H140750   1.692   4.946   1.570 -0.4701  1.1148  0.9454
 6445TIP3    H240751   1.634   5.001   1.441  1.4573  1.2398  0.1011
 6446TIP3   OH240752   2.876   2.802  13.028 -0.3544  0.4781 -0.2607
 6446TIP3    H140753   2.834   2.858  12.964 -0.8843  0.0623 -0.2803
 6446TIP3    H240754   2.876   2.715  12.988 -3.2257 -0.4131  1.3606
 6447TIP3   OH240755   4.795   4.448   4.526 -0.7663 -0.4168  0.3928
 6447TIP3    H140756   4.847   4.514   4.481  1.6848 -2.6206 -0.2715
 6447TIP3    H240757   4.832   4.443   4.614 -0.9346 -0.8775  0.4427
 6448TIP3   OH240758   2.298   1.031   0.533  0.0895 -0.4099  0.2150
 6448TIP3    H140759   2.383   1.042   0.489 -0.4490  1.1576 -0.4968
 6448TIP3    H240760   2.319   1.038   0.626  0.8988 -1.2871  0.1190
 6449TIP3   OH240761   6.322   5.885  15.936  1.1569  0.1283 -0.5851
 6449TIP3    H140762   6.333   5.872  15.842 -1.4703  2.0527 -1.2774
 6449TIP3    H240763   6.293   5.976  15.944 -1.2485 -0.7383  1.7993
 6450TIP3   OH240764   5.246   3.455  12.919  0.2618 -0.2272  0.3281
 6450TIP3    H140765   5.298   3.512  12.977  1.1501  0.1679 -0.8126
 6450TIP3    H240766   5.286   3.466  12.833  2.9671 -5.3233  0.5589
 6451TIP3   OH240767   2.024   4.907   3.391  0.3660 -0.3990 -0.3622
 6451TIP3    H140768   2.075   4.947   3.320 -1.1506  2.3457 -0.0616
 6451TIP3    H240769   2.052   4.953   3.470  0.9066 -2.3437  0.6606
 6452TIP3   OH240770   5.138   1.268  15.178  0.4845  0.0211 -0.4836
 6452TIP3    H140771   5.142   1.257  15.083  2.3076  0.9408 -0.5545
 6452TIP3    H240772   5.054   1.312  15.193  0.9190  1.4310 -1.8796
 6453TIP3   OH240773   1.048   6.597  11.737 -0.1125 -0.0546  0.6134
 6453TIP3    H140774   1.000   6.539  11.797 -0.3878 -0.1809  0.2744
 6453TIP3    H240775   1.138   6.563  11.739 -0.2780 -0.5142  0.3972
 6454TIP3   OH240776   5.527   4.670   4.697  0.2328  0.5022  0.2071
 6454TIP3    H140777   5.509   4.633   4.784 -0.5203  1.7997  0.6297
 6454TIP3    H240778   5.462   4.628   4.640  0.4464 -0.0309  0.3481
 6455TIP3   OH240779   2.961   2.540  12.980  0.4250  0.2058 -0.4533
 6455TIP3    H140780   3.019   2.467  13.000  0.0712  0.7381  3.1218
 6455TIP3    H240781   2.873   2.507  12.998  0.2489  1.4251  1.0884
 6456TIP3   OH240782   4.260   5.939  15.111 -0.0735 -0.2430  0.3074
 6456TIP3    H140783   4.294   6.028  15.102 -0.8135  0.3068  2.3986
 6456TIP3    H240784   4.171   5.950  15.144 -0.3773 -1.7688  0.1025
 6457TIP3   OH240785   1.321   2.246  12.083  0.1331 -0.9501 -0.4160
 6457TIP3    H140786   1.388   2.307  12.113 -0.3922  0.0416 -1.1940
 6457TIP3    H240787   1.263   2.235  12.159  0.6687 -1.1197 -0.0227
 6458TIP3   OH240788   1.755   5.900   1.509  0.1780 -0.1027  0.1154
 6458TIP3    H140789   1.836   5.877   1.463 -0.7373 -1.2999 -0.9661
 6458TIP3    H240790   1.759   5.995   1.519  0.6309  0.1416 -2.0373
 6459TIP3   OH240791   6.732   5.957  17.016 -0.7465 -0.5047  0.1919
 6459TIP3    H140792   6.674   5.924  16.947 -1.4786 -0.3406  0.7142
 6459TIP3    H240793   6.761   6.042  16.984 -1.1544 -0.3895  0.1158
 6460TIP3   OH240794   0.924   1.366   2.771 -0.4035  0.2032 -0.1375
 6460TIP3    H140795   1.005   1.417   2.776 -0.9702  1.2618 -1.1053
 6460TIP3    H240796   0.855   1.429   2.790 -0.9838 -0.9310  1.8063
 6461TIP3   OH240797   2.282   0.864  12.531  0.0483 -0.6515 -0.1138
 6461TIP3    H140798   2.336   0.818  12.467 -0.5196 -2.8059  0.8623
 6461TIP3    H240799   2.334   0.861  12.612 -0.4772 -0.5842  0.2315
 6462TIP3   OH240800   3.028   3.945  11.162  0.0762  0.5896 -0.3744
 6462TIP3    H140801   2.974   4.010  11.207 -1.0625 -0.5835  0.0174
 6462TIP3    H240802   3.108   3.939  11.214 -0.4206  0.6308  0.4075
 6463TIP3   OH240803   0.273   3.461  13.416 -0.4689  0.1556 -0.2160
 6463TIP3    H140804   0.363   3.442  13.441  0.1732  0.5513 -2.1181
 6463TIP3    H240805   0.262   3.421  13.330 -1.4060  1.9741 -0.9971
 6464TIP3   OH240806   5.606   1.955   5.974  0.1277 -0.0651 -0.0772
 6464TIP3    H140807   5.693   1.926   5.946  0.1314  1.0091 -1.3206
 6464TIP3    H240808   5.618   1.982   6.065  0.2459 -3.2357  0.9762
 6465TIP3   OH240809   0.491   2.327   5.329  0.5419 -0.3954 -0.1521
 6465TIP3    H140810   0.453   2.412   5.309 -0.7905 -1.0982 -0.7841
 6465TIP3    H240811   0.445   2.298   5.408 -0.0785 -1.1396 -0.7677
 6466TIP3   OH240812   4.320   2.907  12.225 -0.8222 -0.3305  0.4128
 6466TIP3    H140813   4.228   2.914  12.250 -0.5165  2.9150  1.0220
 6466TIP3    H240814   4.365   2.880  12.306 -0.8508  1.8409  1.2093
 6467TIP3   OH240815   5.841   3.206  15.296 -0.4062 -0.3378  0.4544
 6467TIP3    H140816   5.797   3.202  15.381  0.9099  0.7704  1.2364
 6467TIP3    H240817   5.861   3.115  15.274 -0.6132 -0.6247  1.4152
 6468TIP3   OH240818   5.805   5.414  13.549 -0.1268 -0.5002  0.1585
 6468TIP3    H140819   5.894   5.394  13.518 -0.4602  0.8002 -1.8203
 6468TIP3    H240820   5.748   5.391  13.476 -1.5063 -1.5877  1.5046
 6469TIP3   OH240821   1.066   3.604  15.208  0.7105 -0.1174  0.2752
 6469TIP3    H140822   1.145   3.574  15.254  0.4610  1.5856  1.9575
 6469TIP3    H240823   1.030   3.525  15.168  1.5539 -1.5516  2.1659
 6470TIP3   OH240824   1.372   3.906   1.435 -0.3179 -0.1101  0.0945
 6470TIP3    H140825   1.392   3.851   1.511  0.4387  0.0094 -0.0185
 6470TIP3    H240826   1.449   3.900   1.379 -0.6594  0.2210 -0.4249
 6471TIP3   OH240827   5.038   4.105  12.625  0.3073 -0.3994  0.2038
 6471TIP3    H140828   5.011   4.169  12.560  0.0499  0.3650  1.0360
 6471TIP3    H240829   5.123   4.073  12.594  1.7136  2.2368  1.0318
 6472TIP3   OH240830   1.630   0.000  10.190  0.8713  0.1927  0.3301
 6472TIP3    H140831   1.640   0.093  10.209  0.5928  0.0968  0.9873
 6472TIP3    H240832   1.567  -0.031  10.255  3.1893 -1.0683  2.1278
 6473TIP3   OH240833   4.959   4.282  16.530 -0.2104 -0.2508  0.0703
 6473TIP3    H140834   5.032   4.219  16.536  0.7733  0.8119 -0.2783
 6473TIP3    H240835   4.903   4.248  16.461  0.6541 -0.4164 -0.5684
 6474TIP3   OH240836   1.175   0.062   5.431  0.6343  0.2166  0.2377
 6474TIP3    H140837   1.092   0.025   5.400 -0.3987  0.6497  2.2958
 6474TIP3    H240838   1.167   0.156   5.413  0.8732  0.2062  0.0694
 6475TIP3   OH240839   1.326   0.831  14.749 -0.7157 -0.1368  0.0625
 6475TIP3    H140840   1.278   0.767  14.801 -0.2600 -0.9822 -0.5393
 6475TIP3    H240841   1.399   0.782  14.711 -0.4983  0.6779 -0.6045
 6476TIP3   OH240842   1.127   3.998   4.502  0.5555 -0.3085  0.0580
 6476TIP3    H140843   1.195   4.054   4.540  0.6231 -1.2462  1.3660
 6476TIP3    H240844   1.175   3.934   4.450  0.5224  0.3529 -0.8088
 6477TIP3   OH240845   6.659   3.569  16.298 -0.1647  0.0191 -0.3013
 6477TIP3    H140846   6.723   3.606  16.237 -0.1610  1.0245  0.3025
 6477TIP3    H240847   6.709   3.504  16.348  0.1603  0.1597 -0.4407
 6478TIP3   OH240848   0.078   6.702   1.489  0.0234 -0.4205 -1.2478
 6478TIP3    H140849   0.105   6.786   1.451  0.6487  0.5905  1.2526
 6478TIP3    H240850  -0.006   6.682   1.446 -0.9445  2.3078 -0.7935
 6479TIP3   OH240851   4.045   4.044   0.482 -0.0731  0.4680 -0.2466
 6479TIP3    H140852   4.136   4.031   0.455 -0.5549 -0.1268 -1.7152
 6479TIP3    H240853   4.006   3.956   0.479 -0.5901  0.6394  0.8404
 6480TIP3   OH240854   2.793   0.853  13.407 -0.0461 -0.1698 -0.7744
 6480TIP3    H140855   2.757   0.941  13.397  1.2684  0.5669  0.6304
 6480TIP3    H240856   2.718   0.795  13.393 -1.0848  1.1950 -1.0448
 6481TIP3   OH240857   5.065   6.090  10.778  0.3301  0.0944  0.2479
 6481TIP3    H140858   5.046   6.007  10.735 -0.9895  0.2620  0.4613
 6481TIP3    H240859   5.070   6.153  10.707  0.0011  0.0523  0.1850
 6482TIP3   OH240860   1.158   4.135   5.379  0.6444  0.1993  0.0141
 6482TIP3    H140861   1.130   4.186   5.456 -0.0737  0.8415 -0.6556
 6482TIP3    H240862   1.079   4.128   5.325  1.3251  0.3990 -1.0281
 6483TIP3   OH240863   3.541   2.369   2.572  0.7817  0.4203 -0.7335
 6483TIP3    H140864   3.505   2.288   2.609  1.8761  0.3424  0.2042
 6483TIP3    H240865   3.611   2.394   2.632  2.8274  0.1546 -2.9119
 6484TIP3   OH240866   6.368   6.048   4.697 -0.0196 -0.0591  0.3089
 6484TIP3    H140867   6.388   5.955   4.713  2.3217  0.5860  1.5241
 6484TIP3    H240868   6.304   6.071   4.764  0.0903 -0.5533  0.5881
 6485TIP3   OH240869   3.268   6.780  16.384  0.4533 -0.3336 -0.4131
 6485TIP3    H140870   3.258   6.725  16.306 -0.8707  0.2846 -0.7005
 6485TIP3    H240871   3.267   6.870  16.352 -1.8992  0.0068  0.4210
 6486TIP3   OH240872   3.380   5.013   3.304 -0.6628  0.3917  0.2934
 6486TIP3    H140873   3.411   5.094   3.265  0.0840  0.1820  0.4210
 6486TIP3    H240874   3.388   4.948   3.234  0.1610  0.1300  0.6119
 6487TIP3   OH240875   6.298   1.463  14.825  0.7899 -0.4843  0.0084
 6487TIP3    H140876   6.229   1.406  14.790  0.9456 -0.3655 -0.4969
 6487TIP3    H240877   6.251   1.538  14.862  0.6874  0.1091 -1.2736
 6488TIP3   OH240878   6.608   4.145  15.785  0.9686 -0.2082  0.0775
 6488TIP3    H140879   6.617   4.071  15.845 -0.4616 -0.9198 -0.5350
 6488TIP3    H240880   6.585   4.219  15.841 -0.3258 -0.8606  0.4376
 6489TIP3   OH240881   5.438   4.487   2.903 -0.4716 -0.1020  0.0476
 6489TIP3    H140882   5.432   4.392   2.908  3.8467 -0.7049 -1.5558
 6489TIP3    H240883   5.429   4.516   2.994  1.3232 -2.4825  1.1030
 6490TIP3   OH240884   0.635   0.066  11.050  0.3672 -0.3127  0.7082
 6490TIP3    H140885   0.638   0.031  10.961  0.0976 -1.6183  1.1882
 6490TIP3    H240886   0.715   0.034  11.092  1.4054  1.7853  0.4427
 6491TIP3   OH240887   2.249   2.800  10.464 -0.1934 -0.3342 -0.3579
 6491TIP3    H140888   2.280   2.720  10.421 -0.9413 -1.4163  1.0432
 6491TIP3    H240889   2.289   2.799  10.550 -0.4165  0.6851 -0.2256
 6492TIP3   OH240890   4.576   4.856   3.767  0.0335 -0.3575 -0.0021
 6492TIP3    H140891   4.526   4.934   3.743  0.4993  0.5112  1.6667
 6492TIP3    H240892   4.639   4.887   3.831  0.9953 -1.9222 -0.1248
 6493TIP3   OH240893   0.845   3.204   5.832 -0.0351 -0.1840  0.0504
 6493TIP3    H140894   0.886   3.291   5.836 -0.5899  0.0431  1.1332
 6493TIP3    H240895   0.790   3.200   5.910  0.1021 -1.5774  0.1024
 6494TIP3   OH240896   0.452   4.953   2.471  0.3222 -0.5679 -0.6056
 6494TIP3    H140897   0.451   4.858   2.458 -1.9446 -0.4913 -1.4798
 6494TIP3    H240898   0.477   4.988   2.386  3.1759 -0.3343  0.2208
 6495TIP3   OH240899   2.229   4.339  13.728 -0.3723 -0.4060  0.7463
 6495TIP3    H140900   2.296   4.365  13.791  0.9942 -0.5064 -0.5822
 6495TIP3    H240901   2.184   4.421  13.706 -0.6678 -0.3264  1.6077
 6496TIP3   OH240902   6.735   5.493   3.861 -0.0376  0.0352  0.2504
 6496TIP3    H140903   6.728   5.584   3.892 -0.2198 -0.4221  1.6279
 6496TIP3    H240904   6.645   5.465   3.846  0.0726  0.4638 -1.4516
 6497TIP3   OH240905   5.847   4.036   5.094  0.0627 -0.2304  0.2650
 6497TIP3    H140906   5.803   3.996   5.019  0.2152 -1.0720  0.6132
 6497TIP3    H240907   5.791   4.014   5.169  0.3591 -0.1355  0.5172
 6498TIP3   OH240908   1.516   2.731  14.633  0.0570 -0.5577 -0.0254
 6498TIP3    H140909   1.484   2.800  14.576  0.6302 -0.1597  0.1258
 6498TIP3    H240910   1.552   2.777  14.709 -1.3759 -1.0889  1.0457
 6499TIP3   OH240911   3.098   1.152  15.414 -0.4667 -0.4067 -0.1044
 6499TIP3    H140912   3.030   1.131  15.478  0.8625  0.7529  1.7655
 6499TIP3    H240913   3.077   1.241  15.385  0.2218 -0.0583  0.4508
 6500TIP3   OH240914   4.367   3.385  12.021 -0.1852 -0.1381 -0.8015
 6500TIP3    H140915   4.363   3.300  12.064  1.9228 -0.3423 -0.9125
 6500TIP3    H240916   4.408   3.367  11.936  1.5637  1.1425 -0.2850
 6501TIP3   OH240917   4.873   5.449  14.819 -0.2632 -0.1915 -0.2066
 6501TIP3    H140918   4.897   5.504  14.744  1.0001 -0.2101  0.1592
 6501TIP3    H240919   4.781   5.467  14.833 -0.8143 -0.9488 -2.4112
 6502TIP3   OH240920   0.747   3.671   1.937  0.1312  0.0299  0.0221
 6502TIP3    H140921   0.691   3.646   2.011  0.2319 -0.9997 -0.2364
 6502TIP3    H240922   0.688   3.680   1.863  0.1276  0.3661  0.0610
 6503TIP3   OH240923   2.328   6.232  15.665  0.3620 -0.1460  0.0584
 6503TIP3    H140924   2.406   6.286  15.651 -0.7690  1.3519 -0.7060
 6503TIP3    H240925   2.360   6.157  15.715  1.8275  1.6663  2.0013
 6504TIP3   OH240926   5.354   4.832   4.341  0.0881 -0.1787  0.5340
 6504TIP3    H140927   5.396   4.876   4.415 -1.1175 -0.8249  1.6533
 6504TIP3    H240928   5.309   4.901   4.293  2.4302  0.5463 -0.7615
 6505TIP3   OH240929   0.204   5.444   2.768  0.3876 -0.1883 -0.4643
 6505TIP3    H140930   0.235   5.484   2.687  1.8449 -2.3410 -1.0434
 6505TIP3    H240931   0.109   5.454   2.765  0.5922  2.1466 -1.0786
 6506TIP3   OH240932   2.709   5.495  12.705  0.0569 -0.1666 -0.4022
 6506TIP3    H140933   2.703   5.573  12.761  0.5442 -1.0589  0.9480
 6506TIP3    H240934   2.635   5.503  12.645 -1.2206  0.2524  1.1459
 6507TIP3   OH240935   1.463   1.092  11.962  0.3670  0.2663  0.0359
 6507TIP3    H140936   1.538   1.107  12.020  0.5403  0.6024 -0.2745
 6507TIP3    H240937   1.413   1.174  11.965 -0.9407 -0.5091  1.5917
 6508TIP3   OH240938   1.976   2.699  12.847  0.3164 -0.3258  0.1972
 6508TIP3    H140939   2.031   2.756  12.793 -0.4128  0.5366  0.3420
 6508TIP3    H240940   2.038   2.647  12.898  0.9989  0.1321 -0.1532
 6509TIP3   OH240941   5.208   0.994  12.319  0.0661 -0.1975 -0.0645
 6509TIP3    H140942   5.183   0.958  12.234  1.0775  0.6971 -0.7668
 6509TIP3    H240943   5.140   1.060  12.337 -1.2919 -1.7613  0.8168
 6510TIP3   OH240944   1.180   3.834  16.917  0.3725  0.3582  0.0810
 6510TIP3    H140945   1.142   3.907  16.965  0.5199  0.8669 -0.5594
 6510TIP3    H240946   1.259   3.811  16.967 -0.0492  0.1775  0.6653
 6511TIP3   OH240947   4.274   1.448   1.136  0.9148  0.0989 -0.4015
 6511TIP3    H140948   4.216   1.523   1.121  0.0212 -0.6156 -0.5984
 6511TIP3    H240949   4.287   1.446   1.231  0.0683 -0.1207 -0.2808
 6512TIP3   OH240950   5.794   4.239  16.931 -0.4648  0.2719  0.3951
 6512TIP3    H140951   5.888   4.236  16.949 -0.2875  1.8163 -0.1097
 6512TIP3    H240952   5.768   4.328  16.957 -1.7207 -0.0361  0.2399
 6513TIP3   OH240953   0.554   4.284  12.217  0.0510  0.0603 -0.2314
 6513TIP3    H140954   0.459   4.297  12.215  0.1156  0.6819  0.1932
 6513TIP3    H240955   0.570   4.236  12.299  0.4127  3.1825  1.7060
 6514TIP3   OH240956   4.996   4.459   3.247 -0.2387  0.2053 -0.9015
 6514TIP3    H140957   5.041   4.414   3.318 -1.1024  0.2699 -0.3029
 6514TIP3    H240958   4.927   4.399   3.220 -0.1582  0.3442 -1.4235
 6515TIP3   OH240959   6.792   0.940   5.628  0.1656 -0.3961  0.1470
 6515TIP3    H140960   6.768   0.967   5.539 -1.2238 -0.8920  0.3458
 6515TIP3    H240961   6.791   0.844   5.624 -0.3598 -0.4247  0.7981
 6516TIP3   OH240962   1.603   5.850  11.479 -0.3247 -0.4471 -0.4165
 6516TIP3    H140963   1.520   5.803  11.487  0.2047 -1.0744  2.6287
 6516TIP3    H240964   1.645   5.840  11.564  1.9533  1.6638 -1.1585
 6517TIP3   OH240965   6.646   4.063  10.792 -0.5482  0.2055  0.0929
 6517TIP3    H140966   6.735   4.046  10.821 -0.3826  1.2659  0.2574
 6517TIP3    H240967   6.597   3.984  10.814  0.4546 -0.5797 -0.4415
 6518TIP3   OH240968   5.253   4.175  11.726  0.2854 -0.8429 -0.1763
 6518TIP3    H140969   5.202   4.206  11.650 -2.9102  0.1853  2.1543
 6518TIP3    H240970   5.231   4.083  11.734  0.4893 -0.9105 -0.3742
 6519TIP3   OH240971   3.083   3.730   1.542  0.1946  0.3896  0.7680
 6519TIP3    H140972   3.082   3.792   1.469 -0.0039 -0.9243 -0.3675
 6519TIP3    H240973   2.997   3.689   1.540  0.2594  0.1810  1.6328
 6520TIP3   OH240974   5.430   2.650  10.679  0.1731 -0.2917 -0.0324
 6520TIP3    H140975   5.525   2.647  10.692  0.2491  1.5641  0.2117
 6520TIP3    H240976   5.418   2.642  10.584  0.5728 -0.5841 -0.0587
 6521TIP3   OH240977   4.579   3.029  13.302  0.0705 -1.1164  0.2764
 6521TIP3    H140978   4.661   2.982  13.317 -0.9402 -2.4207  1.8844
 6521TIP3    H240979   4.585   3.106  13.359  1.2116  0.1851 -1.4860
 6522TIP3   OH240980   0.565   4.937   0.594  0.0945 -0.3526  0.2088
 6522TIP3    H140981   0.613   4.986   0.660 -1.1411  1.2206 -0.0075
 6522TIP3    H240982   0.612   4.953   0.512 -0.5322  0.8595  0.0656
 6523TIP3   OH240983   5.945   6.521   4.681  0.7790  0.0428 -0.0355
 6523TIP3    H140984   5.958   6.616   4.684 -2.0270  0.5697 -1.3178
 6523TIP3    H240985   5.994   6.492   4.604  0.3398  0.7433 -0.5947
 6524TIP3   OH240986   0.642   1.702  14.592 -0.1515 -0.2184 -0.2873
 6524TIP3    H140987   0.601   1.624  14.555  0.1677 -0.1628 -0.7729
 6524TIP3    H240988   0.605   1.710  14.680 -1.9022  0.3718 -1.0255
 6525TIP3   OH240989   0.572   0.874   1.019 -0.5482  0.5604  0.3386
 6525TIP3    H140990   0.618   0.937   1.074 -1.1321  1.1723  0.1426
 6525TIP3    H240991   0.495   0.921   0.987 -0.2991  0.1751 -0.8934
 6526TIP3   OH240992   2.452   4.535   3.535 -0.5008  0.0732  0.1728
 6526TIP3    H140993   2.423   4.594   3.466 -0.0811 -0.0694 -0.1321
 6526TIP3    H240994   2.382   4.470   3.543  0.3009 -1.0595 -1.4977
 6527TIP3   OH240995   2.871   5.229  16.712  0.4110  0.1522 -0.6546
 6527TIP3    H140996   2.933   5.277  16.766 -0.1901 -0.4409  0.6275
 6527TIP3    H240997   2.785   5.253  16.747  0.0635 -1.2501 -0.4619
 6528TIP3   OH240998   3.444   6.241  11.522 -0.6081  0.2260  0.2538
 6528TIP3    H140999   3.462   6.154  11.487 -1.3187  0.3538 -0.4722
 6528TIP3    H241000   3.424   6.227  11.614 -0.1343 -0.3028  0.2794
 6529TIP3   OH241001   0.289   2.406   4.010 -0.1710  0.1209  0.0274
 6529TIP3    H141002   0.310   2.448   3.926 -1.4487 -2.9533 -2.0434
 6529TIP3    H241003   0.250   2.475   4.062 -0.0968  2.0074 -2.2338
 6530TIP3   OH241004   1.487   5.273  15.635  0.2074 -0.2554 -0.1161
 6530TIP3    H141005   1.536   5.257  15.716 -1.1482 -0.4406  0.6917
 6530TIP3    H241006   1.412   5.215  15.640  0.8603 -1.4012 -2.2456
 6531TIP3   OH241007   4.902   3.905   0.097  0.2298  0.1946  0.4550
 6531TIP3    H141008   4.956   3.838   0.140  1.5601 -0.4141 -1.9410
 6531TIP3    H241009   4.859   3.951   0.168  0.0292 -2.5796  2.2725
 6532TIP3   OH241010   2.936   0.119   1.706  0.2793 -0.1327  0.2394
 6532TIP3    H141011   2.950   0.066   1.784  1.4721 -1.6753 -0.9479
 6532TIP3    H241012   3.016   0.169   1.695 -0.4538  1.2113  0.7837
 6533TIP3   OH241013   5.426   3.083  14.933  0.1718  1.0952  0.7871
 6533TIP3    H141014   5.420   3.000  14.886  2.5202  0.1894  1.9564
 6533TIP3    H241015   5.487   3.136  14.881 -0.5245  1.7270  0.5927
 6534TIP3   OH241016   5.267   4.831   1.448  0.2411  0.3792  0.2375
 6534TIP3    H141017   5.340   4.785   1.490  0.2768 -1.0042 -1.2368
 6534TIP3    H241018   5.302   4.857   1.363 -0.5293  1.0671  0.1258
 6535TIP3   OH241019   4.931   6.783  17.089  0.7823 -0.2054  0.3900
 6535TIP3    H141020   4.922   6.691  17.113  2.0478 -1.0210 -2.0357
 6535TIP3    H241021   4.955   6.826  17.171  2.1586 -2.3634  1.2053
 6536TIP3   OH241022   4.716   5.611   1.741  0.3821 -0.2191 -0.2399
 6536TIP3    H141023   4.709   5.520   1.712 -1.5204 -0.3031  0.3347
 6536TIP3    H241024   4.691   5.609   1.833  2.6136  0.5912  0.4398
 6537TIP3   OH241025   2.471   0.252   1.858 -0.0865 -0.4744 -0.3508
 6537TIP3    H141026   2.520   0.177   1.891  1.1141  0.7950  0.9449
 6537TIP3    H241027   2.525   0.328   1.883 -2.0142  0.9072 -0.1445
 6538TIP3   OH241028   2.949   4.392   1.709  0.3327 -0.1783 -0.9591
 6538TIP3    H141029   3.027   4.379   1.654  0.0830 -2.5568 -0.8748
 6538TIP3    H241030   2.934   4.306   1.748 -1.9876  0.3909 -0.4835
 6539TIP3   OH241031   5.248   2.944  13.157 -0.2022  0.0589 -0.0127
 6539TIP3    H141032   5.212   2.952  13.068  1.3355 -0.8542 -0.7604
 6539TIP3    H241033   5.330   2.992  13.154 -0.1594  0.0489  0.9318
 6540TIP3   OH241034   2.823   0.033   0.420 -0.4579  0.3413  0.1241
 6540TIP3    H141035   2.769  -0.033   0.464  0.0527  0.5842  1.1552
 6540TIP3    H241036   2.816   0.012   0.327 -1.9832  0.1067  0.2603
 6541TIP3   OH241037   1.931   5.375  13.779 -0.2164 -0.6079 -0.3434
 6541TIP3    H141038   1.876   5.408  13.850 -0.1042 -2.7614  0.8330
 6541TIP3    H241039   1.929   5.445  13.713 -4.0948 -0.3926 -0.2543
 6542TIP3   OH241040   3.791   5.882   3.210  0.0352 -0.1084  0.0730
 6542TIP3    H141041   3.698   5.902   3.202 -0.2133 -1.7725 -2.3392
 6542TIP3    H241042   3.836   5.961   3.180 -0.6618  0.0421 -0.6093
 6543TIP3   OH241043   0.564   1.622  16.094 -0.0442 -0.1969 -0.7460
 6543TIP3    H141044   0.567   1.709  16.054  0.5222 -0.5564 -1.5115
 6543TIP3    H241045   0.628   1.571  16.045 -1.2340 -1.3940 -1.1093
 6544TIP3   OH241046   6.075   5.817   0.589  0.6623  0.1947 -0.3728
 6544TIP3    H141047   6.158   5.798   0.633  2.2046 -0.1012 -3.1997
 6544TIP3    H241048   6.092   5.895   0.538 -0.5156 -0.3759 -1.6991
 6545TIP3   OH241049   3.881   4.672   4.419 -0.0577  0.3894  0.2526
 6545TIP3    H141050   3.824   4.744   4.394 -0.1584  0.0093 -0.6275
 6545TIP3    H241051   3.967   4.696   4.384 -0.0654  0.1436  0.0602
 6546TIP3   OH241052   4.572   0.368   5.826 -0.4741 -0.0899  0.2661
 6546TIP3    H141053   4.488   0.339   5.791 -0.6734  0.4436  0.2883
 6546TIP3    H241054   4.573   0.462   5.811  0.1013 -0.0852  0.3118
 6547TIP3   OH241055   5.742   1.430   3.067 -0.1959 -0.0631 -0.2227
 6547TIP3    H141056   5.822   1.424   3.120  0.2155 -0.0142 -0.8314
 6547TIP3    H241057   5.759   1.373   2.991  0.6078  2.4625 -2.0621
 6548TIP3   OH241058   6.334   3.055   3.717  0.4123 -0.3330 -0.4024
 6548TIP3    H141059   6.344   2.975   3.666  1.7011 -0.6884  0.3587
 6548TIP3    H241060   6.370   3.033   3.803  1.3702  1.2333 -0.3665
 6549TIP3   OH241061   0.437   2.703   1.695  0.4222 -0.4734  0.4583
 6549TIP3    H141062   0.456   2.797   1.700  1.0273 -0.5916  0.4293
 6549TIP3    H241063   0.387   2.692   1.615  1.0106 -0.2841  0.0630
 6550TIP3   OH241064   1.514   6.459   0.746  0.1861 -0.7076 -0.3206
 6550TIP3    H141065   1.550   6.495   0.665 -1.1542 -0.0056 -0.6255
 6550TIP3    H241066   1.588   6.459   0.807  1.0255 -0.5420 -1.3153
 6551TIP3   OH241067   5.086   4.822   1.706 -0.0757 -0.4105  0.3812
 6551TIP3    H141068   5.016   4.847   1.645  0.0190 -1.2201 -0.0636
 6551TIP3    H241069   5.150   4.893   1.699  0.7384 -1.2812 -1.7243
 6552TIP3   OH241070   1.009   3.271  13.515  0.5508 -0.0222  0.4578
 6552TIP3    H141071   1.089   3.307  13.555  0.7762 -0.2901  0.2529
 6552TIP3    H241072   0.953   3.348  13.502  0.6889  0.1400  0.7957
 6553TIP3   OH241073   0.303   0.919   3.045  0.1083  0.7579 -0.3945
 6553TIP3    H141074   0.353   0.895   3.124 -0.2521  0.4451 -0.2579
 6553TIP3    H241075   0.370   0.929   2.977  0.5245  2.0313  0.1776
 6554TIP3   OH241076   5.239   4.620  13.813  0.1509  0.1259  0.5134
 6554TIP3    H141077   5.144   4.608  13.806  0.2435 -0.9953  1.0453
 6554TIP3    H241078   5.249   4.708  13.849 -0.7375 -0.3526  2.0106
 6555TIP3   OH241079   4.203   3.026   0.069  0.3249 -0.2292 -0.4908
 6555TIP3    H141080   4.224   3.076   0.148  2.3343 -1.3954 -0.2187
 6555TIP3    H241081   4.203   3.091  -0.002  0.1805  0.5595  0.2217
 6556TIP3   OH241082   6.550   4.209  12.540 -0.3526 -0.1154  0.3049
 6556TIP3    H141083   6.633   4.256  12.551 -0.0229 -0.2386 -1.4162
 6556TIP3    H241084   6.503   4.226  12.621  0.9650  0.7454  0.9349
 6557TIP3   OH241085   1.641   6.608  16.985 -0.6912 -0.0752  0.1970
 6557TIP3    H141086   1.699   6.649  16.920 -0.1694 -2.4376 -0.9429
 6557TIP3    H241087   1.556   6.604  16.942 -0.6599 -0.4420  0.1598
 6558TIP3   OH241088   0.585   2.107   5.556  0.1958 -0.8658  0.1360
 6558TIP3    H141089   0.623   2.097   5.644  0.3773  0.7387  0.2662
 6558TIP3    H241090   0.497   2.143   5.572  0.2785 -0.4452 -0.3344
 6559TIP3   OH241091   5.628   0.286  12.042  0.1043  0.2236  0.0313
 6559TIP3    H141092   5.709   0.234  12.036 -0.0137 -0.1251  1.2609
 6559TIP3    H241093   5.577   0.259  11.965  0.1584 -1.3128  0.4992
 6560TIP3   OH241094   1.565   2.632  13.238  0.2483 -0.2783 -0.4417
 6560TIP3    H141095   1.634   2.683  13.196  0.4483 -0.0344  0.1637
 6560TIP3    H241096   1.604   2.601  13.320 -0.7114  0.8636  0.4871
 6561TIP3   OH241097   2.738   5.568   2.443 -0.0513  0.3494  0.6387
 6561TIP3    H141098   2.805   5.560   2.512  0.4250 -0.0927  0.1429
 6561TIP3    H241099   2.779   5.527   2.366 -1.5124 -1.4932  0.7544
 6562TIP3   OH241100   2.878   2.004  11.761  0.1851  0.8028  0.1906
 6562TIP3    H141101   2.786   2.030  11.763  0.2167  0.9023  0.3722
 6562TIP3    H241102   2.916   2.047  11.838 -0.1573 -1.2654  1.6079
 6563TIP3   OH241103   4.048   6.389  11.769 -0.2191 -0.5975  0.2078
 6563TIP3    H141104   4.061   6.470  11.819  1.2328 -0.6710  0.0164
 6563TIP3    H241105   3.990   6.336  11.822 -1.8659  0.8840 -0.0435
 6564TIP3   OH241106   5.999   1.118   0.446 -0.2906 -0.8958 -0.2257
 6564TIP3    H141107   5.920   1.119   0.501  1.5264  3.3377  2.8024
 6564TIP3    H241108   6.064   1.073   0.499  0.6479  0.3475 -0.2924
 6565TIP3   OH241109   2.083   3.705  16.857  0.5307 -0.2127  0.0146
 6565TIP3    H141110   2.052   3.744  16.776  0.7871 -1.9202 -0.9510
 6565TIP3    H241111   2.075   3.775  16.922  0.4611  1.2335 -1.4919
 6566TIP3   OH241112   3.609   4.242  15.347  0.0451 -0.1937 -0.1028
 6566TIP3    H141113   3.642   4.216  15.262 -0.4907  0.2606 -0.4578
 6566TIP3    H241114   3.682   4.287  15.389  0.0956  0.1959 -0.6018
 6567TIP3   OH241115   1.594   3.295  16.473  0.7608 -0.7894  0.0826
 6567TIP3    H141116   1.530   3.342  16.419 -1.2806 -0.7219  2.3756
 6567TIP3    H241117   1.580   3.203  16.452  0.8767 -0.7011 -0.3951
 6568TIP3   OH241118   3.507   1.548  16.468 -0.1097  0.2625  0.3457
 6568TIP3    H141119   3.511   1.597  16.550 -1.3563  1.6084 -0.3582
 6568TIP3    H241120   3.434   1.488  16.479  1.3511 -1.4663  1.1658
 6569TIP3   OH241121   5.272   5.573  16.636 -0.2588  0.7464  0.7658
 6569TIP3    H141122   5.313   5.593  16.552 -1.0645  2.6661  0.7797
 6569TIP3    H241123   5.281   5.478  16.645  1.0460  0.6687 -0.8316
 6570TIP3   OH241124   6.160   4.861  11.749  0.1844 -0.1484 -0.4034
 6570TIP3    H141125   6.166   4.898  11.661 -0.0545 -1.3674 -0.9563
 6570TIP3    H241126   6.067   4.866  11.772  0.4497  1.5395  0.4177
 6571TIP3   OH241127   3.635   5.736   5.271  0.1539  0.1740 -0.3279
 6571TIP3    H141128   3.677   5.671   5.215  0.5440 -0.6730  0.9033
 6571TIP3    H241129   3.706   5.795   5.297 -0.0563  0.6592 -0.8459
 6572TIP3   OH241130   0.691   3.484   5.082  0.6157 -0.1465  0.1425
 6572TIP3    H141131   0.762   3.429   5.116  0.6180 -0.5625 -0.5180
 6572TIP3    H241132   0.631   3.422   5.040 -0.0858  0.2138  0.5951
 6573TIP3   OH241133   0.477   4.277  14.492  0.3397 -0.4292 -0.0736
 6573TIP3    H141134   0.441   4.365  14.494  0.3171 -0.4366 -0.1534
 6573TIP3    H241135   0.401   4.219  14.497  0.4032 -0.4519  1.0680
 6574TIP3   OH241136   2.821   2.263   4.933 -0.1474  0.0365  0.1218
 6574TIP3    H141137   2.826   2.178   4.890 -2.8440 -0.2556  0.2361
 6574TIP3    H241138   2.909   2.278   4.967 -0.1582 -4.0562  2.6405
 6575TIP3   OH241139   1.524   3.933  15.930  0.3554  0.0375 -0.0097
 6575TIP3    H141140   1.580   3.886  15.869 -0.7836 -1.0213 -0.2915
 6575TIP3    H241141   1.477   3.997  15.875  0.1089 -0.1900 -0.0674
 6576TIP3   OH241142   2.010   3.957  14.866 -0.2679  0.2359  0.1072
 6576TIP3    H141143   2.026   3.865  14.847  0.0893 -0.0017  1.4315
 6576TIP3    H241144   2.023   3.964  14.961  1.4930  1.9935 -0.2021
 6577TIP3   OH241145   5.003   5.104  13.897 -0.5720 -0.3634 -0.0395
 6577TIP3    H141146   5.054   5.120  13.819 -1.7047  1.4804 -0.4521
 6577TIP3    H241147   5.014   5.182  13.951 -0.5214 -1.2250  1.2507
 6578TIP3   OH241148   6.765   6.007   4.318  0.3629 -0.2361  0.0235
 6578TIP3    H141149   6.819   6.024   4.395 -2.3482 -0.2042  2.0759
 6578TIP3    H241150   6.702   5.941   4.347  0.1441 -1.3753 -2.6845
 6579TIP3   OH241151   3.567   2.278  16.761 -0.3909 -0.2188  0.2748
 6579TIP3    H141152   3.572   2.363  16.718 -0.4665 -1.1422 -1.6974
 6579TIP3    H241153   3.580   2.215  16.690  2.3499 -1.8440  2.0489
 6580TIP3   OH241154   3.951   1.121   1.142 -0.0888  0.0917  0.2969
 6580TIP3    H141155   4.041   1.151   1.133  0.0729 -0.5375 -0.2664
 6580TIP3    H241156   3.925   1.148   1.230 -0.1932  2.4511 -0.4074
 6581TIP3   OH241157   0.820   5.156   3.370 -0.1120  0.2245 -0.2167
 6581TIP3    H141158   0.725   5.169   3.375 -0.2975 -1.1207  0.0386
 6581TIP3    H241159   0.842   5.176   3.279 -0.5458  1.1100 -0.1344
 6582TIP3   OH241160   6.466   5.157  13.951  0.3715 -0.5635 -0.2001
 6582TIP3    H141161   6.426   5.128  13.869  1.0334 -2.2242  0.0174
 6582TIP3    H241162   6.416   5.114  14.020 -1.2568  2.1171  0.4548
 6583TIP3   OH241163   3.131   1.815  13.145  0.1245 -0.0495  0.1275
 6583TIP3    H141164   3.066   1.746  13.157 -0.5722  0.5977  0.1625
 6583TIP3    H241165   3.095   1.890  13.192  0.9729  0.2755  0.2732
 6584TIP3   OH241166   6.172   6.101   3.643 -0.2568  0.2900  0.4026
 6584TIP3    H141167   6.213   6.016   3.658 -1.4606 -0.4742 -0.3904
 6584TIP3    H241168   6.238   6.165   3.669  1.4559 -0.8632 -0.8879
 6585TIP3   OH241169   3.693   2.657   2.747  0.5620  0.0747  0.1481
 6585TIP3    H141170   3.731   2.707   2.819 -0.8286  0.8411  0.3976
 6585TIP3    H241171   3.765   2.642   2.686  0.9816  2.6418 -0.0733
 6586TIP3   OH241172   5.702   1.297  14.742  0.2469 -0.2684 -0.4135
 6586TIP3    H141173   5.672   1.344  14.664  1.1642  2.4232  0.7145
 6586TIP3    H241174   5.642   1.324  14.811  1.5188  0.2715  0.5312
 6587TIP3   OH241175   6.399   6.581   2.879 -0.1447 -0.1315 -0.1680
 6587TIP3    H141176   6.424   6.671   2.858 -2.1163  0.3029 -0.8745
 6587TIP3    H241177   6.362   6.586   2.967  0.3019 -0.3718  0.0354
 6588TIP3   OH241178   1.914   4.110   2.733  0.0755  0.5657  0.1556
 6588TIP3    H141179   1.902   4.123   2.827 -0.7372 -1.4501  0.3946
 6588TIP3    H241180   1.992   4.056   2.727 -1.5089 -1.8862 -0.0208
 6589TIP3   OH241181   3.945   3.974  11.295  0.0175  0.1795 -0.1788
 6589TIP3    H141182   4.017   4.008  11.348  0.5988 -0.8633 -0.2774
 6589TIP3    H241183   3.964   4.004  11.206  0.3752 -0.1788 -0.2202
 6590TIP3   OH241184   6.494   3.362  14.451 -0.2111  0.1950 -0.3146
 6590TIP3    H141185   6.559   3.300  14.417  0.2026 -0.0747  0.8784
 6590TIP3    H241186   6.429   3.306  14.495  0.3558  0.5834  1.0831
 6591TIP3   OH241187   6.160   4.179   0.164 -0.1015 -0.3881  0.0576
 6591TIP3    H141188   6.163   4.097   0.214  3.5669 -0.8228 -0.5687
 6591TIP3    H241189   6.210   4.241   0.217 -0.5574  0.6641 -0.7205
 6592TIP3   OH241190   0.959   4.899   2.035  0.2986  0.4626  0.1485
 6592TIP3    H141191   0.977   4.896   2.129  2.1519 -0.0313 -0.1958
 6592TIP3    H241192   0.873   4.858   2.026 -0.7531  2.1096  1.7860
 6593TIP3   OH241193   6.765   5.483  16.267 -0.3519  0.1987 -0.1467
 6593TIP3    H141194   6.790   5.564  16.312 -0.8053  0.0418  0.4008
 6593TIP3    H241195   6.846   5.451  16.227 -0.1746  0.9448 -0.4062
 6594TIP3   OH241196   4.863   4.518   2.284 -0.1179  0.4570  0.0093
 6594TIP3    H141197   4.829   4.459   2.351  1.3121  0.8431  1.1354
 6594TIP3    H241198   4.821   4.603   2.303  0.6696  0.6907  0.7682
 6595TIP3   OH241199   1.055   2.126  11.055 -0.1041 -0.0469 -0.1370
 6595TIP3    H141200   1.147   2.110  11.076 -0.0793  0.1401 -0.1044
 6595TIP3    H241201   1.043   2.087  10.969  0.1947  0.6037 -0.4733
 6596TIP3   OH241202   0.502   5.713  15.366 -0.4553  0.3081  0.1560
 6596TIP3    H141203   0.598   5.718  15.370 -0.2939 -1.1662 -0.8505
 6596TIP3    H241204   0.473   5.804  15.366  1.0488  0.8408 -1.2640
 6597TIP3   OH241205   1.022   1.572   3.957  0.7393 -0.8916 -0.0587
 6597TIP3    H141206   0.946   1.515   3.965 -1.2930  1.7652  1.7631
 6597TIP3    H241207   1.037   1.580   3.863 -0.6094 -2.2591 -0.4241
 6598TIP3   OH241208   2.531   0.570   0.692 -0.4257 -0.3536  0.4004
 6598TIP3    H141209   2.545   0.610   0.606  2.8720 -0.5051  0.7284
 6598TIP3    H241210   2.576   0.485   0.687 -0.0152 -0.2981  2.3030
 6599TIP3   OH241211   0.893   1.931   5.720  0.0561 -0.0744 -0.5984
 6599TIP3    H141212   0.965   1.904   5.664  1.8953 -0.2101  1.6399
 6599TIP3    H241213   0.901   2.026   5.725 -0.5012  0.0006 -1.0492
 6600TIP3   OH241214   3.204   6.173  14.265 -0.0414 -0.4108  0.2220
 6600TIP3    H141215   3.245   6.103  14.214 -0.9249 -0.0569 -1.0158
 6600TIP3    H241216   3.110   6.161  14.250 -0.1918  1.3106 -0.4132
 6601TIP3   OH241217   0.865   4.109  12.190 -0.1586  0.3920 -0.0076
 6601TIP3    H141218   0.875   4.081  12.099 -1.7577 -0.4671  0.0301
 6601TIP3    H241219   0.800   4.179  12.187 -1.6543 -0.8975  0.6040
 6602TIP3   OH241220   1.356   4.830   2.091  0.6634  0.1425 -0.0293
 6602TIP3    H141221   1.387   4.860   2.006  1.6070  1.1985  0.6641
 6602TIP3    H241222   1.434   4.831   2.147  0.3566 -1.8745  0.5123
 6603TIP3   OH241223   0.645   1.316  10.581  1.0480 -0.0610 -0.8145
 6603TIP3    H141224   0.640   1.399  10.534 -0.6221 -0.7226 -1.9349
 6603TIP3    H241225   0.702   1.333  10.655 -1.2741  2.8457  0.5073
 6604TIP3   OH241226   1.708   1.995  10.738  0.2597  0.0970 -0.0951
 6604TIP3    H141227   1.746   1.912  10.764  2.4778  1.1434  0.2365
 6604TIP3    H241228   1.783   2.052  10.721 -1.1299  1.3696 -2.6337
 6605TIP3   OH241229   3.533   1.345  13.075 -0.7349 -0.6768  0.3735
 6605TIP3    H141230   3.456   1.401  13.066  0.9848  1.7673  0.0194
 6605TIP3    H241231   3.578   1.351  12.991 -0.2088 -2.2073  0.5124
 6606TIP3   OH241232   5.678   5.381   2.204 -0.8209 -0.5204  0.4697
 6606TIP3    H141233   5.586   5.360   2.221 -0.5819 -0.5845  1.7353
 6606TIP3    H241234   5.715   5.299   2.172 -1.5392 -0.0960 -1.6030
 6607TIP3   OH241235   6.652   6.306  12.766  0.2931 -0.0164 -0.0643
 6607TIP3    H141236   6.723   6.249  12.797  1.4621  0.0453 -2.4258
 6607TIP3    H241237   6.630   6.360  12.841  1.6672 -1.1066  1.1844
 6608TIP3   OH241238   2.780   2.862  15.665  0.1398  0.5083  0.5715
 6608TIP3    H141239   2.787   2.892  15.756 -0.1910 -1.5483  1.3354
 6608TIP3    H241240   2.705   2.908  15.630  0.8411  2.0632  1.0062
 6609TIP3   OH241241   4.482   1.390   0.900 -0.4125 -0.3731  0.3321
 6609TIP3    H141242   4.503   1.324   0.834  1.4418  0.4459  0.0289
 6609TIP3    H241243   4.522   1.358   0.980 -0.4412 -0.1403  0.4403
 6610TIP3   OH241244   5.152   0.229  16.679  0.3722  0.0313  0.2395
 6610TIP3    H141245   5.184   0.225  16.588 -0.7654  1.0855 -0.2388
 6610TIP3    H241246   5.133   0.138  16.702  1.9638 -0.4102 -0.0802
 6611TIP3   OH241247   0.497   4.793  16.944  0.9226  0.5811  0.1229
 6611TIP3    H141248   0.566   4.733  16.914  1.2861 -0.4822  2.8499
 6611TIP3    H241249   0.449   4.744  17.010  0.1976  2.7361  1.3019
 6612TIP3   OH241250   1.484   1.008   4.880 -0.1447  0.0007  0.6331
 6612TIP3    H141251   1.500   1.094   4.843  0.0018  0.3034  1.3893
 6612TIP3    H241252   1.512   0.947   4.812 -0.0529  0.5450  0.1782
 6613TIP3   OH241253   5.294   1.796  10.973  0.0001 -0.0854  0.4513
 6613TIP3    H141254   5.307   1.810  10.880 -1.6031 -1.8819 -0.1287
 6613TIP3    H241255   5.224   1.857  10.997 -2.0193 -1.8979 -0.4150
 6614TIP3   OH241256   0.481   0.169  13.092  0.2081  0.1315  0.2958
 6614TIP3    H141257   0.406   0.124  13.053  0.8007 -1.7666  1.2109
 6614TIP3    H241258   0.450   0.259  13.105 -1.4833 -0.2901 -0.4606
 6615TIP3   OH241259   5.018   0.187   3.584 -0.6100  0.0499  0.3552
 6615TIP3    H141260   4.959   0.256   3.554  1.2887  1.6741  0.1114
 6615TIP3    H241261   5.094   0.234   3.619  0.3077 -1.9208  1.1598
 6616TIP3   OH241262   0.718   1.898  15.143  0.5300  0.2639  0.4339
 6616TIP3    H141263   0.678   1.891  15.230  1.5385 -2.1871  0.7696
 6616TIP3    H241264   0.812   1.911  15.161  0.5353  1.4899 -0.3351
 6617TIP3   OH241265   1.562   4.906   5.031  0.5106 -0.4793  0.2250
 6617TIP3    H141266   1.579   4.816   5.059  1.5449 -0.5955 -0.6514
 6617TIP3    H241267   1.468   4.909   5.013  0.7389 -1.9994 -1.6271
 6618TIP3   OH241268   4.871   2.436   3.007  0.0311  0.3371 -0.1225
 6618TIP3    H141269   4.864   2.466   2.916 -1.5525  2.3563  0.5942
 6618TIP3    H241270   4.957   2.465   3.035  0.3503  0.1109 -0.8372
 6619TIP3   OH241271   1.426   3.615  14.434  0.5180  0.1940  0.4691
 6619TIP3    H141272   1.420   3.627  14.529 -1.3101 -0.2511  0.4606
 6619TIP3    H241273   1.447   3.701  14.399 -1.0841  0.8977  1.1492
 6620TIP3   OH241274   2.254   6.138  15.246  0.2757 -0.1388  0.1294
 6620TIP3    H141275   2.310   6.115  15.171  0.9914 -1.5578  1.0551
 6620TIP3    H241276   2.168   6.153  15.207  0.4322 -1.6892 -0.9077
 6621TIP3   OH241277   2.834   2.572   3.112 -0.6095 -0.6885 -0.5731
 6621TIP3    H141278   2.773   2.639   3.142  0.2440  1.0509 -2.4296
 6621TIP3    H241279   2.898   2.565   3.183 -1.1743 -0.1321  0.0059
 6622TIP3   OH241280   1.609   2.821   3.866 -0.0594  0.0776  0.0296
 6622TIP3    H141281   1.623   2.863   3.951 -1.7590  2.0373 -0.5858
 6622TIP3    H241282   1.637   2.886   3.802  3.5612 -2.2594 -1.0429
 6623TIP3   OH241283   2.268   1.969   5.099  0.0321 -0.2588  0.4790
 6623TIP3    H141284   2.359   1.986   5.074  0.0245 -1.5757 -0.5437
 6623TIP3    H241285   2.230   1.924   5.024 -1.2092 -0.5617  1.2558
 6624TIP3   OH241286   6.596   5.089   1.806 -0.2044 -0.5084  0.0721
 6624TIP3    H141287   6.534   5.020   1.783 -0.2195 -1.1576  1.9314
 6624TIP3    H241288   6.670   5.044   1.846  1.0721  0.3467 -1.2108
 6625TIP3   OH241289   6.405   3.893  13.784 -0.1435 -0.0143 -0.2214
 6625TIP3    H141290   6.414   3.931  13.872 -2.8183  0.9209 -0.2523
 6625TIP3    H241291   6.471   3.938  13.732  0.9358  0.0175  1.1047
 6626TIP3   OH241292   5.586   2.607  13.274 -0.1812  0.2688 -0.7544
 6626TIP3    H141293   5.544   2.521  13.280  0.2696 -0.0540 -1.9274
 6626TIP3    H241294   5.642   2.611  13.352  0.2797 -0.7835 -1.0124
 6627TIP3   OH241295   5.879   3.495   4.271  0.1887 -0.5067 -0.0661
 6627TIP3    H141296   5.912   3.410   4.301 -0.8665 -0.9553 -0.1444
 6627TIP3    H241297   5.785   3.491   4.287  0.1367  0.6728 -0.0346
 6628TIP3   OH241298   4.929   0.038  12.132 -0.1432 -0.4950 -0.2137
 6628TIP3    H141299   4.912  -0.055  12.116 -1.6203 -0.4093  0.6064
 6628TIP3    H241300   4.847   0.081  12.106  0.8627  0.6999 -1.4971
 6629TIP3   OH241301   6.039   6.108  14.897  0.5099  0.6918  0.0291
 6629TIP3    H141302   6.035   6.054  14.976 -0.2136 -0.2776 -0.6528
 6629TIP3    H241303   6.093   6.058  14.837 -0.1250  0.7405 -0.5924
 6630TIP3   OH241304   6.454   3.828  16.817 -0.0189  0.3950  0.7760
 6630TIP3    H141305   6.481   3.793  16.902  0.9059 -0.6018  0.1072
 6630TIP3    H241306   6.454   3.752  16.759  0.4218  1.2363 -0.3634
 6631TIP3   OH241307   2.650   6.119   1.849 -0.0052  0.0205 -0.1492
 6631TIP3    H141308   2.655   6.024   1.853 -0.8669 -0.0564 -0.5843
 6631TIP3    H241309   2.557   6.138   1.834 -0.2181  1.0079  1.9993
 6632TIP3   OH241310   0.395   3.709  11.287 -0.9723  0.4585  0.0335
 6632TIP3    H141311   0.460   3.639  11.287 -2.0921 -0.6500  1.0320
 6632TIP3    H241312   0.353   3.703  11.201 -0.1410  0.8078 -0.3979
 6633TIP3   OH241313   2.161   0.495  13.533 -0.6238  0.2268 -0.2208
 6633TIP3    H141314   2.255   0.481  13.520 -0.0118  1.7463  1.9512
 6633TIP3    H241315   2.119   0.423  13.486  1.6925 -1.5056  0.1746
 6634TIP3   OH241316   2.846   3.959  12.195 -0.0341 -0.1694  0.0426
 6634TIP3    H141317   2.875   3.869  12.208 -0.9139 -0.2848  1.5205
 6634TIP3    H241318   2.865   4.003  12.278 -1.0109  0.5909 -0.1103
 6635TIP3   OH241319   6.247   4.053   2.840 -0.0508 -0.5462  0.0897
 6635TIP3    H141320   6.273   4.136   2.801  1.4828 -0.6745  0.7776
 6635TIP3    H241321   6.196   4.077   2.917 -1.5496 -0.2852 -0.9462
 6636TIP3   OH241322   3.615   2.186   1.385  0.2957 -0.6255 -0.4243
 6636TIP3    H141323   3.560   2.259   1.357  1.0830  1.1935  2.3957
 6636TIP3    H241324   3.554   2.122   1.423 -0.0424  1.1718  2.2780
 6637TIP3   OH241325   2.031   4.943  14.107  0.3479 -0.1223  0.1795
 6637TIP3    H141326   2.002   5.030  14.134 -0.3308 -0.1705 -0.3703
 6637TIP3    H241327   2.123   4.954  14.085  0.2753  0.4439  0.1531
 6638TIP3   OH241328   6.684   4.306  14.523  0.6480  0.1079  0.2609
 6638TIP3    H141329   6.592   4.330  14.511  0.2529 -2.5555 -3.7086
 6638TIP3    H241330   6.733   4.370  14.472  0.7065 -0.3276 -0.2314
 6639TIP3   OH241331   6.086   6.225   0.141 -0.0688  0.1530  0.0530
 6639TIP3    H141332   6.180   6.243   0.131 -0.1958  0.2439 -1.1352
 6639TIP3    H241333   6.073   6.143   0.093 -0.3514 -0.6575  1.4445
 6640TIP3   OH241334   0.767   2.759   6.106  0.5118  0.3680 -0.0340
 6640TIP3    H141335   0.783   2.688   6.168  3.2733 -0.0158 -1.0276
 6640TIP3    H241336   0.744   2.834   6.161 -0.6830 -0.8171  1.1618
 6641TIP3   OH241337   4.576   6.517   1.452 -0.2210 -0.1065 -0.2942
 6641TIP3    H141338   4.649   6.567   1.416 -0.8567  0.6817 -0.5094
 6641TIP3    H241339   4.617   6.458   1.515  0.9059 -1.4702 -2.2043
 6642TIP3   OH241340   2.034   4.128  12.409 -0.0882  0.7064  0.3674
 6642TIP3    H141341   1.952   4.164  12.441 -0.5268  0.2597 -0.2412
 6642TIP3    H241342   2.066   4.073  12.481  0.0083  1.3807  0.8522
 6643TIP3   OH241343   2.520   2.463  13.838 -0.4529 -0.0071 -0.3289
 6643TIP3    H141344   2.434   2.489  13.805 -0.7367  0.4265  0.7301
 6643TIP3    H241345   2.577   2.468  13.761 -1.2952  0.0229 -0.9689
 6644TIP3   OH241346   1.032   2.240  12.215 -0.0571  0.3187  0.9515
 6644TIP3    H141347   0.996   2.177  12.278 -2.2692 -0.6004 -1.0899
 6644TIP3    H241348   1.047   2.189  12.135 -1.3351  2.2005 -0.5777
 6645TIP3   OH241349   5.958   4.205  14.441 -0.3633 -0.2421 -0.1412
 6645TIP3    H141350   5.884   4.228  14.385 -0.5051 -2.5823 -1.0473
 6645TIP3    H241351   6.031   4.192  14.380 -0.5717 -3.0403  0.0437
 6646TIP3   OH241352   0.181   0.334   2.665 -0.1398 -0.2075 -0.6702
 6646TIP3    H141353   0.257   0.314   2.610  1.6003  0.8921  1.2052
 6646TIP3    H241354   0.142   0.412   2.626 -0.2926 -0.7170 -1.5783
 6647TIP3   OH241355   5.059   4.909   2.775  0.8909 -0.3363  0.1753
 6647TIP3    H141356   5.045   4.875   2.687  0.0931 -0.5540  0.3759
 6647TIP3    H241357   5.118   4.983   2.764 -0.8424  0.9610 -0.8010
 6648TIP3   OH241358   6.528   6.018  12.601  0.1993  0.4138 -0.1474
 6648TIP3    H141359   6.467   5.988  12.534 -0.9667 -0.8895  1.4405
 6648TIP3    H241360   6.489   6.099  12.634 -0.9172 -0.5732  1.0779
 6649TIP3   OH241361   0.466   6.221  15.662 -0.1841 -0.4725 -0.4867
 6649TIP3    H141362   0.423   6.178  15.736 -0.5436 -2.2089 -1.6431
 6649TIP3    H241363   0.481   6.311  15.692 -0.7372 -0.9895  1.5028
 6650TIP3   OH241364   0.764   4.380   2.623 -0.3859 -0.4157 -0.7826
 6650TIP3    H141365   0.830   4.338   2.567  0.4631 -0.6676  0.3766
 6650TIP3    H241366   0.801   4.465   2.645 -0.5902 -0.4303 -0.3781
 6651TIP3   OH241367   0.188   1.623   1.594 -0.1822 -0.1108  0.6187
 6651TIP3    H141368   0.220   1.700   1.640  0.9090 -0.5065  0.5477
 6651TIP3    H241369   0.208   1.550   1.652  4.0523 -1.0264 -1.5932
 6652TIP3   OH241370   4.447   5.387   2.692 -0.0570 -0.5980  0.6107
 6652TIP3    H141371   4.476   5.440   2.766 -1.3499  1.1194 -0.0501
 6652TIP3    H241372   4.372   5.434   2.656 -0.9312 -2.6015 -0.3812
 6653TIP3   OH241373   0.628   5.469   0.270 -0.3693 -0.2288  0.6236
 6653TIP3    H141374   0.639   5.374   0.270 -2.0014 -0.4792 -0.8139
 6653TIP3    H241375   0.660   5.497   0.184 -2.1583  0.1741  0.0578
 6654TIP3   OH241376   4.344   3.515  16.151  0.1046 -0.0706 -0.0896
 6654TIP3    H141377   4.326   3.460  16.075  0.5943  0.1196 -0.3518
 6654TIP3    H241378   4.374   3.598  16.114  0.7297 -0.1125  0.3098
 6655TIP3   OH241379   0.741   1.829  13.210  0.2593 -0.8514 -0.3793
 6655TIP3    H141380   0.781   1.872  13.286 -0.4709  0.5552 -0.7516
 6655TIP3    H241381   0.647   1.850  13.218  0.4370  1.5499 -2.9751
 6656TIP3   OH241382   3.876   1.738  16.907  0.3235  0.5472 -0.4035
 6656TIP3    H141383   3.806   1.726  16.971 -0.5356  0.5568 -1.3151
 6656TIP3    H241384   3.927   1.656  16.911  0.0942  0.4244  0.0589
 6657TIP3   OH241385   1.679   6.593  15.105 -0.3674 -0.1781  0.5276
 6657TIP3    H141386   1.765   6.553  15.089 -0.1888  0.6397 -0.6756
 6657TIP3    H241387   1.700   6.681  15.139 -0.7193  0.0843  0.0694
 6658TIP3   OH241388   5.004   3.094   4.872 -0.5877  0.0764  0.6332
 6658TIP3    H141389   4.923   3.106   4.822  0.2590  2.9481 -0.2954
 6658TIP3    H241390   5.010   3.000   4.887 -3.8958 -0.2716  0.4683
 6659TIP3   OH241391   4.907   5.879   5.485  0.2818 -0.3898 -0.1232
 6659TIP3    H141392   4.817   5.854   5.505 -0.3191 -0.8511 -2.9158
 6659TIP3    H241393   4.899   5.944   5.415  2.1201 -0.8090 -0.7847
 6660TIP3   OH241394   1.214   4.068  16.392  0.3096  0.2014 -0.0246
 6660TIP3    H141395   1.253   4.035  16.473 -0.4682  0.8732  0.6322
 6660TIP3    H241396   1.185   4.156  16.413 -1.3586 -0.1812 -0.5457
 6661TIP3   OH241397   1.782   6.224  11.791 -0.1765 -0.1589 -0.5347
 6661TIP3    H141398   1.799   6.312  11.826  0.1879 -0.4537  0.0505
 6661TIP3    H241399   1.687   6.215  11.793 -0.2534  0.4326 -1.1336
 6662TIP3   OH241400   2.437   6.313   2.791  0.1715  0.1671  0.1961
 6662TIP3    H141401   2.485   6.391   2.764 -1.9944  1.6115  0.3212
 6662TIP3    H241402   2.443   6.254   2.715 -0.0568  1.4034 -0.8184
 6663TIP3   OH241403   3.204   2.147   2.513  0.7006 -0.8072 -0.3298
 6663TIP3    H141404   3.251   2.113   2.589  1.1239 -0.9886 -0.6713
 6663TIP3    H241405   3.192   2.071   2.456  3.1505 -0.1115 -1.8954
 6664TIP3   OH241406   4.199   4.771  15.597 -0.0230  0.5638 -0.1636
 6664TIP3    H141407   4.131   4.756  15.531  1.2548  1.3848 -1.7319
 6664TIP3    H241408   4.200   4.691  15.650 -0.7320 -0.3246 -1.4600
 6665TIP3   OH241409   6.539   4.880   3.645  0.0802 -0.0399  0.4310
 6665TIP3    H141410   6.558   4.866   3.552 -0.3093  0.5738  0.2520
 6665TIP3    H241411   6.567   4.970   3.662 -2.3330  0.8167  0.2234
 6666TIP3   OH241412   0.386   6.412  13.003 -0.1238 -0.1293  0.0315
 6666TIP3    H141413   0.469   6.382  13.040 -0.3778 -0.3331  0.4524
 6666TIP3    H241414   0.321   6.388  13.069 -0.6202 -0.6955 -0.6459
 6667TIP3   OH241415   1.745   2.934   2.180  0.3222  0.1236  0.1331
 6667TIP3    H141416   1.789   2.849   2.176  1.0318  0.4720  0.4133
 6667TIP3    H241417   1.756   2.972   2.093 -0.2176 -0.1737 -0.0705
 6668TIP3   OH241418   3.111   6.463  14.393 -0.1194 -0.3977 -0.6139
 6668TIP3    H141419   3.188   6.411  14.368 -0.4051 -1.1140 -0.0426
 6668TIP3    H241420   3.083   6.505  14.311  1.9765  1.4114 -0.5018
 6669TIP3   OH241421   3.986   3.440  14.111 -0.2157 -0.5033  0.1187
 6669TIP3    H141422   3.922   3.477  14.172  1.3385  1.3584  0.7363
 6669TIP3    H241423   4.024   3.366  14.158  1.4748  1.3362  1.8189
 6670TIP3   OH241424   5.993   6.566   0.962  0.0184 -0.5429  1.2405
 6670TIP3    H141425   6.044   6.629   0.911  0.0895 -1.6945 -0.1599
 6670TIP3    H241426   5.992   6.603   1.050  1.4990  0.5613  0.8402
 6671TIP3   OH241427   6.707   5.437  14.450 -0.0238  0.6850  0.0917
 6671TIP3    H141428   6.661   5.383  14.514  1.3628 -0.1944  0.3924
 6671TIP3    H241429   6.666   5.415  14.367 -1.9174  1.9198  0.6358
 6672TIP3   OH241430   3.334   6.096  12.870 -0.2798 -0.3166 -0.7785
 6672TIP3    H141431   3.380   6.083  12.953 -0.8796  0.9603 -0.2078
 6672TIP3    H241432   3.401   6.089  12.803  0.2617 -1.1238 -0.1642
 6673TIP3   OH241433   0.883   3.666   6.141  0.4256 -0.9980 -0.2067
 6673TIP3    H141434   0.838   3.750   6.132  0.7599 -0.5312  2.0722
 6673TIP3    H241435   0.817   3.601   6.119 -0.8000 -0.2389  1.1098
 6674TIP3   OH241436   1.577   0.217   0.581 -0.1244 -0.8172 -0.5623
 6674TIP3    H141437   1.585   0.296   0.527 -0.1771  0.4600  1.2142
 6674TIP3    H241438   1.664   0.203   0.617 -0.4403 -0.7029  0.2685
 6675TIP3   OH241439   4.447   6.448  15.931 -0.6804 -0.2163 -0.1790
 6675TIP3    H141440   4.352   6.447  15.917 -0.5697 -0.9757 -0.9933
 6675TIP3    H241441   4.467   6.539  15.952 -1.5450  0.0121 -0.2799
 6676TIP3   OH241442   1.489   4.157   0.424 -0.3699 -0.2144 -0.6460
 6676TIP3    H141443   1.543   4.078   0.431 -1.4494 -0.9494 -0.1941
 6676TIP3    H241444   1.517   4.212   0.498  0.9579  0.2188 -1.4408
 6677TIP3   OH241445   5.255   1.075   4.761  0.0501  0.5848  0.0180
 6677TIP3    H141446   5.320   1.056   4.693 -1.5694 -1.1681 -1.1520
 6677TIP3    H241447   5.208   1.152   4.727 -0.5826 -0.1258 -0.7610
 6678TIP3   OH241448   4.229   2.609  12.300 -0.1791  0.8503  0.3872
 6678TIP3    H141449   4.215   2.625  12.206 -0.0220  0.8489  0.3627
 6678TIP3    H241450   4.143   2.584  12.333  0.1392 -1.2790 -0.1826
 6679TIP3   OH241451   4.172   6.334  12.289  0.0608  0.2209  0.1242
 6679TIP3    H141452   4.170   6.360  12.381 -1.2317  0.5064  0.0381
 6679TIP3    H241453   4.171   6.416  12.241 -0.0712  0.0624 -0.1462
 6680TIP3   OH241454   5.522   4.549  11.236 -0.2190 -0.0395 -0.8263
 6680TIP3    H141455   5.569   4.632  11.228 -1.6718  1.0022  0.7228
 6680TIP3    H241456   5.432   4.574  11.260 -1.2215 -1.9969 -2.2109
 6681TIP3   OH241457   2.346   4.812   3.368 -0.5752  0.5642  0.5415
 6681TIP3    H141458   2.387   4.817   3.281  0.2781 -1.7837  0.7159
 6681TIP3    H241459   2.389   4.880   3.419 -1.8108  2.6948 -1.0743
 6682TIP3   OH241460   0.082   4.145  14.027 -0.1268  0.3233  0.1204
 6682TIP3    H141461   0.167   4.102  14.030  0.3112  1.1059 -0.5697
 6682TIP3    H241462   0.044   4.128  14.113  1.0683  0.6312  0.7394
 6683TIP3   OH241463   2.886   3.103  12.335  0.4632 -0.1372  0.0374
 6683TIP3    H141464   2.842   3.027  12.373 -0.7913 -0.7644 -2.4430
 6683TIP3    H241465   2.886   3.086  12.241  2.5116  1.7450 -0.3990
 6684TIP3   OH241466   3.424   3.956  12.639  0.0346 -0.1072  0.2068
 6684TIP3    H141467   3.509   3.967  12.595 -0.0950 -0.9140 -0.2609
 6684TIP3    H241468   3.442   3.894  12.710 -0.3079 -0.8393 -0.3366
 6685TIP3   OH241469   0.349   6.215  15.427 -0.2256  0.3489 -0.2332
 6685TIP3    H141470   0.401   6.240  15.504 -0.4180 -0.0519  0.0266
 6685TIP3    H241471   0.384   6.270  15.357 -0.2462  0.9345  0.2025
 6686TIP3   OH241472   3.192   1.374   0.704 -0.0983  0.6070 -0.1440
 6686TIP3    H141473   3.181   1.283   0.676 -1.5685  0.1038  1.8409
 6686TIP3    H241474   3.127   1.422   0.652 -1.1923  0.0690  0.6965
 6687TIP3   OH241475   3.508   3.594   1.017 -0.6569  0.5928 -0.3233
 6687TIP3    H141476   3.457   3.515   1.002 -0.2788  0.3308 -0.2497
 6687TIP3    H241477   3.599   3.565   1.017 -0.5786  0.6187  1.9492
 6688TIP3   OH241478   3.010   2.471  11.034  0.5026  0.1504  0.1053
 6688TIP3    H141479   3.093   2.433  11.060  0.1882 -0.2107  0.5944
 6688TIP3    H241480   2.944   2.419  11.080  0.0487  1.0109  0.4632
 6689TIP3   OH241481   2.665   4.955   2.711 -0.6813  0.2668  0.5012
 6689TIP3    H141482   2.676   5.010   2.789  1.5440 -1.8933  1.8730
 6689TIP3    H241483   2.629   4.873   2.745 -0.8189 -0.2909 -0.9512
 6690TIP3   OH241484   0.463   3.629  12.334  0.2507  0.0917 -0.1593
 6690TIP3    H141485   0.412   3.587  12.404 -1.1147 -0.5962 -1.5142
 6690TIP3    H241486   0.527   3.683  12.381 -1.5465  0.8047  1.6351
 6691TIP3   OH241487   2.386   5.479   5.036  0.1989 -0.4433  0.0559
 6691TIP3    H141488   2.440   5.549   4.998  0.2811 -1.1182 -1.1195
 6691TIP3    H241489   2.449   5.420   5.077  0.2429 -0.5162 -0.1157
 6692TIP3   OH241490   6.638   3.431   1.473 -0.4793  0.6777 -0.6766
 6692TIP3    H141491   6.628   3.476   1.557  0.5852  0.6017 -0.4994
 6692TIP3    H241492   6.557   3.382   1.463 -1.0774  1.5413 -0.2107
 6693TIP3   OH241493   6.045   3.229   4.391  0.4799  0.0865 -0.1743
 6693TIP3    H141494   6.084   3.169   4.455  1.7070 -0.5861 -1.5063
 6693TIP3    H241495   5.951   3.208   4.394  0.3099  0.8635  2.1684
 6694TIP3   OH241496   2.707   4.285   1.369  0.0890  0.3960 -0.2758
 6694TIP3    H141497   2.682   4.196   1.395 -1.2551  0.2979 -1.7427
 6694TIP3    H241498   2.703   4.284   1.274 -3.5374  2.9081 -0.3840
 6695TIP3   OH241499   2.097   5.188   4.144  0.2057  0.6941  0.1191
 6695TIP3    H141500   2.137   5.223   4.064  1.2717  0.1939  0.4190
 6695TIP3    H241501   2.054   5.264   4.184  1.3046  1.3724  0.0481
 6696TIP3   OH241502   2.566   0.824  11.046  0.1305  0.0133 -0.0656
 6696TIP3    H141503   2.626   0.831  11.120 -0.3299  1.5142  0.2192
 6696TIP3    H241504   2.566   0.732  11.023 -0.7389 -0.7693  2.6822
 6697TIP3   OH241505   5.318   5.060  13.610 -0.4449 -0.3644 -0.5617
 6697TIP3    H141506   5.396   5.091  13.565  0.6753 -1.9210  0.1940
 6697TIP3    H241507   5.277   5.139  13.645  1.3961  0.4158 -0.0536
 6698TIP3   OH241508   4.492   2.401   3.481  0.1769  0.2399  0.7519
 6698TIP3    H141509   4.480   2.339   3.409  1.6065 -0.6905  1.2729
 6698TIP3    H241510   4.579   2.382   3.515  0.5420  2.3336  1.1487
 6699TIP3   OH241511   3.794   3.691  13.648  0.2016 -0.6421  0.1758
 6699TIP3    H141512   3.706   3.722  13.670  0.1297 -0.8004  0.1139
 6699TIP3    H241513   3.798   3.603  13.684  0.2364 -0.7380 -0.0613
 6700TIP3   OH241514   5.786   4.330   2.666 -0.5511 -0.2634  0.5564
 6700TIP3    H141515   5.755   4.420   2.673 -1.3563 -0.6675  3.9213
 6700TIP3    H241516   5.732   4.292   2.596 -0.4440  1.6864 -0.6725
 6701TIP3   OH241517   0.936   0.617  11.986 -0.1092  0.6698  0.1712
 6701TIP3    H141518   0.864   0.597  12.046 -0.4117  1.0377 -0.0644
 6701TIP3    H241519   0.904   0.586  11.901  0.9617 -1.3729  0.4350
 6702TIP3   OH241520   0.788   4.915   2.271 -0.0648 -0.0772 -0.3563
 6702TIP3    H141521   0.730   4.843   2.249 -2.2484  0.5071  2.8338
 6702TIP3    H241522   0.733   4.993   2.262  1.9922  1.2522 -2.8715
 6703TIP3   OH241523   1.133   1.139  15.651 -0.0326  0.2351 -0.2225
 6703TIP3    H141524   1.169   1.198  15.718 -1.9763  1.4058 -0.1369
 6703TIP3    H241525   1.108   1.061  15.700  0.6234  0.1658  0.0192
 6704TIP3   OH241526   6.010   0.431  16.845  0.4558 -0.3820  0.2033
 6704TIP3    H141527   5.980   0.344  16.818  0.5451 -1.0035  1.9592
 6704TIP3    H241528   6.096   0.441  16.804 -0.1513 -0.5155 -1.1472
 6705TIP3   OH241529   4.369   5.821  13.649  0.1883 -0.0838 -0.6230
 6705TIP3    H141530   4.326   5.744  13.611  0.2376  0.4809 -1.8681
 6705TIP3    H241531   4.313   5.895  13.622 -0.4837  0.2422  1.4824
 6706TIP3   OH241532   1.924   2.989   4.050 -0.3553 -0.0520 -0.0457
 6706TIP3    H141533   1.980   2.956   3.981 -2.4988  0.8861 -2.3877
 6706TIP3    H241534   1.954   3.078   4.066  0.9251 -0.6715  1.1939
 6707TIP3   OH241535   0.546   1.416  12.589 -0.0164 -0.4355 -0.0495
 6707TIP3    H141536   0.471   1.384  12.539  1.6998 -1.6650 -2.0425
 6707TIP3    H241537   0.569   1.343  12.647 -0.2723 -0.1238  0.4438
 6708TIP3   OH241538   5.371   0.189  13.231  0.3373  0.2999  0.5033
 6708TIP3    H141539   5.409   0.159  13.313 -0.1401 -1.0420  0.2524
 6708TIP3    H241540   5.276   0.191  13.247 -0.0121 -2.3733 -0.6931
 6709TIP3   OH241541   3.902   1.620  10.965 -0.4983 -0.1040 -0.3946
 6709TIP3    H141542   3.870   1.557  11.029  0.4666  0.1179  0.3222
 6709TIP3    H241543   3.838   1.691  10.967  0.7622  1.1035  2.2166
 6710TIP3   OH241544   2.909   4.366  12.115  0.0582 -0.1867  0.1753
 6710TIP3    H141545   2.864   4.370  12.200 -1.3686  0.2292 -0.5711
 6710TIP3    H241546   2.855   4.419  12.057  2.5089  1.9058 -0.3638
 6711TIP3   OH241547   4.388   6.370  11.084  0.1709  0.3554  0.3218
 6711TIP3    H141548   4.460   6.425  11.117  1.4770 -0.6146 -0.7771
 6711TIP3    H241549   4.319   6.432  11.061  0.9508  1.3892  0.6800
 6712TIP3   OH241550   1.868   0.905   1.472  0.1059 -0.3100  0.5953
 6712TIP3    H141551   1.798   0.963   1.503 -0.6393 -1.2915  0.7950
 6712TIP3    H241552   1.824   0.823   1.450  0.6843  0.0708 -2.4308
 6713TIP3   OH241553   3.277   0.857   0.992 -0.1273 -0.3361  0.3941
 6713TIP3    H141554   3.341   0.822   0.930  1.1871  0.1528  1.4205
 6713TIP3    H241555   3.223   0.782   1.015  0.5589 -0.9496  0.0625
 6714TIP3   OH241556   3.243   1.468  13.038  0.5309 -0.3312  0.1962
 6714TIP3    H141557   3.244   1.464  13.133 -0.1303 -0.5621  0.2032
 6714TIP3    H241558   3.209   1.555  13.017 -0.5280 -0.7248  0.1953
 6715TIP3   OH241559   0.090   0.125   2.519  1.1034 -0.0179  0.0835
 6715TIP3    H141560   0.118   0.043   2.560 -0.5421 -0.0801  1.1607
 6715TIP3    H241561   0.086   0.188   2.591  2.1650  1.0078 -0.6995
 6716TIP3   OH241562   2.556   6.691  11.057  0.4431  0.7363  0.4024
 6716TIP3    H141563   2.548   6.688  11.153 -2.7694 -0.5407  0.2051
 6716TIP3    H241564   2.638   6.645  11.039 -0.6387 -2.3067  2.4518
 6717TIP3   OH241565   3.876   1.090   0.878  0.5725  0.5997  0.4035
 6717TIP3    H141566   3.797   1.038   0.892 -0.1155  1.4029 -0.3362
 6717TIP3    H241567   3.916   1.097   0.965  0.5438 -0.9008  0.5591
 6718TIP3   OH241568   0.266   0.287   3.228  0.2405 -0.5941  0.5621
 6718TIP3    H141569   0.270   0.200   3.188  0.5373  0.0975 -0.9992
 6718TIP3    H241570   0.235   0.344   3.158 -1.1514  0.3739  1.9105
 6719TIP3   OH241571   5.627   4.938  12.925 -0.3166  0.3070 -0.1114
 6719TIP3    H141572   5.562   4.881  12.967  0.3882  0.0004  0.5984
 6719TIP3    H241573   5.620   5.021  12.974 -0.4140  0.3955 -0.2733
 6720TIP3   OH241574   4.662   4.849   2.645  0.2584  0.2043 -0.0563
 6720TIP3    H141575   4.703   4.819   2.725 -1.4252  0.2734  0.8841
 6720TIP3    H241576   4.705   4.932   2.625 -1.0459  1.5619  2.3136
 6721TIP3   OH241577   0.487   0.084   2.384 -0.2007 -0.1311 -0.3299
 6721TIP3    H141578   0.536   0.024   2.327  0.0150  0.1489 -0.4381
 6721TIP3    H241579   0.430   0.132   2.325  1.1089  1.2415 -0.5248
 6722TIP3   OH241580   5.364   0.120   3.759  0.0081 -0.0199  0.0648
 6722TIP3    H141581   5.408   0.049   3.712 -0.9926  0.0821 -1.0892
 6722TIP3    H241582   5.416   0.198   3.738  0.9588 -0.3385  1.1245
 6723TIP3   OH241583   1.064   6.100  12.381 -0.1257  0.2640 -0.1456
 6723TIP3    H141584   1.149   6.144  12.389  0.2172 -0.0558 -1.7925
 6723TIP3    H241585   1.081   6.011  12.412  0.7464 -0.4584 -2.5249
 6724TIP3   OH241586   3.733   2.180   0.539  0.5717 -1.1885  0.2330
 6724TIP3    H141587   3.714   2.113   0.473 -1.1738 -0.1658 -0.3978
 6724TIP3    H241588   3.653   2.184   0.592  0.1330  1.1360 -0.4732
 6725TIP3   OH241589   1.917   1.088   0.172  0.1302 -0.3007  0.3167
 6725TIP3    H141590   2.009   1.088   0.198  1.0955 -1.1985 -2.6653
 6725TIP3    H241591   1.878   1.012   0.216  1.2358 -0.8516  0.3566
 6726TIP3   OH241592   0.364   3.303   5.428 -0.0562  0.0821 -0.3515
 6726TIP3    H141593   0.338   3.373   5.488  0.0937 -0.7138  0.6574
 6726TIP3    H241594   0.445   3.268   5.465 -0.3125 -0.8579 -0.6440
 6727TIP3   OH241595   2.786   3.246  12.758  0.2429  0.0567 -0.4022
 6727TIP3    H141596   2.761   3.169  12.706 -0.0522  0.2581 -0.5616
 6727TIP3    H241597   2.804   3.313  12.692  0.0557  0.2573 -0.2483
 6728TIP3   OH241598   0.948   6.570  15.513 -0.3518 -0.5092  0.2793
 6728TIP3    H141599   1.028   6.605  15.554  0.2369 -2.3866  0.8320
 6728TIP3    H241600   0.954   6.598  15.422 -0.2766  1.3756  0.8127
 6729TIP3   OH241601   1.684   6.381   6.345 -0.0438  0.0640 -0.4790
 6729TIP3    H141602   1.644   6.429   6.274 -0.4277 -1.1541 -1.1167
 6729TIP3    H241603   1.770   6.422   6.357 -0.1235  0.5187 -1.3970
 6730TIP3   OH241604   2.578   5.613  13.066 -0.5609 -0.2152  0.7870
 6730TIP3    H141605   2.639   5.544  13.043 -1.0633 -0.8159  1.2149
 6730TIP3    H241606   2.630   5.677  13.114 -0.0849 -0.2758  0.3552
 6731TIP3   OH241607   6.341   2.007  11.211  0.1257 -0.1819 -0.1227
 6731TIP3    H141608   6.427   1.978  11.242  0.6092  0.8955 -0.4126
 6731TIP3    H241609   6.348   2.003  11.115 -0.4119 -0.8151 -0.1407
 6732TIP3   OH241610   5.064   6.319  16.447  0.5063  0.2994  0.2115
 6732TIP3    H141611   5.037   6.233  16.480 -0.1601  1.0037  1.5651
 6732TIP3    H241612   4.989   6.375  16.463  0.5785  0.9534 -1.5345
 6733TIP3   OH241613   3.850   5.198  16.591 -0.4029 -0.2901  0.7734
 6733TIP3    H141614   3.902   5.264  16.545 -0.1817  1.4387  3.3380
 6733TIP3    H241615   3.911   5.126  16.606 -0.2923 -0.5932 -0.9327
 6734TIP3   OH241616   1.383   3.529   4.622  0.2546 -0.7087  0.3047
 6734TIP3    H141617   1.472   3.509   4.651 -0.0784 -2.2467  0.3791
 6734TIP3    H241618   1.341   3.443   4.612 -1.4175 -0.0109  0.8612
 6735TIP3   OH241619   2.697   0.266   1.074 -0.6449 -0.3189 -0.2432
 6735TIP3    H141620   2.675   0.332   1.008 -1.6106 -0.8723 -0.4856
 6735TIP3    H241621   2.655   0.298   1.154  0.6389  0.4227  0.1653
 6736TIP3   OH241622   4.242   6.783   5.243  0.3432  0.5372 -0.2377
 6736TIP3    H141623   4.227   6.700   5.197  0.1729  0.5239 -0.1588
 6736TIP3    H241624   4.193   6.848   5.192 -1.7461  0.1609  1.1753
 6737TIP3   OH241625   2.900   3.938  15.864  0.6763  0.1194  0.1892
 6737TIP3    H141626   2.870   3.953  15.954  0.3647 -0.2608  0.1531
 6737TIP3    H241627   2.968   4.005  15.849 -0.6899  1.5170  0.0021
 6738TIP3   OH241628   5.949   0.284  14.108  0.1800  0.1820  0.6803
 6738TIP3    H141629   5.866   0.300  14.064 -1.6338 -2.8760  2.5691
 6738TIP3    H241630   5.932   0.308  14.199  1.8485  0.7403  0.8682
 6739TIP3   OH241631   3.805   5.462   5.170  0.2977 -0.3479 -0.4547
 6739TIP3    H141632   3.799   5.473   5.265  1.5610 -0.0506 -0.4019
 6739TIP3    H241633   3.893   5.430   5.155  0.6886  1.1673 -1.6613
 6740TIP3   OH241634   5.023   1.499  13.724 -0.0615 -0.2728 -0.5742
 6740TIP3    H141635   4.991   1.422  13.770 -3.0335  0.7651 -0.6758
 6740TIP3    H241636   5.114   1.507  13.751 -0.9541 -1.0447  3.3020
 6741TIP3   OH241637   0.690   3.841  11.194 -0.1789  0.0562 -0.3750
 6741TIP3    H141638   0.768   3.870  11.147  1.0120 -1.3745  0.6102
 6741TIP3    H241639   0.724   3.787  11.265 -2.0901 -1.1536 -0.2947
 6742TIP3   OH241640   2.527   4.999  15.203  0.2600 -0.3332 -0.1750
 6742TIP3    H141641   2.582   5.078  15.200  0.0425 -0.2051 -1.1701
 6742TIP3    H241642   2.589   4.926  15.205  0.4702 -0.1771 -0.8425
 6743TIP3   OH241643   2.115   1.892   3.428  0.2520  0.3959  0.3945
 6743TIP3    H141644   2.115   1.949   3.351  0.1681  0.6693  0.5957
 6743TIP3    H241645   2.192   1.919   3.478 -0.2051  0.8491  0.8653
 6744TIP3   OH241646   6.364   0.093   0.410  0.3768 -0.2438 -0.0668
 6744TIP3    H141647   6.365   0.019   0.470  1.1390  0.9200  1.4156
 6744TIP3    H241648   6.394   0.057   0.327 -1.5889 -2.0868 -0.0591
 6745TIP3   OH241649   3.370   4.467   2.187  0.1047  0.4869  0.6533
 6745TIP3    H141650   3.416   4.547   2.162  0.3120 -0.0238 -0.6541
 6745TIP3    H241651   3.313   4.447   2.113 -0.7065 -0.0261  1.3897
 6746TIP3   OH241652   3.494   5.866   6.476 -0.2575  0.0252 -0.2242
 6746TIP3    H141653   3.485   5.793   6.415 -2.1362  1.1416 -1.4092
 6746TIP3    H241654   3.405   5.901   6.484  0.2089  0.8708  1.9999
 6747TIP3   OH241655   2.156   5.783   0.972  0.0292  0.0754 -0.2748
 6747TIP3    H141656   2.237   5.834   0.980  0.0937  0.1432 -1.2414
 6747TIP3    H241657   2.149   5.737   1.056  1.5068 -0.5802 -0.4783
 6748TIP3   OH241658   3.246   6.380   3.832  0.4253  0.1265  0.2978
 6748TIP3    H141659   3.315   6.363   3.896 -0.2440 -4.2595  0.1175
 6748TIP3    H241660   3.292   6.416   3.756  2.0686 -0.0146  1.1909
 6749TIP3   OH241661   0.883   3.067   3.584  0.2560  0.0725  0.3436
 6749TIP3    H141662   0.826   3.035   3.513  0.5319  0.2653  0.0350
 6749TIP3    H241663   0.875   3.000   3.652 -0.9077  0.4469  0.6082
 6750TIP3   OH241664   2.637   4.791   3.680  0.4515 -0.6392 -0.2025
 6750TIP3    H141665   2.692   4.786   3.601  1.8041 -1.5745  0.7503
 6750TIP3    H241666   2.700   4.795   3.752 -0.7561 -0.9448  0.8943
 6751TIP3   OH241667   3.620   0.699  12.763  0.0325  0.8278 -0.3080
 6751TIP3    H141668   3.656   0.683  12.851  0.7429 -0.8399 -0.8556
 6751TIP3    H241669   3.526   0.687  12.774 -0.0027  1.6372  0.4139
 6752TIP3   OH241670   1.654   4.358   5.084 -0.0946 -0.2876  0.2455
 6752TIP3    H141671   1.716   4.384   5.152 -1.9371 -0.5603  2.1190
 6752TIP3    H241672   1.656   4.262   5.084  1.3550 -0.2965 -1.5414
 6753TIP3   OH241673   6.357   4.773   3.996 -0.3884  0.0033  0.0125
 6753TIP3    H141674   6.417   4.714   3.952  0.1389 -0.1358  0.8965
 6753TIP3    H241675   6.281   4.718   4.018  0.7096 -0.7766  2.1482
 6754TIP3   OH241676   4.129   1.179  12.605  0.4816  0.0795 -0.3049
 6754TIP3    H141677   4.184   1.256  12.619  1.3693 -0.5259 -0.3620
 6754TIP3    H241678   4.191   1.107  12.595 -0.3416 -0.7053  0.1041
 6755TIP3   OH241679   5.474   0.213  10.737 -0.2833  1.0721 -0.0508
 6755TIP3    H141680   5.473   0.309  10.734 -3.0614  1.1451  0.4167
 6755TIP3    H241681   5.419   0.191  10.812 -2.3075 -0.8641 -1.9636
 6756TIP3   OH241682   4.662   3.650  16.337  0.4857  0.0525 -0.2227
 6756TIP3    H141683   4.712   3.579  16.296  0.0260 -0.6052  0.3461
 6756TIP3    H241684   4.723   3.724  16.337  0.7444 -0.1361 -1.4281
 6757TIP3   OH241685   5.690   5.673  15.477  0.0836  0.5070  0.3586
 6757TIP3    H141686   5.722   5.582  15.477  0.1599  0.5059  2.0917
 6757TIP3    H241687   5.765   5.725  15.448  1.2450  0.3428  2.8372
 6758TIP3   OH241688   1.330   0.354  11.860 -0.0996  0.0771  0.3116
 6758TIP3    H141689   1.282   0.320  11.785 -1.2207  0.2164  0.9417
 6758TIP3    H241690   1.293   0.441  11.875  1.1338  0.6577  0.1412
 6759TIP3   OH241691   5.172   0.936  14.172 -0.1127  0.1233  0.2513
 6759TIP3    H141692   5.076   0.943  14.170 -0.3060 -2.0345 -0.2982
 6759TIP3    H241693   5.189   0.863  14.231  1.3700  2.0141  2.3491
 6760TIP3   OH241694   3.188   1.390   5.036  0.5325 -0.5003  0.3713
 6760TIP3    H141695   3.148   1.381   4.949 -0.4602 -1.1269  0.8673
 6760TIP3    H241696   3.238   1.471   5.031  0.9895 -0.8325 -0.9715
 6761TIP3   OH241697   5.080   5.422  16.973  0.6952  0.1219  0.1170
 6761TIP3    H141698   5.126   5.345  16.938  0.5540  0.6510 -1.3213
 6761TIP3    H241699   5.028   5.454  16.899  2.0002  2.5584  0.1225
 6762TIP3   OH241700   5.779   2.145   0.841  0.5027 -0.1224 -0.2472
 6762TIP3    H141701   5.690   2.145   0.805 -0.2018 -1.6937  1.3645
 6762TIP3    H241702   5.767   2.143   0.936  2.2059 -2.5211  0.0047
 6763TIP3   OH241703   1.922   6.571   2.192  0.0858 -0.8817  0.7108
 6763TIP3    H141704   1.918   6.630   2.117  0.9905 -0.3256  1.0888
 6763TIP3    H241705   1.879   6.619   2.263 -0.2683 -1.1830  0.7084
 6764TIP3   OH241706   5.252   0.350   5.058  0.2279  0.0250 -0.1310
 6764TIP3    H141707   5.321   0.415   5.042 -0.8965  0.8192 -2.0271
 6764TIP3    H241708   5.216   0.374   5.143  0.8262  0.9765 -0.1328
 6765TIP3   OH241709   3.089   5.903   2.742 -0.1776  0.2183 -0.0288
 6765TIP3    H141710   3.138   5.965   2.688 -0.9755  0.9331  0.0422
 6765TIP3    H241711   3.116   5.924   2.832  0.7062 -0.5783 -0.0924
 6766TIP3   OH241712   2.875   2.459   2.614  0.5038  0.2722  0.2335
 6766TIP3    H141713   2.836   2.387   2.662 -0.9249 -0.7793 -2.3041
 6766TIP3    H241714   2.945   2.419   2.562  0.1267  0.8056 -0.7103
 6767TIP3   OH241715   4.422   3.025  14.614 -0.1739 -0.1205 -0.2866
 6767TIP3    H141716   4.483   2.964  14.655  2.6151  2.1386 -0.7478
 6767TIP3    H241717   4.431   3.007  14.520 -0.1739  0.2735 -0.3604
 6768TIP3   OH241718   1.639   1.142  10.457  0.2375  0.2276 -0.3229
 6768TIP3    H141719   1.623   1.073  10.393  1.6890  0.1342 -0.6219
 6768TIP3    H241720   1.620   1.223  10.411  4.3823  0.4310 -2.1101
 6769TIP3   OH241721   3.516   3.627  13.657  0.6794  0.6008 -0.3107
 6769TIP3    H141722   3.472   3.672  13.585  0.7511  0.7603 -0.2552
 6769TIP3    H241723   3.497   3.534  13.642 -0.2591  0.7139  0.1029
 6770TIP3   OH241724   4.943   2.682   1.634  0.1718 -0.6896  0.0657
 6770TIP3    H141725   5.039   2.681   1.636  0.1722 -0.0912  0.6517
 6770TIP3    H241726   4.921   2.718   1.548  0.5099  1.4138  0.8040
 6771TIP3   OH241727   4.229   5.091  12.259  0.1317  0.4485 -0.5648
 6771TIP3    H141728   4.165   5.155  12.226  1.3123  2.1635  0.2898
 6771TIP3    H241729   4.176   5.031  12.313 -1.1833 -0.0534 -2.3251
 6772TIP3   OH241730   4.023   0.928   4.298  0.4846 -0.1892 -0.1266
 6772TIP3    H141731   4.025   0.990   4.225 -1.0300 -0.6062 -0.5666
 6772TIP3    H241732   4.071   0.852   4.266  1.0698  0.1791 -0.1375
 6773TIP3   OH241733   4.607   0.942   1.210  0.1599  0.1216 -0.0775
 6773TIP3    H141734   4.572   0.884   1.142  1.0673 -1.4174  0.6972
 6773TIP3    H241735   4.652   0.883   1.270 -1.8794  1.1943  2.7310
 6774TIP3   OH241736   5.039   2.699   2.164 -0.3134 -0.2040 -0.4348
 6774TIP3    H141737   5.112   2.715   2.223 -1.2506 -0.6519  0.8832
 6774TIP3    H241738   5.078   2.702   2.076  1.6339 -2.1586  0.2737
 6775TIP3   OH241739   3.207   1.451  12.014  0.3859  0.2220  0.6392
 6775TIP3    H141740   3.286   1.487  12.053  0.2501  1.6355 -0.3421
 6775TIP3    H241741   3.154   1.423  12.089  1.5904 -0.3113  1.3187
 6776TIP3   OH241742   5.669   1.303   4.418 -0.1339 -0.1823 -0.2457
 6776TIP3    H141743   5.615   1.345   4.485  0.6722  1.0951 -0.3609
 6776TIP3    H241744   5.704   1.225   4.461 -0.5098  0.0319  0.4710
 6777TIP3   OH241745   6.604   1.690  12.119  0.5270 -0.0937 -0.0806
 6777TIP3    H141746   6.678   1.747  12.101 -0.2543  0.4926 -1.6132
 6777TIP3    H241747   6.580   1.710  12.210  0.3912  1.9340 -0.5105
 6778TIP3   OH241748   4.950   6.193  17.090  0.0504  0.4942 -0.3474
 6778TIP3    H141749   4.916   6.254  17.025 -2.9211 -0.9812 -0.3518
 6778TIP3    H241750   5.007   6.134  17.040  0.7759  1.5772 -0.8348
 6779TIP3   OH241751   2.182   2.441  12.828 -0.2598  0.1303 -0.3783
 6779TIP3    H141752   2.235   2.506  12.781 -1.1894  0.2325 -1.3348
 6779TIP3    H241753   2.180   2.365  12.769 -0.9715  0.0472 -0.2527
 6780TIP3   OH241754   6.705   3.591   4.073  0.4324  0.9771 -0.2026
 6780TIP3    H141755   6.739   3.584   3.984 -0.6583  1.0952 -0.6379
 6780TIP3    H241756   6.753   3.524   4.122  3.5810  3.1338 -0.0176
 6781TIP3   OH241757   5.449   4.090   5.833  0.1567  0.4837  0.0540
 6781TIP3    H141758   5.515   4.153   5.861  0.7052 -0.4022  0.7974
 6781TIP3    H241759   5.373   4.108   5.888  0.4136  0.3059  0.4649
 6782TIP3   OH241760   3.878   3.562  10.284  0.3432  0.7034 -0.4601
 6782TIP3    H141761   3.801   3.607  10.319 -0.3677  0.4371 -1.6365
 6782TIP3    H241762   3.951   3.595  10.338 -0.9085 -1.3303  2.7716
 6783TIP3   OH241763   6.715   0.517  14.147  0.7045 -0.0240  0.0098
 6783TIP3    H141764   6.720   0.580  14.219  0.4179 -1.0263  0.9334
 6783TIP3    H241765   6.678   0.567  14.075  2.9649  1.5970 -0.1559
 6784TIP3   OH241766   5.553   1.391  11.609  0.2609  0.0278  0.1831
 6784TIP3    H141767   5.464   1.410  11.580 -0.1313 -0.0403  1.2796
 6784TIP3    H241768   5.552   1.411  11.703  1.0042 -1.2944  0.5003
 6785TIP3   OH241769   5.571   4.102  13.427 -0.9407  0.3176 -0.4000
 6785TIP3    H141770   5.487   4.087  13.470 -0.4269 -1.8107  0.0010
 6785TIP3    H241771   5.549   4.113  13.334 -1.5762 -3.2345 -0.8382
 6786TIP3   OH241772   0.705   0.664   6.299  1.1020  0.3574  0.2382
 6786TIP3    H141773   0.631   0.702   6.252  1.1603 -0.3077 -0.4148
 6786TIP3    H241774   0.686   0.680   6.392 -0.3274 -0.6139  0.1403
 6787TIP3   OH241775   6.114   1.415   0.450 -0.1977  0.4433 -0.1797
 6787TIP3    H141776   6.033   1.392   0.405 -0.5926  1.4948 -0.0250
 6787TIP3    H241777   6.123   1.348   0.518 -1.1146  0.5002  0.0111
 6788TIP3   OH241778   4.736   3.884   3.671 -0.2046 -0.0420 -0.3899
 6788TIP3    H141779   4.734   3.969   3.627  2.8612 -0.5196 -1.6630
 6788TIP3    H241780   4.790   3.898   3.748 -2.5992 -0.0940  1.4173
 6789TIP3   OH241781   6.745   6.489  11.316  0.0187 -0.3889 -0.0809
 6789TIP3    H141782   6.745   6.583  11.334 -0.2310 -0.4139  0.0492
 6789TIP3    H241783   6.829   6.473  11.274  0.0410 -0.0983 -0.1478
 6790TIP3   OH241784   2.971   0.436  15.878 -0.1248 -0.2666 -0.0775
 6790TIP3    H141785   2.892   0.485  15.899  0.5344  0.3718  1.0088
 6790TIP3    H241786   3.038   0.472  15.936  1.2346 -0.0482 -1.7055
 6791TIP3   OH241787   5.980   4.265  15.959 -0.6357 -0.2348 -0.4387
 6791TIP3    H141788   6.040   4.319  16.010  0.3926  0.0826 -1.9291
 6791TIP3    H241789   5.962   4.317  15.881  0.1466 -1.9222 -1.7792
 6792TIP3   OH241790   1.416   2.798  15.841 -0.0357  0.3939  0.0298
 6792TIP3    H141791   1.394   2.852  15.765 -0.3192  1.4952  0.8574
 6792TIP3    H241792   1.508   2.820  15.860 -0.0613  0.3587  0.1952
 6793TIP3   OH241793   0.793   0.034  11.678 -0.5705  0.1472  0.1108
 6793TIP3    H141794   0.852   0.079  11.618  0.2709 -2.9103 -1.5622
 6793TIP3    H241795   0.705   0.058  11.647 -0.1502  0.6604 -0.7086
 6794TIP3   OH241796   0.377   1.135  13.709 -0.3200 -0.7097 -0.0378
 6794TIP3    H141797   0.433   1.166  13.638 -0.7834 -0.2569 -0.2068
 6794TIP3    H241798   0.376   1.039  13.699 -0.2593 -0.6589 -0.5471
 6795TIP3   OH241799   5.383   4.040  16.505  0.3549  0.0256 -0.2291
 6795TIP3    H141800   5.447   4.094  16.552  0.0346  1.3454 -1.2344
 6795TIP3    H241801   5.298   4.075  16.534  0.1323 -0.3057 -0.4876
 6796TIP3   OH241802   2.119   5.455  12.543  0.0796  0.1683  0.2500
 6796TIP3    H141803   2.169   5.506  12.479 -1.1403  2.2709  0.8750
 6796TIP3    H241804   2.126   5.504  12.624  1.1226 -2.1643  1.6560
 6797TIP3   OH241805   0.448   3.858   2.008  0.0080 -0.5538  0.1277
 6797TIP3    H141806   0.500   3.885   1.932  2.4860 -0.7947  1.6172
 6797TIP3    H241807   0.401   3.780   1.978  0.1659 -0.1018 -1.4085
 6798TIP3   OH241808   3.417   2.893   5.862 -0.5005  0.1926  0.5647
 6798TIP3    H141809   3.491   2.877   5.802  0.0848  1.9912  0.7545
 6798TIP3    H241810   3.456   2.886   5.950 -0.4204  1.6358  0.6605
 6799TIP3   OH241811   0.125   0.084  11.349  0.9556  0.2489  0.1423
 6799TIP3    H141812   0.192   0.067  11.283  0.2369  0.7864 -0.7736
 6799TIP3    H241813   0.157   0.043  11.429  1.8915 -0.3629 -0.5310
 6800TIP3   OH241814   2.621   1.324   3.591  0.0787  0.4124 -0.2548
 6800TIP3    H141815   2.608   1.229   3.598 -0.2727  0.6116  3.3000
 6800TIP3    H241816   2.699   1.333   3.535  1.9360 -2.1555  1.6743
 6801TIP3   OH241817   5.392   3.550   4.301  0.6366 -0.5418 -0.0840
 6801TIP3    H141818   5.442   3.606   4.360  0.7500 -1.1995  0.4514
 6801TIP3    H241819   5.454   3.482   4.275 -0.4310 -2.4916  2.0942
 6802TIP3   OH241820   3.881   3.757  16.505  0.2259 -0.4767 -0.0413
 6802TIP3    H141821   3.941   3.782  16.575 -0.0092 -0.3796  0.1262
 6802TIP3    H241822   3.847   3.671  16.531  0.1148 -0.4269 -0.0210
 6803TIP3   OH241823   3.129   1.294  13.875  0.2488 -0.1574  0.2703
 6803TIP3    H141824   3.188   1.301  13.951 -1.4135 -0.9629  1.7083
 6803TIP3    H241825   3.044   1.270  13.913 -0.2692 -2.3002 -1.9879
 6804TIP3   OH241826   4.319   5.245  13.984 -0.0908 -0.1784  0.3664
 6804TIP3    H141827   4.370   5.325  13.999 -1.6155  0.6418  1.3084
 6804TIP3    H241828   4.295   5.250  13.891  1.0013 -0.2727  0.0641
 6805TIP3   OH241829   4.086   2.891  13.595 -0.5907  0.1793 -0.0591
 6805TIP3    H141830   3.999   2.850  13.596  0.4781 -2.2559  1.2452
 6805TIP3    H241831   4.117   2.884  13.685  1.8333 -1.1032 -0.9080
 6806TIP3   OH241832   1.208   6.421   2.835  0.4613 -0.2523 -0.4996
 6806TIP3    H141833   1.214   6.340   2.887  0.4270 -0.3374 -0.6279
 6806TIP3    H241834   1.199   6.490   2.900  0.9105 -0.3083 -0.3707
 6807TIP3   OH241835   3.055   4.356   1.445  0.1565  0.2635  0.2754
 6807TIP3    H141836   3.149   4.348   1.458  0.0067  0.8303  1.8984
 6807TIP3    H241837   3.042   4.447   1.416  0.5341 -1.0530 -5.0719
 6808TIP3   OH241838   6.416   3.932  11.026 -0.0498 -0.6658 -0.4910
 6808TIP3    H141839   6.482   3.904  10.964  0.7215  0.8891 -0.4111
 6808TIP3    H241840   6.342   3.960  10.972  0.8372  1.2351 -0.7873
 6809TIP3   OH241841   6.492   0.923  13.854 -0.2016  0.3532  0.1505
 6809TIP3    H141842   6.508   0.841  13.900  0.0941  1.2062  1.6074
 6809TIP3    H241843   6.398   0.935  13.857 -0.3004 -0.1779 -0.5301
 6810TIP3   OH241844   1.145   2.705  13.809  0.1578 -0.6813 -0.3811
 6810TIP3    H141845   1.057   2.742  13.815 -0.7625 -2.7729 -0.2879
 6810TIP3    H241846   1.201   2.780  13.788 -1.2925  1.0752  1.6127
 6811TIP3   OH241847   4.859   5.556  13.900 -0.3811 -0.2762  0.0080
 6811TIP3    H141848   4.836   5.536  13.990 -1.5817  1.7347  0.2037
 6811TIP3    H241849   4.800   5.503  13.847 -0.3766 -0.6839  0.4120
 6812TIP3   OH241850   6.119   0.195   0.508 -0.0525  0.1853  0.3140
 6812TIP3    H141851   6.146   0.240   0.429 -1.5000  0.1806 -0.2170
 6812TIP3    H241852   6.196   0.146   0.536  0.1919 -0.6553 -1.6771
 6813TIP3   OH241853   1.392   2.837  11.631 -0.1008 -0.1035  0.2365
 6813TIP3    H141854   1.441   2.761  11.665 -0.8204 -0.3824  0.6829
 6813TIP3    H241855   1.342   2.868  11.706 -0.7691  0.0452 -0.2671
 6814TIP3   OH241856   4.585   5.225  10.961  0.5153  0.2006  0.1631
 6814TIP3    H141857   4.549   5.273  11.036  1.3657  1.1435  0.0064
 6814TIP3    H241858   4.577   5.286  10.888 -1.0505 -1.0199 -0.7174
 6815TIP3   OH241859   5.205   6.293   2.202 -0.0425  0.5956 -0.0114
 6815TIP3    H141860   5.178   6.261   2.116 -0.7825 -0.9960  0.7835
 6815TIP3    H241861   5.259   6.370   2.183 -2.3373  1.8759 -1.7783
 6816TIP3   OH241862   2.642   3.302  16.094  0.1031 -0.1530 -0.2525
 6816TIP3    H141863   2.585   3.233  16.060 -1.5598 -0.2970  2.5119
 6816TIP3    H241864   2.729   3.263  16.096 -0.8350 -2.3090  1.4464
 6817TIP3   OH241865   4.948   6.420   3.444 -0.4235 -0.7931  0.3471
 6817TIP3    H141866   4.889   6.496   3.439 -0.2066 -0.6611 -0.3391
 6817TIP3    H241867   4.894   6.346   3.415 -0.5219 -0.8336  0.6333
 6818TIP3   OH241868   3.897   0.437   3.865  0.2985  0.5376 -0.6365
 6818TIP3    H141869   3.859   0.349   3.872  0.3728  0.4165 -1.5408
 6818TIP3    H241870   3.835   0.485   3.810  0.4221  0.9507 -0.4151
 6819TIP3   OH241871   3.517   3.629   2.039 -0.4007  0.1620  0.2953
 6819TIP3    H141872   3.519   3.724   2.035  0.5109  0.1088 -1.5687
 6819TIP3    H241873   3.597   3.605   2.086  0.6996  0.2784 -1.4565
 6820TIP3   OH241874   0.622   2.372   3.131  0.0380 -0.1263 -0.4664
 6820TIP3    H141875   0.701   2.343   3.177 -0.7189  0.1774  1.1069
 6820TIP3    H241876   0.570   2.414   3.199 -1.9130 -1.1947 -1.2279
 6821TIP3   OH241877   4.655   6.508   5.772 -0.2111 -0.0319  0.5922
 6821TIP3    H141878   4.733   6.453   5.764 -0.0131  0.3572 -0.3107
 6821TIP3    H241879   4.613   6.478   5.852 -0.5854 -2.1315 -0.3129
 6822TIP3   OH241880   5.215   3.843  12.203  0.4575 -0.4468 -0.0872
 6822TIP3    H141881   5.180   3.918  12.156  1.4773 -0.6720 -1.2738
 6822TIP3    H241882   5.308   3.863  12.215  0.6082 -1.2383  0.1322
 6823TIP3   OH241883   5.827   3.291  14.854  0.2197  0.1518  0.2464
 6823TIP3    H141884   5.750   3.308  14.800  1.4908  0.5793 -1.5039
 6823TIP3    H241885   5.792   3.278  14.942 -1.7480  1.5803 -0.2544
 6824TIP3   OH241886   4.550   3.205   5.353  0.0528  0.3069 -0.1959
 6824TIP3    H141887   4.556   3.229   5.446 -2.6658 -1.5667  0.5951
 6824TIP3    H241888   4.545   3.109   5.354 -2.1070  0.3224 -2.0786
 6825TIP3   OH241889   1.320   0.367  16.871  0.1120  0.3700  0.0901
 6825TIP3    H141890   1.287   0.327  16.790  2.4851 -2.8593  0.5212
 6825TIP3    H241891   1.262   0.334  16.940 -0.2344  0.8855  0.0586
 6826TIP3   OH241892   4.749   1.307   1.487  0.4200  0.1908 -0.0744
 6826TIP3    H141893   4.670   1.294   1.435  1.3362  0.5885 -1.6467
 6826TIP3    H241894   4.816   1.257   1.440  1.9823  3.0312 -1.1300
 6827TIP3   OH241895   3.120   4.149   1.739  0.3841  0.0640 -0.8744
 6827TIP3    H141896   3.172   4.087   1.790  1.3996  1.2052 -0.4543
 6827TIP3    H241897   3.136   4.124   1.648  1.6305  0.3194 -0.7519
 6828TIP3   OH241898   1.583   1.995   1.889  0.4869 -0.6835  0.2268
 6828TIP3    H141899   1.623   2.046   1.818  1.5192 -1.5986  0.1379
 6828TIP3    H241900   1.535   1.926   1.843  0.8867 -1.0830  0.4146
 6829TIP3   OH241901   0.120   4.628  16.923 -0.7486 -0.4724  0.2034
 6829TIP3    H141902   0.060   4.658  16.854  0.5015  0.1880 -0.6383
 6829TIP3    H241903   0.145   4.709  16.968 -0.8195 -0.7971  0.8269
 6830TIP3   OH241904   6.081   3.242   2.618  0.7305  0.1026 -0.2073
 6830TIP3    H141905   5.995   3.226   2.580  0.9461 -1.4693 -0.0966
 6830TIP3    H241906   6.063   3.274   2.706  0.2636  0.5911 -0.4732
 6831TIP3   OH241907   5.420   5.838   0.679  0.6016  0.3210 -0.1418
 6831TIP3    H141908   5.336   5.871   0.711  0.1638 -0.2550 -0.6631
 6831TIP3    H241909   5.485   5.871   0.741 -0.1070  0.0665  0.7494
 6832TIP3   OH241910   2.008   6.243   1.826  0.2419 -0.6967 -0.1850
 6832TIP3    H141911   2.085   6.242   1.882 -0.1224  0.8633  0.3970
 6832TIP3    H241912   1.935   6.229   1.886  0.0247 -1.7521 -0.6739
 6833TIP3   OH241913   0.071   3.542   3.513 -0.1941  0.1610  0.4158
 6833TIP3    H141914   0.162   3.542   3.483  0.0298 -1.4701  0.9975
 6833TIP3    H241915   0.061   3.625   3.559  0.5805  0.9827 -0.8259
 6834TIP3   OH241916   4.349   0.657  14.799  0.0138  0.0356  0.0203
 6834TIP3    H141917   4.358   0.690  14.888  2.4542 -0.1542 -0.0730
 6834TIP3    H241918   4.350   0.735  14.744 -2.3952  0.2172  0.1317
 6835TIP3   OH241919   5.983   4.851   1.667  0.2231 -0.3017 -0.2064
 6835TIP3    H141920   6.073   4.841   1.696  0.4675  1.7766 -0.0805
 6835TIP3    H241921   5.931   4.808   1.734  0.9685  1.4215  1.5928
 6836TIP3   OH241922   1.131   6.153  13.112  0.2913  0.8440  0.1756
 6836TIP3    H141923   1.101   6.213  13.044  1.7964  0.8603 -0.5164
 6836TIP3    H241924   1.226   6.164  13.113  0.3181  0.8485  2.2976
 6837TIP3   OH241925   0.436   1.135   4.485  0.5274 -0.0303 -0.1836
 6837TIP3    H141926   0.446   1.123   4.391  0.7027 -0.0386 -0.1628
 6837TIP3    H241927   0.521   1.167   4.515 -0.4138  3.2894 -0.5755
 6838TIP3   OH241928   2.038   6.673  14.572  0.7211  0.2191 -0.6179
 6838TIP3    H141929   1.974   6.611  14.537  1.2231 -0.5716 -0.1753
 6838TIP3    H241930   1.992   6.718  14.643  0.3260  0.4225 -0.9992
 6839TIP3   OH241931   1.771   2.214   3.772 -0.0483  0.1524  0.6848
 6839TIP3    H141932   1.701   2.183   3.715 -0.5308 -0.2613  1.4780
 6839TIP3    H241933   1.851   2.204   3.720 -0.5704  0.6465 -0.2373
 6840TIP3   OH241934   2.983   1.053  11.711  0.0218  0.1735  0.4551
 6840TIP3    H141935   2.912   1.000  11.674  1.4327 -1.5585  0.0904
 6840TIP3    H241936   2.939   1.112  11.772 -1.8513 -0.0283 -0.6234
 6841TIP3   OH241937   1.688   4.270   2.581  0.4987 -0.3268 -0.0238
 6841TIP3    H141938   1.631   4.346   2.593  1.0392  0.0189  0.4381
 6841TIP3    H241939   1.738   4.265   2.663 -0.2458 -1.7995  0.3798
 6842TIP3   OH241940   1.773   4.416   4.592  0.0992 -0.6011  1.0211
 6842TIP3    H141941   1.762   4.389   4.683 -2.3142 -1.0776  0.6601
 6842TIP3    H241942   1.714   4.491   4.582 -1.4119 -1.9144 -0.6465
 6843TIP3   OH241943   2.239   0.321  15.661 -0.0366 -0.3409 -0.4210
 6843TIP3    H141944   2.245   0.229  15.685 -1.0044 -0.4473 -0.5686
 6843TIP3    H241945   2.165   0.355  15.711  1.4694  0.8535  1.1281
 6844TIP3   OH241946   0.081   4.939  15.037  0.3000 -0.0903 -0.5548
 6844TIP3    H141947   0.163   4.920  14.992  0.6802  1.6827 -0.6869
 6844TIP3    H241948   0.070   5.034  15.027 -2.3893 -0.4255 -1.6426
 6845TIP3   OH241949   0.759   4.362   1.320 -0.1360  0.1993 -0.5153
 6845TIP3    H141950   0.813   4.419   1.264  0.0991  0.7323  0.2308
 6845TIP3    H241951   0.803   4.277   1.316  1.2987  0.8247  0.7524
 6846TIP3   OH241952   6.743   4.655  11.239  0.3040  0.3742  0.5888
 6846TIP3    H141953   6.665   4.642  11.293 -0.8513 -0.1041 -1.0978
 6846TIP3    H241954   6.763   4.567  11.206  2.3589  0.2582  1.9842
 6847TIP3   OH241955   5.583   2.054  10.047 -0.4890  0.1574  0.0276
 6847TIP3    H141956   5.630   2.025  10.124  1.6777 -0.6216 -1.5016
 6847TIP3    H241957   5.499   2.087  10.081  0.5243  0.2119  2.6977
 6848TIP3   OH241958   0.516   3.747   4.205 -0.0801 -0.2843 -0.2019
 6848TIP3    H141959   0.421   3.743   4.192  0.0474  1.2710 -1.9753
 6848TIP3    H241960   0.536   3.841   4.206  1.3170 -0.5495  1.3876
 6849TIP3   OH241961   2.998   1.436  14.585 -0.8419  0.4383  0.7714
 6849TIP3    H141962   3.051   1.492  14.529 -1.3666  1.7058  1.4939
 6849TIP3    H241963   3.016   1.467  14.674 -2.2683  0.4503  1.0798
 6850TIP3   OH241964   4.955   2.234  15.284 -0.7224 -0.7358 -0.0102
 6850TIP3    H141965   4.960   2.223  15.379 -1.2083 -0.0842  0.1023
 6850TIP3    H241966   4.868   2.270  15.269 -1.4512 -2.7737 -0.9268
 6851TIP3   OH241967   2.356   5.436   5.713  0.2196 -0.3398 -0.3012
 6851TIP3    H141968   2.328   5.491   5.786  0.5161 -0.6139  0.0255
 6851TIP3    H241969   2.369   5.349   5.752  1.3020 -0.2686 -0.4772
 6852TIP3   OH241970   5.189   6.139   0.846  0.6838  0.7093 -0.0094
 6852TIP3    H141971   5.163   6.182   0.765  0.8728 -0.5471 -0.7678
 6852TIP3    H241972   5.162   6.048   0.834  1.7761  0.2512  0.8408
 6853TIP3   OH241973   3.743   3.633   6.069  0.1043  0.3116  0.7621
 6853TIP3    H141974   3.688   3.575   6.122 -0.5828  0.0422 -0.2292
 6853TIP3    H241975   3.771   3.580   5.995  2.4457  0.1737  1.6476
 6854TIP3   OH241976   6.475   1.033   3.060 -0.1781  0.3666 -0.1420
 6854TIP3    H141977   6.552   0.984   3.031  0.6124  0.8270  1.0635
 6854TIP3    H241978   6.497   1.124   3.042  0.0379  0.5952  1.1949
 6855TIP3   OH241979   2.437   0.832  15.162 -0.3002  0.0253  0.3628
 6855TIP3    H141980   2.532   0.827  15.174 -0.3926  1.4645  1.9942
 6855TIP3    H241981   2.408   0.897  15.226 -2.5522 -1.3351  0.8236
 6856TIP3   OH241982   1.207   4.319  14.355  0.4338 -0.4588 -0.1036
 6856TIP3    H141983   1.259   4.273  14.421  0.1448 -0.9698 -0.2281
 6856TIP3    H241984   1.195   4.255  14.285  2.8471  0.8225 -1.8262
 6857TIP3   OH241985   0.320   6.161   3.996 -0.8360 -0.0004 -0.1273
 6857TIP3    H141986   0.365   6.084   4.031 -0.3755 -0.5306 -1.8094
 6857TIP3    H241987   0.245   6.174   4.054  1.1577  0.6340  2.5231
 6858TIP3   OH241988   5.553   1.513   1.306  0.9055 -0.4241 -0.0965
 6858TIP3    H141989   5.561   1.590   1.250 -0.6291  0.4179  0.7580
 6858TIP3    H241990   5.568   1.439   1.248 -1.5515  0.3613 -1.9112
 6859TIP3   OH241991   4.872   0.721   4.361 -0.0778  0.0185 -0.7351
 6859TIP3    H141992   4.878   0.688   4.451 -1.2655 -1.1591 -1.0522
 6859TIP3    H241993   4.961   0.746   4.339  0.5011 -1.0234  0.2842
 6860TIP3   OH241994   6.519   5.859  11.868 -0.0554  0.1524  0.5311
 6860TIP3    H141995   6.592   5.806  11.901 -0.9370 -0.5214  1.4948
 6860TIP3    H241996   6.544   5.949  11.888  0.9379  0.0065 -0.0324
 6861TIP3   OH241997   0.295   4.086   5.380 -0.0394  0.8658  0.1065
 6861TIP3    H141998   0.293   4.087   5.284  0.5386 -1.8896 -0.0159
 6861TIP3    H241999   0.203   4.079   5.406 -0.0697 -1.8596 -0.4581
 6862TIP3   OH242000   3.479   5.555  15.851  0.1668  0.2508 -0.1962
 6862TIP3    H142001   3.452   5.575  15.940 -1.6762 -1.3162 -0.3386
 6862TIP3    H242002   3.569   5.522  15.860  0.0755  0.2927  1.0527
 6863TIP3   OH242003   1.586   0.931  12.549 -0.3214 -0.4966  0.2038
 6863TIP3    H142004   1.656   0.868  12.562 -1.0739 -0.9554  2.3458
 6863TIP3    H242005   1.593   0.991  12.623 -0.7507  0.8536 -0.8128
 6864TIP3   OH242006   0.188   4.419   5.645 -0.5251 -0.1893 -0.0769
 6864TIP3    H142007   0.144   4.488   5.595  1.8325 -1.3849 -4.2987
 6864TIP3    H242008   0.239   4.467   5.711 -1.4583  1.8242 -0.7318
 6865TIP3   OH242009   3.528   2.168   5.803  0.2873  0.3486 -0.1994
 6865TIP3    H142010   3.466   2.241   5.792 -0.2108  0.2736  1.7899
 6865TIP3    H242011   3.568   2.183   5.888  0.3559 -1.5551  0.1457
 6866TIP3   OH242012   5.165   0.444   3.687 -0.7249 -0.0903  0.1221
 6866TIP3    H142013   5.146   0.421   3.777 -0.4808 -1.0948 -0.0684
 6866TIP3    H242014   5.089   0.495   3.658 -1.4385 -0.9382  0.4747
 6867TIP3   OH242015   3.292   2.952  11.597 -0.3659  0.5193  0.1618
 6867TIP3    H142016   3.318   2.863  11.574 -0.1875  0.6134 -0.0034
 6867TIP3    H242017   3.242   2.983  11.522 -2.0184 -0.0838  0.9576
 6868TIP3   OH242018   3.322   5.769  14.940  0.2248 -0.3364 -0.2597
 6868TIP3    H142019   3.246   5.800  14.990  0.2701 -1.1389  0.3338
 6868TIP3    H242020   3.349   5.845  14.888 -1.9310 -0.4719 -1.6890
 6869TIP3   OH242021   0.140   5.026  13.333 -0.3562 -0.0532  0.2286
 6869TIP3    H142022   0.202   5.071  13.391  0.4221 -2.7015  1.5862
 6869TIP3    H242023   0.062   5.082  13.334  0.8552  1.7224  1.0519
 6870TIP3   OH242024   5.237   1.559  15.876  0.4037  0.7388  0.3996
 6870TIP3    H142025   5.300   1.490  15.897 -0.4810  0.0270  0.8106
 6870TIP3    H242026   5.152   1.515  15.882 -0.1043  1.5483 -0.6492
 6871TIP3   OH242027   2.396   4.575  13.682 -0.0646 -0.8777  0.1468
 6871TIP3    H142028   2.391   4.561  13.588 -1.4483  2.9443 -0.5185
 6871TIP3    H242029   2.479   4.621  13.695 -1.1078  1.0811  0.2826
 6872TIP3   OH242030   3.257   5.363  14.747 -0.1768  0.0157 -0.6537
 6872TIP3    H142031   3.164   5.350  14.764  0.0463 -0.0684  0.6283
 6872TIP3    H242032   3.263   5.452  14.711 -0.6759  0.3266  0.0121
 6873TIP3   OH242033   5.884   1.708   3.150  0.4917 -0.1154  0.0141
 6873TIP3    H142034   5.952   1.685   3.087  1.0055 -2.6728  1.3689
 6873TIP3    H242035   5.803   1.708   3.099  0.9435 -1.7760 -0.7537
 6874TIP3   OH242036   0.845   0.479  14.016 -0.3401  0.3504  0.8607
 6874TIP3    H142037   0.765   0.451  13.973 -1.3376  1.5065  1.9030
 6874TIP3    H242038   0.885   0.542  13.956 -0.6429  0.3954  0.7089
 6875TIP3   OH242039   1.024   0.117  16.419 -0.7805 -0.2267 -0.1767
 6875TIP3    H142040   1.095   0.078  16.369  1.3569  1.3419  1.4436
 6875TIP3    H242041   1.050   0.208  16.430 -2.4189  0.0878  1.5834
 6876TIP3   OH242042   1.378   2.589   3.020 -0.3418 -0.4591 -0.3334
 6876TIP3    H142043   1.301   2.621   2.973 -1.1072 -0.5740  0.7829
 6876TIP3    H242044   1.342   2.533   3.089  0.7741 -0.8207 -0.0183
 6877TIP3   OH242045   1.222   4.591  15.592  0.6479  0.8745  0.0571
 6877TIP3    H142046   1.306   4.626  15.565  1.9636 -0.5649  2.0099
 6877TIP3    H242047   1.200   4.640  15.671 -1.0513  2.1374 -1.1281
 6878TIP3   OH242048   5.841   2.742  12.481 -0.1953 -0.6640 -0.6283
 6878TIP3    H142049   5.916   2.756  12.538  0.1563 -1.2123 -0.9460
 6878TIP3    H242050   5.826   2.648  12.484 -0.9761 -0.5398 -0.4394
 6879TIP3   OH242051   4.446   3.107   4.589  0.6869  0.6168 -0.2214
 6879TIP3    H142052   4.391   3.090   4.513 -0.4630  1.6760  0.3222
 6879TIP3    H242053   4.479   3.196   4.575 -0.8697  1.4789  1.2505
 6880TIP3   OH242054   1.008   1.590  14.794 -0.4988  0.5711  0.0161
 6880TIP3    H142055   1.003   1.536  14.715 -0.6599 -0.8807  0.9917
 6880TIP3    H242056   0.984   1.678  14.763  1.0907  0.4128 -1.8627
 6881TIP3   OH242057   6.439   4.898   4.248  0.2163  0.5111 -0.2962
 6881TIP3    H142058   6.393   4.847   4.181  0.3872 -1.7232  1.1927
 6881TIP3    H242059   6.398   4.873   4.331  1.6029  1.3555  0.6898
 6882TIP3   OH242060   4.652   4.921  15.044 -0.0176  0.0232  0.1207
 6882TIP3    H142061   4.582   4.979  15.074 -1.5887 -0.3789 -2.4588
 6882TIP3    H242062   4.725   4.980  15.023 -0.7838  0.8452 -0.3149
 6883TIP3   OH242063   1.599   6.437  12.628  0.6924 -0.2504  0.2938
 6883TIP3    H142064   1.627   6.515  12.580  0.1787 -0.9998 -1.3082
 6883TIP3    H242065   1.649   6.366  12.587  2.1497 -0.6525  2.6024
 6884TIP3   OH242066   2.069   3.998  13.657  0.1900 -0.3169  0.2927
 6884TIP3    H142067   2.091   4.030  13.569  0.8221 -0.0427  0.5487
 6884TIP3    H242068   2.126   3.923  13.671 -1.4010 -1.7350 -0.3672
 6885TIP3   OH242069   1.894   0.757   0.770  0.3650  0.1498 -0.5040
 6885TIP3    H142070   1.913   0.817   0.697  2.6927 -0.8479 -0.8063
 6885TIP3    H242071   1.926   0.803   0.847  1.3712 -0.3130 -0.6288
 6886TIP3   OH242072   3.960   2.573   2.120 -0.1058  0.5029  0.1896
 6886TIP3    H142073   3.899   2.501   2.100 -0.9463 -0.0578  4.0201
 6886TIP3    H242074   3.946   2.636   2.049 -1.6696 -1.6566 -1.6023
 6887TIP3   OH242075   2.057   4.782  11.477  0.5570  0.5085  0.2599
 6887TIP3    H142076   2.017   4.717  11.535 -1.1390  1.0858 -0.2003
 6887TIP3    H242077   2.106   4.839  11.536  1.8063 -0.9667  0.7030
 6888TIP3   OH242078   5.019   1.702  10.447 -0.5318  0.7516 -0.1028
 6888TIP3    H142079   4.995   1.626  10.394  0.9607  0.4632 -0.4116
 6888TIP3    H242080   5.055   1.765  10.385 -3.2051  2.4475 -0.1119
 6889TIP3   OH242081   1.339   1.752   3.272 -0.0004 -0.6449  0.0869
 6889TIP3    H142082   1.244   1.750   3.259 -0.2640  0.1638  1.6418
 6889TIP3    H242083   1.374   1.779   3.187 -1.1567 -0.9063 -0.4915
 6890TIP3   OH242084   2.653   5.715   2.189 -0.3454  0.7284  0.2032
 6890TIP3    H142085   2.717   5.661   2.141 -0.9060  1.7447 -1.8047
 6890TIP3    H242086   2.704   5.754   2.259  0.5937 -0.6128  0.3189
 6891TIP3   OH242087   1.489   0.645   6.494  0.3235 -0.3633  0.0431
 6891TIP3    H142088   1.427   0.667   6.425  1.6194  1.7976 -0.5560
 6891TIP3    H242089   1.522   0.558   6.471 -0.5834 -0.4348 -1.0505
 6892TIP3   OH242090   1.794   3.421   2.317 -1.1297  0.2998 -0.2255
 6892TIP3    H142091   1.766   3.406   2.407  1.2934 -0.0812  0.5443
 6892TIP3    H242092   1.857   3.493   2.323  0.2998 -0.7799 -1.3233
 6893TIP3   OH242093   4.469   0.675   3.670 -0.2303  0.0535 -0.0776
 6893TIP3    H142094   4.516   0.598   3.638 -3.2106 -1.4525 -1.3004
 6893TIP3    H242095   4.482   0.675   3.765  0.2312 -1.6749 -0.1199
 6894TIP3   OH242096   5.838   1.042   0.678 -0.7189 -0.4789  0.4596
 6894TIP3    H142097   5.767   0.985   0.648 -0.2684 -0.8970  0.1599
 6894TIP3    H242098   5.794   1.119   0.714 -1.3062 -0.3428 -0.5073
 6895TIP3   OH242099   4.975   5.890   3.063 -0.3710  0.0816  0.4666
 6895TIP3    H142100   5.045   5.863   3.004  1.0529  2.4359  0.9457
 6895TIP3    H242101   4.898   5.841   3.034  0.5444  0.2773 -2.5954
 6896TIP3   OH242102   6.418   2.311  10.801 -0.2901 -0.3494 -0.0298
 6896TIP3    H142103   6.446   2.384  10.856  0.4344  0.4057 -1.3208
 6896TIP3    H242104   6.371   2.352  10.729  1.4130 -0.9621 -1.5760
 6897TIP3   OH242105   0.451   2.942  12.043 -0.1231  0.4160  0.1384
 6897TIP3    H142106   0.405   3.025  12.032 -1.7957 -0.7045 -2.1061
 6897TIP3    H242107   0.426   2.912  12.131 -0.3120  1.7600  0.5723
 6898TIP3   OH242108   4.937   3.937  11.866 -0.2092 -0.2070  0.1454
 6898TIP3    H142109   4.868   4.002  11.882 -0.0953 -0.3589  1.3489
 6898TIP3    H242110   4.890   3.854  11.859 -0.4172  0.0438 -2.0049
 6899TIP3   OH242111   4.941   6.546   2.143  0.4757 -0.2515  0.3251
 6899TIP3    H142112   4.952   6.469   2.087  1.2882  0.1700 -0.1126
 6899TIP3    H242113   4.981   6.618   2.094 -0.1296  0.4302  0.7965
 6900TIP3   OH242114   4.888   1.860  11.252 -0.2290  0.4111  0.0050
 6900TIP3    H142115   4.828   1.900  11.314 -1.3473  1.5990 -1.7527
 6900TIP3    H242116   4.886   1.918  11.175  0.7786 -1.1782 -1.2941
 6901TIP3   OH242117   5.841   0.647   3.039  0.2814  0.1210 -0.4063
 6901TIP3    H142118   5.921   0.662   3.090 -0.4331 -0.2615  0.8820
 6901TIP3    H242119   5.822   0.554   3.051 -0.2097  0.1483 -0.9333
 6902TIP3   OH242120   2.722   2.206   6.107  0.2585 -0.3660 -0.2112
 6902TIP3    H142121   2.741   2.194   6.200 -1.2749  0.3434  0.2363
 6902TIP3    H242122   2.780   2.276   6.079  0.5674 -0.4281  0.2712
 6903TIP3   OH242123   0.924   4.429  13.465  0.1843  0.1860 -0.5308
 6903TIP3    H142124   0.991   4.471  13.519 -0.7193  2.2579 -0.9156
 6903TIP3    H242125   0.847   4.423  13.521 -0.1107  0.3718 -0.9040
 6904TIP3   OH242126   0.058   3.971  10.897  0.6366 -0.8515  0.0250
 6904TIP3    H142127   0.052   3.888  10.851  1.8644 -1.2800  0.5918
 6904TIP3    H242128   0.152   3.983  10.914  0.5486  0.8960 -0.4728
 6905TIP3   OH242129   5.271   4.143  14.190  0.0446  0.0046  0.3061
 6905TIP3    H142130   5.309   4.063  14.152 -0.1477 -1.0553  2.2212
 6905TIP3    H242131   5.279   4.208  14.121  0.4865 -1.5900 -1.2218
 6906TIP3   OH242132   4.782   0.493  12.065  0.9348 -0.0592  0.2057
 6906TIP3    H142133   4.712   0.512  12.003 -0.1404 -2.4313  0.5737
 6906TIP3    H242134   4.855   0.462  12.011  0.0910 -1.8731  0.0334
 6907TIP3   OH242135   2.723   3.469  13.125 -0.2020 -0.3619 -0.5326
 6907TIP3    H142136   2.704   3.492  13.216  2.8149 -1.0727  0.3945
 6907TIP3    H242137   2.766   3.546  13.089  1.8482 -1.2872 -0.1852
 6908TIP3   OH242138   5.987   6.471  17.052 -0.1358 -0.1636  0.2581
 6908TIP3    H142139   6.008   6.544  17.111 -0.0853 -0.0938  0.1548
 6908TIP3    H242140   5.918   6.423  17.098  0.4867 -0.5941  0.7531
 6909TIP3   OH242141   5.629   3.747  11.166 -0.1692 -0.0471  0.3819
 6909TIP3    H142142   5.657   3.727  11.255  2.8254 -0.7834 -0.6194
 6909TIP3    H242143   5.673   3.682  11.112 -2.7232 -0.2761 -1.6067
 6910TIP3   OH242144   0.355   1.909  15.701 -0.6706  0.3521 -0.2720
 6910TIP3    H142145   0.372   1.818  15.726  2.1415  1.4266  2.4137
 6910TIP3    H242146   0.269   1.928  15.738  0.0305 -0.4392  1.9672
 6911TIP3   OH242147   5.239   0.347  16.913  0.1596 -0.3830 -0.2787
 6911TIP3    H142148   5.222   0.285  16.842  0.4070 -0.2270 -0.4806
 6911TIP3    H242149   5.266   0.427  16.867  3.5318 -1.1860 -0.0274
 6912TIP3   OH242150   6.075   0.375   5.026 -0.0834 -0.1598  0.1724
 6912TIP3    H142151   6.084   0.400   5.118  0.3604 -1.6697  0.5634
 6912TIP3    H242152   5.981   0.369   5.012 -0.1540  0.0290  0.5483
 6913TIP3   OH242153   4.339   4.951   3.671 -0.2601  0.3338 -0.2420
 6913TIP3    H142154   4.277   4.906   3.614  0.1676 -0.2796 -0.2348
 6913TIP3    H242155   4.287   4.981   3.745 -0.6210  0.1829 -0.4339
 6914TIP3   OH242156   2.916   5.283   4.663  0.5877  0.2052  0.0711
 6914TIP3    H142157   2.912   5.212   4.599  0.7494 -1.6349  1.9722
 6914TIP3    H242158   3.009   5.304   4.670  0.6283  0.0355  0.0561
 6915TIP3   OH242159   0.041   6.628  15.457 -0.0977 -0.0954  0.6345
 6915TIP3    H142160   0.044   6.533  15.468 -0.0509 -0.2531 -0.6494
 6915TIP3    H242161   0.131   6.652  15.433  0.9135  0.8028  4.5811
 6916TIP3   OH242162   6.293   1.058   4.217  0.3045  0.2621  0.0889
 6916TIP3    H142163   6.368   1.082   4.270  0.8553  0.0786 -0.5934
 6916TIP3    H242164   6.291   0.962   4.219 -1.4977  0.2657  2.2637
 6917TIP3   OH242165   0.609   2.270  11.931 -0.2472 -0.5375 -0.3219
 6917TIP3    H142166   0.598   2.214  12.009  0.0709 -0.4011 -0.1776
 6917TIP3    H242167   0.611   2.359  11.965 -0.1320 -0.4753 -0.4900
 6918TIP3   OH242168   6.591   1.560  16.931  0.3451 -0.2541  0.2850
 6918TIP3    H142169   6.503   1.585  16.959  0.8176  1.8764  0.0614
 6918TIP3    H242170   6.580   1.475  16.890 -1.4298 -0.5195  1.1909
 6919TIP3   OH242171   2.176   0.979  15.586  0.4395  0.1489  0.0294
 6919TIP3    H142172   2.117   1.026  15.527 -0.6251  1.3195  1.8890
 6919TIP3    H242173   2.142   0.998  15.673  1.5821 -1.9739  1.0214
 6920TIP3   OH242174   0.591   4.643   4.126 -0.8364 -0.3047 -0.2187
 6920TIP3    H142175   0.620   4.624   4.037 -0.5595  1.5602 -0.5573
 6920TIP3    H242176   0.577   4.557   4.165  0.4979 -1.1936 -1.5773
 6921TIP3   OH242177   4.981   6.654   0.329  0.0624  0.5846  0.1012
 6921TIP3    H142178   4.949   6.615   0.248  0.3840  0.4406  0.0412
 6921TIP3    H242179   4.987   6.747   0.310 -0.2137  0.5979  0.0780
 6922TIP3   OH242180   4.348   5.690  15.109  0.2758 -0.4021  0.2441
 6922TIP3    H142181   4.279   5.628  15.084 -0.4321  0.5335 -0.1481
 6922TIP3    H242182   4.321   5.773  15.072  1.8054 -0.0801 -0.2376
 6923TIP3   OH242183   3.573   4.378   6.291 -0.6299  0.4667 -0.8826
 6923TIP3    H142184   3.629   4.429   6.349  1.0726 -0.7186 -1.3950
 6923TIP3    H242185   3.622   4.297   6.275 -3.1156 -1.2861 -0.2656
 6924TIP3   OH242186   0.352   1.577   0.953  0.6136  0.4249 -0.4210
 6924TIP3    H142187   0.312   1.547   1.035  1.1231  0.6555 -0.0812
 6924TIP3    H242188   0.412   1.647   0.980  1.8864 -0.4764 -0.8003
 6925TIP3   OH242189   1.387   5.756   0.679 -0.1302  0.0825  0.2684
 6925TIP3    H142190   1.328   5.705   0.735  0.5036 -0.0795  0.7886
 6925TIP3    H242191   1.335   5.771   0.599 -0.5001 -0.9822  0.2808
 6926TIP3   OH242192   1.414   1.295   3.490 -0.2184 -0.3379  0.6655
 6926TIP3    H142193   1.391   1.387   3.479  0.6628 -0.2901 -1.1359
 6926TIP3    H242194   1.482   1.279   3.425 -1.1161 -2.5307  0.1676
 6927TIP3   OH242195   3.738   3.999  12.190  0.2157  0.2014 -0.7974
 6927TIP3    H142196   3.667   3.984  12.127 -0.8518 -1.2867  0.6592
 6927TIP3    H242197   3.738   4.093  12.205 -0.0735  0.4763 -2.3432
 6928TIP3   OH242198   3.771   5.658  13.071  0.0509 -0.4813  0.3326
 6928TIP3    H142199   3.800   5.735  13.022 -0.6443 -0.2097  0.3390
 6928TIP3    H242200   3.830   5.654  13.146 -1.1034  1.2073  1.4017
 6929TIP3   OH242201   1.839   2.353  16.416  0.0156  0.1452  0.1721
 6929TIP3    H142202   1.813   2.432  16.369  0.1566 -0.5220 -1.0701
 6929TIP3    H242203   1.867   2.384  16.502 -1.1277  1.2988  0.1570
 6930TIP3   OH242204   0.448   4.829   5.716 -0.4445 -0.6500 -0.2753
 6930TIP3    H142205   0.391   4.781   5.657 -1.1551  1.3861 -1.3439
 6930TIP3    H242206   0.395   4.844   5.795 -1.1526  0.5264 -0.9439
 6931TIP3   OH242207   5.057   5.191  15.720 -0.2782  0.0121  0.3606
 6931TIP3    H142208   5.105   5.274  15.723 -0.7736  0.3692 -0.8042
 6931TIP3    H242209   5.011   5.186  15.803  1.2590 -0.0308  1.2440
 6932TIP3   OH242210   4.873   1.486   0.346 -0.1137 -0.8179 -0.3295
 6932TIP3    H142211   4.840   1.555   0.288  1.2545 -0.0613 -0.2314
 6932TIP3    H242212   4.880   1.409   0.290 -0.5536 -0.5765 -0.7223
 6933TIP3   OH242213   3.148   6.298  12.467  0.1337  0.0731 -0.3104
 6933TIP3    H142214   3.141   6.213  12.509 -3.1286  0.2370 -0.2459
 6933TIP3    H242215   3.142   6.279  12.373 -1.0455  0.2106 -0.2790
 6934TIP3   OH242216   5.633   1.708  15.411 -0.7569  0.4910 -0.0000
 6934TIP3    H142217   5.605   1.799  15.418 -0.4450  0.6310 -0.4813
 6934TIP3    H242218   5.644   1.693  15.317 -2.0802 -0.4497 -0.0362
 6935TIP3   OH242219   1.962   6.748   4.720 -0.3082  0.0954  0.0655
 6935TIP3    H142220   1.992   6.665   4.758 -0.6536 -0.7023 -1.3403
 6935TIP3    H242221   1.883   6.725   4.671  0.3092  0.9909 -1.4308
 6936TIP3   OH242222   1.366   6.637   5.464 -0.3454 -0.0451 -0.3389
 6936TIP3    H142223   1.313   6.716   5.458 -1.5446 -0.8393 -0.5650
 6936TIP3    H242224   1.450   6.661   5.425 -1.2369  0.6633 -1.9047
 6937TIP3   OH242225   3.550   5.722   1.794  0.0112  0.4900  0.1074
 6937TIP3    H142226   3.567   5.652   1.731  1.2976  1.5867 -0.8444
 6937TIP3    H242227   3.493   5.683   1.859  0.0526 -1.2043 -0.8134
 6938TIP3   OH242228   2.066   4.162   3.665 -0.0572  0.7603 -0.3129
 6938TIP3    H142229   2.091   4.243   3.620  2.5002  1.9614  2.8503
 6938TIP3    H242230   2.013   4.192   3.739 -1.4686 -0.7953 -0.6504
 6939TIP3   OH242231   0.024   5.325   1.221 -0.7292 -0.3749 -0.2649
 6939TIP3    H142232  -0.001   5.271   1.296  0.0835 -0.0917  0.2279
 6939TIP3    H242233  -0.049   5.387   1.211 -0.0558  0.7819  1.4798
 6940TIP3   OH242234   2.032   6.216  13.843 -0.9981 -0.6153  0.3182
 6940TIP3    H142235   2.012   6.221  13.937  1.1261 -0.3408  0.8055
 6940TIP3    H242236   2.101   6.281  13.830 -1.4012 -0.5062 -1.4968
 6941TIP3   OH242237   5.088   2.693  14.122 -0.1357  0.8030 -0.2580
 6941TIP3    H142238   5.093   2.680  14.028 -0.6040 -0.1239 -0.1711
 6941TIP3    H242239   5.004   2.737  14.136 -0.6686 -0.1980 -0.1848
 6942TIP3   OH242240   5.533   4.157  12.547 -0.3077  0.2314 -0.2127
 6942TIP3    H142241   5.603   4.175  12.609  0.2861 -1.3367 -0.3824
 6942TIP3    H242242   5.569   4.183  12.462 -0.0585 -0.1985 -0.2455
 6943TIP3   OH242243   5.306   5.138   3.244 -0.0165 -0.2730  0.1475
 6943TIP3    H142244   5.288   5.108   3.155 -0.3580 -1.1807  0.5106
 6943TIP3    H242245   5.274   5.229   3.245 -1.1673 -0.6553 -0.3024
 6944TIP3   OH242246   4.572   6.024  15.097 -0.3300  0.7791 -0.3298
 6944TIP3    H142247   4.550   5.955  15.161  3.3131 -0.0670  0.1894
 6944TIP3    H242248   4.573   5.979  15.013 -0.6203  0.8405 -0.3674
 6945TIP3   OH242249   4.403   4.943  14.635  0.8737  0.1300  0.5090
 6945TIP3    H142250   4.340   4.994  14.686 -1.2793 -1.0651 -0.8145
 6945TIP3    H242251   4.414   4.992  14.554  1.0452 -0.0731  0.4081
 6946TIP3   OH242252   5.775   3.747  15.860 -0.3906 -0.1735  0.2785
 6946TIP3    H142253   5.731   3.830  15.879 -0.2093 -0.0020 -0.0439
 6946TIP3    H242254   5.820   3.762  15.777  1.6307  0.1801  1.3901
 6947TIP3   OH242255   0.278   1.894   1.666 -0.0343  0.7573  0.2719
 6947TIP3    H142256   0.264   1.856   1.752  0.0769  0.7250  0.2756
 6947TIP3    H242257   0.261   1.988   1.678 -1.5489  0.5465 -0.0093
 6948TIP3   OH242258   2.158   5.366   0.405 -0.3027 -0.1913 -0.9638
 6948TIP3    H142259   2.169   5.344   0.313 -0.4044  0.1741 -1.0615
 6948TIP3    H242260   2.070   5.336   0.427  0.8961 -3.5148 -0.0726
 6949TIP3   OH242261   5.637   3.420  17.056  0.1908  0.4002  0.7038
 6949TIP3    H142262   5.706   3.398  17.119  0.5448  0.2324  0.2615
 6949TIP3    H242263   5.667   3.500  17.014  0.2589  0.1683  0.3047
 6950TIP3   OH242264   2.844   6.020  12.896 -0.3765 -0.4051 -0.0732
 6950TIP3    H142265   2.880   6.102  12.861 -0.9243  0.0984  0.5074
 6950TIP3    H242266   2.912   5.985  12.952 -0.1878 -0.2831 -0.2258
 6951TIP3   OH242267   6.605   0.572  15.483  0.5398  0.5076 -0.2819
 6951TIP3    H142268   6.652   0.493  15.456 -0.6762 -1.2005  2.1389
 6951TIP3    H242269   6.512   0.548  15.479  0.0375  2.3526 -0.8913
 6952TIP3   OH242270   4.910   5.444  12.283  0.2152 -0.1010  0.0262
 6952TIP3    H142271   4.928   5.386  12.358 -0.9566 -0.9627 -0.3322
 6952TIP3    H242272   4.997   5.467  12.250  0.7551  0.1792  1.5552
 6953TIP3   OH242273   3.741   2.110   6.508 -0.0435 -0.4424 -0.4185
 6953TIP3    H142274   3.759   2.201   6.486  0.4364 -0.7368 -1.3317
 6953TIP3    H242275   3.674   2.083   6.445 -1.0953 -0.3804  0.6462
 6954TIP3   OH242276   4.669   1.310  14.808 -0.5394  0.1610  0.3147
 6954TIP3    H142277   4.679   1.405  14.806 -1.5825  0.2961 -2.3707
 6954TIP3    H242278   4.704   1.280  14.724 -1.2590 -1.7128  0.6291
 6955TIP3   OH242279   1.857   4.448   5.232  0.0613 -0.2626 -0.1490
 6955TIP3    H142280   1.947   4.426   5.206  0.0296  0.6338 -1.0817
 6955TIP3    H242281   1.865   4.473   5.324  0.4830 -1.7515  0.2480
 6956TIP3   OH242282   2.445   2.992  15.331  0.3070 -0.5389  0.4897
 6956TIP3    H142283   2.412   3.081  15.321  1.4452 -0.1558  0.0361
 6956TIP3    H242284   2.390   2.939  15.273 -0.7739 -0.2510  1.2304
 6957TIP3   OH242285   5.151   4.462   5.195 -0.5651  0.6012  0.0455
 6957TIP3    H142286   5.078   4.523   5.207 -0.9366  0.1505  0.1271
 6957TIP3    H242287   5.114   4.377   5.218 -0.0498  0.3493 -0.0585
 6958TIP3   OH242288   0.253   0.477   0.472 -0.1804  0.1725 -0.6516
 6958TIP3    H142289   0.198   0.468   0.550 -0.9574  0.0957 -1.1988
 6958TIP3    H242290   0.196   0.451   0.400  0.4888  0.3863 -1.2621
 6959TIP3   OH242291   1.123   3.636  12.223  0.1804 -0.4598  0.6256
 6959TIP3    H142292   1.112   3.570  12.292 -0.3001 -0.2764  0.7294
 6959TIP3    H242293   1.052   3.617  12.161  0.6024 -0.6172  0.1854
 6960TIP3   OH242294   5.458   1.169  13.573 -0.3216 -0.5409  0.9454
 6960TIP3    H142295   5.538   1.181  13.521 -0.7576 -0.1266  0.3437
 6960TIP3    H242296   5.413   1.096  13.531 -1.1156  0.3745  0.1474
 6961TIP3   OH242297   2.089   5.867  12.140  0.1763 -0.6130  0.1914
 6961TIP3    H142298   2.059   5.785  12.101  0.5114 -0.2610 -0.8230
 6961TIP3    H242299   2.175   5.882  12.101  0.4985 -0.2218  1.0328
 6962TIP3   OH242300   0.389   2.471  12.559  0.6165 -0.4822  0.2803
 6962TIP3    H142301   0.331   2.501  12.629  1.6782 -0.4913  1.1691
 6962TIP3    H242302   0.469   2.521  12.570  1.7440 -2.2943  0.6645
 6963TIP3   OH242303   3.573   4.479  16.012  0.1420  0.1027 -0.2108
 6963TIP3    H142304   3.625   4.404  15.983  0.0988  0.1660 -0.4490
 6963TIP3    H242305   3.600   4.551  15.956 -0.4681  0.0462 -0.5928
 6964TIP3   OH242306   3.504   0.130   1.541  0.2553 -0.0029 -0.1222
 6964TIP3    H142307   3.466   0.213   1.512 -1.0466 -0.3550  0.4831
 6964TIP3    H242308   3.599   0.143   1.535  0.0694  1.4309 -0.2908
 6965TIP3   OH242309   0.288   0.816   1.098  0.0958 -0.3682  0.4915
 6965TIP3    H142310   0.361   0.805   1.159 -2.5032 -0.3745  3.9418
 6965TIP3    H242311   0.316   0.885   1.039  2.4638  0.3850  2.3414
 6966TIP3   OH242312   1.373   3.070   4.239  0.0489 -0.2919 -0.0028
 6966TIP3    H142313   1.309   3.140   4.249 -0.7126 -1.1014  1.0476
 6966TIP3    H242314   1.356   3.034   4.152 -0.6198 -0.1930  0.0837
 6967TIP3   OH242315   4.608   6.780   1.601 -0.2575  0.5677 -0.1454
 6967TIP3    H142316   4.664   6.846   1.641 -0.4035  0.5796  0.0442
 6967TIP3    H242317   4.603   6.805   1.509  0.3665  0.3388 -0.2440
 6968TIP3   OH242318   5.755   0.276  15.325 -0.4863  0.0355 -0.0103
 6968TIP3    H142319   5.841   0.292  15.364 -0.8197  3.0716 -0.2545
 6968TIP3    H242320   5.772   0.217  15.251  0.8831 -1.7533  1.6299
 6969TIP3   OH242321   0.240   3.588  15.039 -0.5473  0.6847  0.0294
 6969TIP3    H142322   0.200   3.574  14.953  0.7723 -0.6013 -0.4198
 6969TIP3    H242323   0.291   3.668  15.030  1.3777 -0.5736 -1.1524
 6970TIP3   OH242324   5.850   3.966   0.389  0.2680  0.1024 -0.0529
 6970TIP3    H142325   5.810   3.931   0.469  0.8836  1.6123  0.9558
 6970TIP3    H242326   5.912   4.032   0.419 -1.1026  2.3614 -1.8455
 6971TIP3   OH242327   3.462   4.012   0.366 -0.1025 -0.0634  0.2478
 6971TIP3    H142328   3.470   3.929   0.319 -1.1080  0.0993 -0.2412
 6971TIP3    H242329   3.431   3.986   0.453 -1.3174 -0.1643 -0.1892
 6972TIP3   OH242330   0.648   2.556  13.500  0.1243  0.6692  0.2525
 6972TIP3    H142331   0.714   2.509  13.449 -1.4657 -0.7844 -0.5522
 6972TIP3    H242332   0.655   2.647  13.470  1.1397  0.3778 -0.4520
 6973TIP3   OH242333   6.251   6.378  12.999  0.7471  0.2415  0.1034
 6973TIP3    H142334   6.252   6.307  13.063 -0.3493 -0.8464 -1.0264
 6973TIP3    H242335   6.288   6.338  12.920  1.4975  1.3818 -0.1413
 6974TIP3   OH242336   2.988   2.785  11.777 -0.1983  0.4352  0.3705
 6974TIP3    H142337   3.036   2.865  11.797  0.4991  0.5235 -1.4671
 6974TIP3    H242338   2.988   2.779  11.681 -0.3785 -1.6668  0.4371
 6975TIP3   OH242339   3.797   0.560   1.827 -0.1936  0.0415 -0.6571
 6975TIP3    H142340   3.864   0.596   1.768  1.3001 -2.1169 -0.3907
 6975TIP3    H242341   3.724   0.621   1.820  1.2965  1.7802 -1.9909
 6976TIP3   OH242342   3.935   4.783  10.324  0.1937  0.0892  0.2062
 6976TIP3    H142343   3.884   4.725  10.381 -0.6064  0.9966  0.4359
 6976TIP3    H242344   3.956   4.859  10.378  0.9268  0.1855 -0.1930
 6977TIP3   OH242345   1.116   4.045   0.749 -0.6653  0.2270 -0.5172
 6977TIP3    H142346   1.083   3.987   0.817 -0.1251 -0.2165 -0.6230
 6977TIP3    H242347   1.185   3.995   0.706 -0.2782  0.8950 -0.6992
 6978TIP3   OH242348   6.691   4.075  11.094  0.3616  1.2812  0.1491
 6978TIP3    H142349   6.756   4.071  11.164  0.5577  1.3061 -0.0288
 6978TIP3    H242350   6.732   4.028  11.021 -0.8418 -0.9663  0.8435
 6979TIP3   OH242351   5.665   6.395   2.871 -0.0497 -0.1548  0.4647
 6979TIP3    H142352   5.574   6.369   2.861 -0.9055  2.5091  0.5032
 6979TIP3    H242353   5.711   6.349   2.801 -1.9310  0.5217 -1.3290
 6980TIP3   OH242354   5.837   2.663   1.910 -0.4816  0.3548  0.4869
 6980TIP3    H142355   5.877   2.746   1.883  0.1502  0.2406  1.0655
 6980TIP3    H242356   5.778   2.687   1.982  1.0483  0.0754  1.8841
 6981TIP3   OH242357   0.483   4.153   1.965  0.0194  0.4181  0.3562
 6981TIP3    H142358   0.492   4.104   1.884 -1.7876  0.0997  0.3092
 6981TIP3    H242359   0.571   4.152   2.004  0.9965  0.8257 -1.6978
 6982TIP3   OH242360   1.561   6.256   0.216 -0.5871 -0.0260  0.8301
 6982TIP3    H142361   1.607   6.237   0.298  1.9439 -0.0800 -0.5180
 6982TIP3    H242362   1.578   6.349   0.200  1.3970 -0.6271 -0.9813
 6983TIP3   OH242363   3.881   3.818  13.253  0.3096  0.5207  0.6139
 6983TIP3    H142364   3.916   3.738  13.290 -1.1548 -1.5682 -2.1202
 6983TIP3    H242365   3.818   3.850  13.318 -0.2720 -1.4949  1.0924
 6984TIP3   OH242366   4.888   1.970  14.135  0.4551  0.5194  0.3279
 6984TIP3    H142367   4.804   2.013  14.149 -0.0158 -0.4865  0.6977
 6984TIP3    H242368   4.919   2.003  14.051 -0.3906  0.7743  0.1118
 6985TIP3   OH242369   6.180   6.235  10.687 -0.1944  0.2245 -0.4273
 6985TIP3    H142370   6.229   6.230  10.769 -0.1265  1.1884 -0.3975
 6985TIP3    H242371   6.245   6.261  10.622 -0.5224  0.7970 -0.5272
 6986TIP3   OH242372   3.631   4.681  15.838 -0.7614 -0.0412 -0.6670
 6986TIP3    H142373   3.707   4.734  15.815 -0.4471  0.7738  1.9855
 6986TIP3    H242374   3.570   4.743  15.879 -1.4448 -1.2714  0.2313
 6987TIP3   OH242375   0.015   6.193  16.903 -0.3758  0.3073 -0.3097
 6987TIP3    H142376  -0.002   6.244  16.824  3.2362  1.5968 -0.4695
 6987TIP3    H242377   0.046   6.258  16.966 -0.0793 -1.1140  1.0680
 6988TIP3   OH242378   6.726   0.700   3.234 -0.0917 -0.7133  0.1965
 6988TIP3    H142379   6.720   0.610   3.203  0.7139 -0.4090 -0.9296
 6988TIP3    H242380   6.757   0.693   3.324 -1.9139 -1.6138  0.7832
 6989TIP3   OH242381   0.374   0.257  12.481  0.1464  0.4763  0.6072
 6989TIP3    H142382   0.390   0.173  12.439 -1.6659  0.1868  0.4267
 6989TIP3    H242383   0.346   0.235  12.570 -0.0324  0.9064  0.6633
 6990TIP3   OH242384   0.708   0.566  14.494  0.2801  0.1034  0.2501
 6990TIP3    H142385   0.741   0.655  14.482  0.6176  0.0358  0.6671
 6990TIP3    H242386   0.729   0.521  14.412 -1.9058  1.0010 -0.9070
 6991TIP3   OH242387   2.798   0.446   4.640  0.0451 -0.4630  0.0925
 6991TIP3    H142388   2.802   0.370   4.582 -1.0927  1.0533 -2.1263
 6991TIP3    H242389   2.888   0.477   4.645  0.1874 -0.7081 -0.7764
 6992TIP3   OH242390   1.919   1.751   2.970 -0.2716  0.0460  0.0447
 6992TIP3    H142391   1.983   1.778   3.036 -0.8184  0.5935  0.3573
 6992TIP3    H242392   1.956   1.670   2.934  0.1218 -0.1787  0.9031
 6993TIP3   OH242393   1.117   5.309  14.902  0.0577  0.1911 -0.7149
 6993TIP3    H142394   1.153   5.398  14.904  0.7717 -0.0335 -2.3188
 6993TIP3    H242395   1.194   5.252  14.901 -0.3644 -0.5797  2.0378
 6994TIP3   OH242396   5.046   2.444  14.212 -0.2139 -0.0511  0.0377
 6994TIP3    H142397   4.992   2.408  14.142 -0.7007  0.1169  0.3271
 6994TIP3    H242398   5.109   2.501  14.167  1.3193 -2.0974 -0.5585
 6995TIP3   OH242399   2.788   3.110   0.861  0.3068 -0.1174  0.3449
 6995TIP3    H142400   2.711   3.063   0.893  0.0329  0.1987  0.1644
 6995TIP3    H242401   2.852   3.103   0.931  0.2208 -0.6487  0.3705
 6996TIP3   OH242402   3.149   5.640  13.508 -0.2705 -0.4616 -0.1216
 6996TIP3    H142403   3.066   5.685  13.525 -1.0950 -2.3041  1.1033
 6996TIP3    H242404   3.122   5.552  13.481  1.2664 -0.3072 -2.4141
 6997TIP3   OH242405   3.822   0.154   5.995  0.3123  0.4179  0.6448
 6997TIP3    H142406   3.803   0.224   6.057  0.9200 -0.1409  1.4859
 6997TIP3    H242407   3.738   0.109   5.984 -0.2392  1.6623 -0.4272
 6998TIP3   OH242408   4.471   1.032   2.345 -0.5221 -0.3580  0.0465
 6998TIP3    H142409   4.456   1.105   2.285  0.9689 -0.1113 -0.0547
 6998TIP3    H242410   4.558   0.999   2.322 -0.9252 -1.8164  0.4654
 6999TIP3   OH242411   1.631   6.659  14.725 -0.6477  0.2912 -0.4199
 6999TIP3    H142412   1.672   6.619  14.801  2.2828  0.1754 -1.9302
 6999TIP3    H242413   1.554   6.704  14.760  0.6864  0.4112  2.6328
 7000TIP3   OH242414   1.633   3.758   3.610 -0.4155 -0.6409 -0.1290
 7000TIP3    H142415   1.694   3.692   3.645 -0.8480 -1.0081 -0.0673
 7000TIP3    H242416   1.633   3.743   3.516 -0.0946 -0.3710 -0.1723
 7001TIP3   OH242417   4.449   0.890  11.172 -0.1138  0.4575 -0.4040
 7001TIP3    H142418   4.423   0.981  11.187  1.1793  0.4130  2.8637
 7001TIP3    H242419   4.542   0.895  11.147 -0.3751  0.0658 -1.5201
 7002TIP3   OH242420   6.717   3.915   0.501 -0.5083 -0.1106 -0.3087
 7002TIP3    H142421   6.694   3.857   0.574  1.1408  0.2075  0.5047
 7002TIP3    H242422   6.637   3.966   0.485 -1.3974 -1.2980  0.1896
 7003TIP3   OH242423   0.695   3.008   4.579  0.7496 -0.3017 -0.3214
 7003TIP3    H142424   0.600   3.019   4.577  0.8194  1.4685  1.8215
 7003TIP3    H242425   0.724   3.034   4.491 -0.5764  1.5977 -0.2518
 7004TIP3   OH242426   6.470   0.713   3.107 -0.3410  0.2436  0.3286
 7004TIP3    H142427   6.561   0.738   3.092 -0.8186  2.1589  0.3575
 7004TIP3    H242428   6.439   0.683   3.022 -0.3096  1.8483 -0.2945
 7005TIP3   OH242429   2.988   5.663  12.905  0.3153 -0.2679  0.1961
 7005TIP3    H142430   2.984   5.638  12.998 -0.7932 -0.7607  0.0241
 7005TIP3    H242431   2.905   5.634  12.869  1.0982 -0.8728 -1.1649
 7006TIP3   OH242432   0.531   4.865   1.284  0.5011  0.1662  0.2121
 7006TIP3    H142433   0.457   4.812   1.314  0.2401  0.3731 -0.0583
 7006TIP3    H242434   0.607   4.831   1.332  0.0150  0.8097  1.4990
 7007TIP3   OH242435   4.963   5.555   2.548  0.3093  0.1017 -0.2293
 7007TIP3    H142436   4.913   5.562   2.467 -1.3697 -1.8167  0.5743
 7007TIP3    H242437   5.054   5.547   2.519 -0.5037 -4.3719 -2.2740
 7008TIP3   OH242438   1.975   5.028  10.818 -0.0537 -0.0411  0.5834
 7008TIP3    H142439   1.979   5.075  10.735 -0.1372  1.6022  1.4460
 7008TIP3    H242440   1.892   4.981  10.815 -0.1861  0.2228 -0.1568
 7009TIP3   OH242441   0.651   3.961   3.916 -0.0598  0.0219 -0.5648
 7009TIP3    H142442   0.701   3.989   3.992  0.7558  0.0609 -1.1023
 7009TIP3    H242443   0.573   3.920   3.952 -0.3409  1.2347  0.2803
 7010TIP3   OH242444   2.225   4.848   1.032  0.1686  0.1503 -0.1296
 7010TIP3    H142445   2.231   4.774   1.093  1.8908 -1.0534 -1.6321
 7010TIP3    H242446   2.295   4.906   1.058  0.2550  0.1362 -0.3291
 7011TIP3   OH242447   1.881   6.168   4.766  0.1409  0.4283  0.0353
 7011TIP3    H142448   1.941   6.234   4.731  0.2528 -0.2700 -1.1453
 7011TIP3    H242449   1.816   6.219   4.815  1.9311  1.1613  1.8036
 7012TIP3   OH242450   3.785   5.727   0.963  0.1066 -0.6172  0.2408
 7012TIP3    H142451   3.786   5.709   0.869  0.1631  3.1155 -0.6067
 7012TIP3    H242452   3.693   5.721   0.988 -0.8577  3.5569 -1.4253
 7013TIP3   OH242453   1.931   2.970   1.990  0.3610  0.4674 -0.5893
 7013TIP3    H142454   1.997   2.979   2.059 -0.6777 -0.3460  0.5404
 7013TIP3    H242455   1.974   3.005   1.912  1.0985  2.6595  0.7102
 7014TIP3   OH242456   5.963   6.611  13.643 -0.2554  0.0382 -0.1879
 7014TIP3    H142457   5.887   6.573  13.601 -0.1785 -0.7217  0.3488
 7014TIP3    H242458   6.038   6.575  13.596 -0.1950 -0.1412  0.0426
 7015TIP3   OH242459   0.797   5.210  12.311 -0.7441 -0.4556 -0.4916
 7015TIP3    H142460   0.835   5.156  12.242  0.9444  0.2929 -0.2146
 7015TIP3    H242461   0.843   5.182  12.390 -2.3542 -1.0134  0.2929
 7016TIP3   OH242462   2.999   0.068   4.651 -0.2766  0.3511  0.3856
 7016TIP3    H142463   2.939   0.114   4.593  1.1402  1.2448 -0.4475
 7016TIP3    H242464   2.968  -0.022   4.651 -0.9840  0.5665 -0.8775
 7017TIP3   OH242465   1.350   3.456  11.156 -0.0227  0.1114  0.6179
 7017TIP3    H142466   1.297   3.385  11.120 -0.1215  0.1460  0.6948
 7017TIP3    H242467   1.296   3.535  11.145  0.3995  0.2996 -0.1761
 7018TIP3   OH242468   3.599   0.128  12.738  0.1172  0.2881 -0.2596
 7018TIP3    H142469   3.631   0.205  12.785 -2.2279  0.6537  0.8933
 7018TIP3    H242470   3.519   0.157  12.694  0.3462 -0.9734 -1.5977
 7019TIP3   OH242471   0.635   6.083   1.481  0.5512  0.1210 -0.1070
 7019TIP3    H142472   0.698   6.105   1.412  1.9672 -0.3605  0.9899
 7019TIP3    H242473   0.685   6.085   1.562 -1.0552  0.5966  0.9335
 7020TIP3   OH242474   2.399   2.527   0.290 -0.2742  0.1063 -0.3774
 7020TIP3    H142475   2.421   2.604   0.343 -0.6684  0.2392 -0.4024
 7020TIP3    H242476   2.405   2.558   0.200 -2.3584  0.6689 -0.3681
 7021TIP3   OH242477   4.810   3.392  13.351 -0.0001 -0.0817  0.0012
 7021TIP3    H142478   4.840   3.301  13.353  0.1947 -0.0247 -0.2824
 7021TIP3    H242479   4.835   3.427  13.437  0.5494 -0.1003 -0.1474
 7022TIP3   OH242480   5.753   2.926   4.034 -0.2081 -0.9223 -0.1058
 7022TIP3    H142481   5.739   2.899   3.943  1.8845  1.6986 -1.3464
 7022TIP3    H242482   5.847   2.942   4.040 -0.2471 -1.3756  2.6691
 7023TIP3   OH242483   1.592   4.058   5.837  0.0147  0.3231 -0.0214
 7023TIP3    H142484   1.573   4.130   5.897 -0.3183  0.4589 -0.2909
 7023TIP3    H242485   1.562   4.088   5.752 -0.2273 -0.1791 -0.1174
 7024TIP3   OH242486   4.251   2.734   5.933  0.7533 -0.3874  0.2226
 7024TIP3    H142487   4.202   2.794   5.989  2.2008  1.3026 -0.2130
 7024TIP3    H242488   4.214   2.748   5.845  0.7831 -0.4767  0.1958
 7025TIP3   OH242489   4.879   1.861  12.333  0.3875  0.6629  0.3548
 7025TIP3    H142490   4.820   1.785  12.333 -1.4377  1.9736 -2.1331
 7025TIP3    H242491   4.839   1.922  12.394  0.6134  0.5527  0.6181
 7026TIP3   OH242492   2.386   6.260   1.164 -0.5740  0.3246  0.6271
 7026TIP3    H142493   2.347   6.274   1.077  1.3213 -3.2719 -1.0134
 7026TIP3    H242494   2.421   6.346   1.188 -3.3175  2.0325 -0.9490
 7027TIP3   OH242495   6.391   5.791  16.201  0.3436 -0.0199  0.4530
 7027TIP3    H142496   6.365   5.801  16.109  0.7248 -0.6070  0.2801
 7027TIP3    H242497   6.324   5.839  16.250  0.6258  1.0667 -0.1819
 7028TIP3   OH242498   1.225   6.165   2.964 -0.0883  0.5293  0.3109
 7028TIP3    H142499   1.289   6.143   3.032  1.9500  2.5727 -0.7831
 7028TIP3    H242500   1.232   6.094   2.901  0.9946  0.6033  0.3228
 7029TIP3   OH242501   0.447   5.423   4.527  0.2021 -0.2920  0.2377
 7029TIP3    H142502   0.428   5.406   4.435  0.8035 -1.5230  0.3241
 7029TIP3    H242503   0.362   5.437   4.567 -0.2137 -1.5677 -0.1700
 7030TIP3   OH242504   3.310   1.814  12.554 -0.8997  0.4642  0.0618
 7030TIP3    H142505   3.345   1.878  12.492  1.5545 -1.3916 -0.6416
 7030TIP3    H242506   3.215   1.817  12.542 -0.6166  1.4896 -2.4574
 7031TIP3   OH242507   6.777   5.589   1.798  0.2124  0.3506 -0.2890
 7031TIP3    H142508   6.750   5.678   1.777  3.0499  1.0322 -1.4957
 7031TIP3    H242509   6.790   5.547   1.713 -1.1564 -1.3258  0.2581
 7032TIP3   OH242510   2.022   2.889  12.404  0.1508  0.1512 -0.0354
 7032TIP3    H142511   2.021   2.963  12.465  1.1849  0.5676 -0.5020
 7032TIP3    H242512   1.935   2.890  12.363  0.1093  1.0219  0.0626
 7033TIP3   OH242513   6.070   0.814   5.248 -0.7700 -0.3794 -0.1139
 7033TIP3    H142514   6.135   0.794   5.180  1.1025  0.6543  1.2785
 7033TIP3    H242515   6.048   0.728   5.285 -1.7673 -0.9555 -1.9016
 7034TIP3   OH242516   3.897   1.448  14.387  0.0578 -0.8276  0.4258
 7034TIP3    H142517   3.885   1.486  14.474  1.4995 -1.4749  0.9373
 7034TIP3    H242518   3.880   1.355  14.399 -1.5437 -0.6722 -0.4070
 7035TIP3   OH242519   2.221   4.710  13.843 -0.1387 -0.1912  0.1788
 7035TIP3    H142520   2.274   4.644  13.800 -2.0334 -1.4078 -0.4038
 7035TIP3    H242521   2.143   4.663  13.874 -1.0988  1.5697  0.6201
 7036TIP3   OH242522   0.594   5.545  13.199 -0.1404 -0.1440  0.6483
 7036TIP3    H142523   0.647   5.619  13.168  1.3922 -0.7187  1.7906
 7036TIP3    H242524   0.573   5.496  13.120 -0.5159  1.0668 -0.0375
 7037TIP3   OH242525   6.165   0.727  10.949 -0.1746  0.1937  0.4978
 7037TIP3    H142526   6.161   0.703  11.041  0.2882 -1.0186  0.2243
 7037TIP3    H242527   6.183   0.644  10.903 -2.9019  0.2726 -0.9300
 7038TIP3   OH242528   2.269   5.698  14.980 -0.6968 -0.0545  0.0075
 7038TIP3    H142529   2.266   5.636  14.907 -0.3927  0.5421 -0.5161
 7038TIP3    H242530   2.331   5.659  15.042 -1.5667 -0.9703  0.3466
 7039TIP3   OH242531   0.969   6.628  10.882  0.5142  0.5466 -0.4333
 7039TIP3    H142532   0.930   6.632  10.794  0.0696 -0.9545 -0.3311
 7039TIP3    H242533   1.024   6.549  10.880  0.2786  0.3433  0.7176
 7040TIP3   OH242534   2.577   0.662  12.601 -0.3901 -0.1871 -0.1410
 7040TIP3    H142535   2.498   0.666  12.548  0.0877 -4.0584 -1.4310
 7040TIP3    H242536   2.642   0.711  12.550 -0.7263 -1.2240 -1.6186
 7041TIP3   OH242537   4.123   4.609   4.177  0.0403  0.0148  0.2619
 7041TIP3    H142538   4.216   4.631   4.167  0.6871 -2.1145  0.9288
 7041TIP3    H242539   4.098   4.572   4.092  0.6703 -2.0659  0.9167
 7042TIP3   OH242540   1.884   4.148  12.168  0.2712 -0.8225 -0.0325
 7042TIP3    H142541   1.940   4.190  12.102  1.6423 -2.9076 -0.2674
 7042TIP3    H242542   1.945   4.115  12.234 -0.9389 -0.5313  1.2897
 7043TIP3   OH242543   2.363   0.046  14.902 -0.0885 -0.1346 -0.0771
 7043TIP3    H142544   2.347   0.139  14.914  0.4209  0.2608 -2.1116
 7043TIP3    H242545   2.276   0.006  14.906 -0.3056  0.4035  0.8187
 7044TIP3   OH242546   4.529   6.543   4.645  0.4057 -0.3310 -0.0612
 7044TIP3    H142547   4.525   6.629   4.603  1.1282 -0.4732 -0.4378
 7044TIP3    H242548   4.584   6.491   4.586 -1.9736 -1.7898 -1.1202
 7045TIP3   OH242549   3.275   3.548   3.833 -0.2014  0.6930 -0.2041
 7045TIP3    H142550   3.246   3.563   3.923  0.6537  2.2253 -0.1405
 7045TIP3    H242551   3.336   3.475   3.839  1.1838  1.8688  0.7830
 7046TIP3   OH242552   1.476   3.907  13.227  0.3761  0.4977  0.5607
 7046TIP3    H142553   1.381   3.893  13.232  0.5272 -0.5885  0.7127
 7046TIP3    H242554   1.505   3.909  13.318  0.5190  0.6556  0.5115
 7047TIP3   OH242555   4.516   6.187  14.067  0.4014  0.2897  0.1489
 7047TIP3    H142556   4.595   6.135  14.054 -0.6701 -1.6050  0.8598
 7047TIP3    H242557   4.475   6.150  14.145 -1.1071  1.3360 -0.0885
 7048TIP3   OH242558   0.942   2.551  15.334  0.2137  1.1323  0.7818
 7048TIP3    H142559   0.989   2.482  15.381  0.4742  0.9042  0.1920
 7048TIP3    H242560   0.857   2.513  15.313  0.1578  1.1787  0.9203
 7049TIP3   OH242561   3.974   0.310   1.812  0.6422 -0.1652  0.0501
 7049TIP3    H142562   3.920   0.388   1.799 -0.9320 -1.4904 -2.1940
 7049TIP3    H242563   4.064   0.341   1.802  0.2615  1.8059  2.0890
 7050TIP3   OH242564   1.383   4.526  15.164  0.1431 -0.0658 -0.2398
 7050TIP3    H142565   1.311   4.485  15.211  1.3133 -1.7539  0.1896
 7050TIP3    H242566   1.360   4.517  15.071 -1.5353  2.0586 -0.0837
 7051TIP3   OH242567   1.706   5.826  11.739  0.6113  0.1641 -0.3167
 7051TIP3    H142568   1.758   5.865  11.809 -0.7207 -0.9312  1.3431
 7051TIP3    H242569   1.620   5.811  11.778 -0.9839  1.7708 -2.9106
 7052TIP3   OH242570   3.046   5.168   1.116  0.2806  0.1166  0.0839
 7052TIP3    H142571   3.024   5.224   1.191  0.3748  1.5342 -0.8927
 7052TIP3    H242572   3.017   5.219   1.040 -2.8503 -2.6132 -0.8127
 7053TIP3   OH242573   1.448   0.411  13.384 -0.7326 -0.3651 -0.2648
 7053TIP3    H142574   1.456   0.350  13.311  0.3149 -0.3936 -0.1422
 7053TIP3    H242575   1.359   0.397  13.417 -0.8005 -1.2072 -0.7667
 7054TIP3   OH242576   0.960   1.612   3.162  0.0904  0.1226 -0.0440
 7054TIP3    H142577   0.951   1.689   3.106 -0.9112 -0.6606 -1.0258
 7054TIP3    H242578   1.051   1.614   3.192  0.0440  1.7262  0.0346
 7055TIP3   OH242579   0.481   5.890   2.267 -0.4588  0.1359  0.1777
 7055TIP3    H142580   0.567   5.871   2.231 -0.0666  1.2655  0.4773
 7055TIP3    H242581   0.493   5.886   2.362 -0.5510  0.9656  0.2377
 7056TIP3   OH242582   0.978   5.455   0.783 -0.5397  0.3112 -0.1681
 7056TIP3    H142583   0.945   5.459   0.693 -1.0833 -0.7123 -0.0226
 7056TIP3    H242584   0.902   5.475   0.838 -0.1963  0.9892  0.0728
 7057TIP3   OH242585   1.612   4.669   5.570 -0.2163  0.5917  0.3694
 7057TIP3    H142586   1.641   4.741   5.513 -2.6603  0.8943 -0.5883
 7057TIP3    H242587   1.585   4.713   5.651  1.9128  0.2913  1.3303
 7058TIP3   OH242588   1.707   3.650   2.588 -0.0030 -0.5102 -0.0790
 7058TIP3    H142589   1.713   3.564   2.630 -0.9712 -0.5553 -0.0079
 7058TIP3    H242590   1.613   3.666   2.580  0.1387  1.1442  1.1130
 7059TIP3   OH242591   3.712   4.408   1.636 -0.1604 -0.1254 -0.3013
 7059TIP3    H142592   3.641   4.345   1.650 -0.1406 -0.3659 -1.2644
 7059TIP3    H242593   3.697   4.443   1.548 -0.4514  1.5944  0.3925
 7060TIP3   OH242594   2.407   0.710   2.634 -0.0179  0.6015  0.0289
 7060TIP3    H142595   2.413   0.666   2.719 -2.0921  1.5830  0.7605
 7060TIP3    H242596   2.341   0.660   2.586 -0.5048  1.3745 -0.1232
 7061TIP3   OH242597   1.063   0.722  13.416 -0.3817  0.4379 -0.3915
 7061TIP3    H142598   1.045   0.717  13.322 -3.1067 -0.2551  0.0974
 7061TIP3    H242599   1.104   0.639  13.437  0.2437  0.5970 -0.9469
 7062TIP3   OH242600   1.236   3.214   1.296 -0.3240 -0.4965 -0.4832
 7062TIP3    H142601   1.195   3.133   1.264 -1.5260  0.5961 -1.8282
 7062TIP3    H242602   1.209   3.281   1.233 -1.1541  1.3884  1.7575
 7063TIP3   OH242603   5.736   6.677   2.943  0.4873 -0.3914 -0.3591
 7063TIP3    H142604   5.713   6.606   2.884  0.0740  1.0840 -2.0682
 7063TIP3    H242605   5.832   6.679   2.942  0.5290 -1.3543  0.2921
 7064TIP3   OH242606   3.141   2.732   2.502  0.5115  0.6587  0.3164
 7064TIP3    H142607   3.050   2.713   2.482  0.9105  0.8948 -2.0197
 7064TIP3    H242608   3.152   2.706   2.593 -1.1385 -2.2311 -0.1868
 7065TIP3   OH242609   1.128   3.675  13.773 -0.4894  0.4820  0.1588
 7065TIP3    H142610   1.216   3.710  13.789  0.1592 -0.6345 -0.8130
 7065TIP3    H242611   1.070   3.730  13.826  0.8040  1.1588  0.9121
 7066TIP3   OH242612   4.126   6.535  15.388  0.1500  0.2931 -0.1626
 7066TIP3    H142613   4.056   6.570  15.334 -1.6420 -0.9753  1.2009
 7066TIP3    H242614   4.135   6.597  15.460  1.6610  1.3267 -1.1842
 7067TIP3   OH242615   1.195   5.850   2.339 -0.0430 -0.2271 -0.2994
 7067TIP3    H142616   1.138   5.927   2.331 -0.4915 -0.6857 -1.6328
 7067TIP3    H242617   1.284   5.886   2.339 -0.2808  0.4945  1.8007
 7068TIP3   OH242618   1.147   2.804   5.004  0.4631 -0.0526 -0.0056
 7068TIP3    H142619   1.156   2.709   5.001  0.5122 -0.0388 -2.5109
 7068TIP3    H242620   1.055   2.819   5.027 -0.2919 -0.8168 -2.2573
 7069TIP3   OH242621   0.098   3.433  15.344  0.2639  0.0324  0.7088
 7069TIP3    H142622   0.036   3.437  15.271  1.0718 -2.5166 -0.2093
 7069TIP3    H242623   0.042   3.432  15.422 -0.8563 -1.3828 -0.0645
 7070TIP3   OH242624   0.848   4.833  16.768  0.0122 -0.0541 -0.8877
 7070TIP3    H142625   0.871   4.837  16.675  1.6265 -1.9794 -0.6286
 7070TIP3    H242626   0.774   4.772  16.772 -0.6478  0.7162 -0.9635
 7071TIP3   OH242627   0.946   5.949   4.682 -0.1126 -0.0502  0.0417
 7071TIP3    H142628   0.905   5.899   4.611  0.0268  2.4063 -1.8919
 7071TIP3    H242629   0.875   5.964   4.744 -0.7946 -0.4231 -0.6223
 7072TIP3   OH242630   1.195   4.435   3.074  0.7449  0.3851  0.4222
 7072TIP3    H142631   1.155   4.370   3.131 -0.4623  0.0910 -0.6945
 7072TIP3    H242632   1.272   4.390   3.038  0.3591 -0.1608  0.2567
 7073TIP3   OH242633   1.452   6.388  16.247  0.2426 -0.1102  0.0508
 7073TIP3    H142634   1.526   6.398  16.308  0.4222  0.0684 -0.1951
 7073TIP3    H242635   1.491   6.349  16.169  0.4243  1.5872 -0.7493
 7074TIP3   OH242636   5.387   3.728   3.513 -0.1334 -0.4193  0.2822
 7074TIP3    H142637   5.423   3.771   3.591  3.3719 -2.2351 -0.1520
 7074TIP3    H242638   5.408   3.636   3.525 -0.6870 -0.9406 -2.2411
 7075TIP3   OH242639   5.591   0.036   5.396  0.3982 -0.3227 -0.1814
 7075TIP3    H142640   5.508   0.073   5.365  0.0717  0.4159  1.4669
 7075TIP3    H242641   5.612  -0.032   5.332 -2.1390 -1.4280  0.0667
 7076TIP3   OH242642   1.261   0.078   4.727 -0.3464 -0.3952  0.0894
 7076TIP3    H142643   1.271   0.173   4.724  1.3649 -0.5461 -1.2870
 7076TIP3    H242644   1.336   0.047   4.779 -1.8792 -0.9493  2.1115
 7077TIP3   OH242645   1.565   2.556   1.140 -0.0474 -0.6470  0.3440
 7077TIP3    H142646   1.490   2.562   1.081 -0.4356 -0.1570  0.8784
 7077TIP3    H242647   1.529   2.525   1.222  0.6616 -2.3421  0.0490
 7078TIP3   OH242648   1.960   6.149  12.916  0.1873 -0.1193 -0.0279
 7078TIP3    H142649   2.051   6.119  12.918  0.4189  0.3618 -1.7694
 7078TIP3    H242650   1.927   6.129  13.003  1.8232 -0.7263  0.5033
 7079TIP3   OH242651   6.713   3.034   1.137  0.1321 -0.3301 -0.2069
 7079TIP3    H142652   6.662   3.092   1.194 -0.5202 -0.4666 -0.6328
 7079TIP3    H242653   6.791   3.013   1.187 -0.0043  0.2834  0.2679
 7080TIP3   OH242654   2.964   6.075  16.950 -0.2641  0.4125  0.1109
 7080TIP3    H142655   2.884   6.023  16.952  0.4273 -0.6661  0.7457
 7080TIP3    H242656   2.936   6.164  16.972 -1.2747  0.0381  0.3620
 7081TIP3   OH242657   2.369   1.944   3.555  0.4571  0.5202 -0.4400
 7081TIP3    H142658   2.439   2.005   3.576 -0.0005  0.7653  0.4050
 7081TIP3    H242659   2.412   1.875   3.505  1.6935 -0.3071  1.6357
 7082TIP3   OH242660   5.133   4.971   0.864  0.6302  0.0145  0.0102
 7082TIP3    H142661   5.039   4.969   0.881  0.9619 -1.1068  2.1339
 7082TIP3    H242662   5.163   5.050   0.907  0.7192  0.1644 -0.3264
 7083TIP3   OH242663   0.173   6.416   1.836 -0.2108  0.3309 -0.0674
 7083TIP3    H142664   0.093   6.448   1.795  0.5747  0.7220 -1.3520
 7083TIP3    H242665   0.155   6.419   1.930 -0.6374  3.4133 -0.1471
 7084TIP3   OH242666   4.551   0.290   5.545  0.4922 -0.3764  0.3263
 7084TIP3    H142667   4.613   0.269   5.475  1.5738  0.5738  0.9771
 7084TIP3    H242668   4.605   0.301   5.623 -0.4573  0.7292  0.8559
 7085TIP3   OH242669   5.585   6.572  12.288 -0.2121 -0.2882  0.4458
 7085TIP3    H142670   5.627   6.647  12.247  0.8264 -0.0372  1.8767
 7085TIP3    H242671   5.516   6.610  12.343  0.2136 -0.3770  1.0521
 7086TIP3   OH242672   5.624   0.472   3.963  0.2823 -0.0619  0.0069
 7086TIP3    H142673   5.716   0.453   3.980  0.8295  0.2765 -2.2050
 7086TIP3    H242674   5.618   0.567   3.965 -0.1398 -0.0995  0.6562
 7087TIP3   OH242675   3.557   1.684   4.862  0.2034  0.2517 -0.6245
 7087TIP3    H142676   3.638   1.640   4.835  0.8623  2.2283 -2.0716
 7087TIP3    H242677   3.562   1.686   4.958  0.4600 -2.1036 -0.5129
 7088TIP3   OH242678   5.598   3.260   1.408 -0.4243  0.7027 -0.0907
 7088TIP3    H142679   5.591   3.168   1.384 -1.2060  0.0601  2.3115
 7088TIP3    H242680   5.513   3.298   1.385 -1.1916  0.0763  1.5022
 7089TIP3   OH242681   5.973   0.076   1.505 -0.4359 -0.0070 -0.8473
 7089TIP3    H142682   5.959   0.072   1.599 -0.5423 -1.9537 -0.9096
 7089TIP3    H242683   5.950  -0.012   1.473 -3.2481  1.3635 -3.1057
 7090TIP3   OH242684   1.502   5.423   1.739 -0.4744 -0.0870  0.3048
 7090TIP3    H142685   1.483   5.516   1.733 -2.2651 -0.4240  0.1871
 7090TIP3    H242686   1.446   5.392   1.810 -0.8161 -1.2650 -0.4483
 7091TIP3   OH242687   2.377   2.660   0.851  0.1447 -0.1841 -0.4237
 7091TIP3    H142688   2.469   2.687   0.846 -0.0514  0.3676 -1.2470
 7091TIP3    H242689   2.360   2.652   0.944  0.5887  1.2997 -0.1853
 7092TIP3   OH242690   1.732   5.938   3.857  0.0674  0.1341 -0.0986
 7092TIP3    H142691   1.677   6.014   3.875  0.9784  0.7512  0.1153
 7092TIP3    H242692   1.703   5.909   3.770  0.3354  1.2846 -0.5926
 7093TIP3   OH242693   4.022   4.586   2.903 -0.5313  0.0052  0.1743
 7093TIP3    H142694   4.109   4.623   2.887  0.4274 -0.9659  2.6918
 7093TIP3    H242695   3.970   4.660   2.936 -0.0544  0.1606  0.5854
 7094TIP3   OH242696   0.929   0.342   3.807 -0.1179  0.8542  0.3232
 7094TIP3    H142697   0.895   0.404   3.742 -0.2453 -0.4131 -0.8867
 7094TIP3    H242698   0.902   0.256   3.774  0.3787  0.1166  1.7399
 7095TIP3   OH242699   6.645   0.301   5.551  0.0412  0.0701  0.3546
 7095TIP3    H142700   6.721   0.253   5.518  0.3013 -1.0251  2.4205
 7095TIP3    H242701   6.570   0.248   5.526  0.0149  0.5549 -0.6545
 7096TIP3   OH242702   0.901   0.530   0.217 -0.1710 -0.1727  0.3885
 7096TIP3    H142703   0.837   0.546   0.287 -1.1398 -0.8042 -0.3209
 7096TIP3    H242704   0.848   0.518   0.138  0.4778 -4.6257  0.4122
 7097TIP3   OH242705   3.332   1.528  14.589  0.0655 -0.1920 -0.0981
 7097TIP3    H142706   3.264   1.595  14.595 -0.3926 -0.5056 -1.3555
 7097TIP3    H242707   3.414   1.575  14.598 -0.1876  0.7765 -2.2599
 7098TIP3   OH242708   1.339   2.306   5.023  0.3176  0.1817  0.5703
 7098TIP3    H142709   1.428   2.326   4.997  0.0892  2.7934  1.5550
 7098TIP3    H242710   1.344   2.291   5.117 -0.6217  3.4742  1.2658
 7099TIP3   OH242711   0.611   0.665   3.866 -0.3229  0.0338 -0.0244
 7099TIP3    H142712   0.542   0.718   3.826 -0.6095 -0.3382 -0.0286
 7099TIP3    H242713   0.597   0.674   3.960  1.7140  2.7515  0.1552
 7100TIP3   OH242714   4.728   2.928   4.529  0.0814 -0.0846  0.0240
 7100TIP3    H142715   4.654   2.987   4.540 -0.3719 -0.6023 -0.1757
 7100TIP3    H242716   4.688   2.842   4.513  0.6988 -0.1065 -1.6271
 7101TIP3   OH242717   0.448   1.669   1.239 -0.3835  0.0652 -0.9353
 7101TIP3    H142718   0.362   1.628   1.229 -1.1034  0.7435  1.5804
 7101TIP3    H242719   0.431   1.763   1.231 -0.4345  0.3966  1.9409
 7102TIP3   OH242720   4.325   5.764   2.802 -0.0852 -0.0716 -0.2457
 7102TIP3    H142721   4.339   5.738   2.893  0.4151  0.8175 -0.0513
 7102TIP3    H242722   4.233   5.790   2.798  0.1264  0.7872  0.2557
 7103TIP3   OH242723   0.477   3.896  16.079 -0.2096 -0.5109  0.0422
 7103TIP3    H142724   0.554   3.936  16.037 -0.7374 -0.8476 -1.2767
 7103TIP3    H242725   0.513   3.826  16.133  0.3457 -1.4840 -1.5347
 7104TIP3   OH242726   6.607   6.701  12.181  0.8406 -0.3326  0.0793
 7104TIP3    H142727   6.537   6.705  12.116  1.1853  0.6943 -0.2550
 7104TIP3    H242728   6.565   6.669  12.260 -0.0048  0.2437 -0.1247
 7105TIP3   OH242729   0.343   5.350   6.111 -0.5135 -0.5327  0.1927
 7105TIP3    H142730   0.424   5.315   6.148 -0.6843 -0.8818  0.2460
 7105TIP3    H242731   0.316   5.417   6.173  1.6029  2.1775 -1.6077
 7106TIP3   OH242732   4.118   2.681  11.523 -0.1761 -0.7796  0.0203
 7106TIP3    H142733   4.069   2.599  11.514 -0.0361 -0.7749 -0.9177
 7106TIP3    H242734   4.072   2.742  11.465 -0.1327 -0.2605  0.5278
 7107TIP3   OH242735   2.800   6.381  16.518 -0.2804 -0.2788 -0.4016
 7107TIP3    H142736   2.857   6.432  16.575 -0.8756  3.1653 -2.5415
 7107TIP3    H242737   2.712   6.397  16.552 -0.5116  0.6132 -1.3509
 7108TIP3   OH242738   4.975   4.983   1.467 -0.3064 -0.2872  0.0797
 7108TIP3    H142739   5.021   4.962   1.386  1.2424 -1.4325  1.2000
 7108TIP3    H242740   4.929   5.065   1.448 -0.7466 -0.9955 -2.2106
 7109TIP3   OH242741   0.181   2.463  15.876 -0.0424  0.2615 -0.3433
 7109TIP3    H142742   0.201   2.545  15.921 -0.6676  0.6900 -0.8287
 7109TIP3    H242743   0.266   2.432  15.843  0.5010 -0.2515  1.3950
 7110TIP3   OH242744   4.450   6.513   5.145  0.2409  0.0634  0.1934
 7110TIP3    H142745   4.360   6.509   5.111  1.0843 -0.3209 -2.1683
 7110TIP3    H242746   4.439   6.514   5.241 -2.2532 -0.3250 -0.0122
 7111TIP3   OH242747   4.571   6.036  11.246  0.0168 -0.1576  0.0036
 7111TIP3    H142748   4.642   6.037  11.182  1.7420 -0.6066  1.8054
 7111TIP3    H242749   4.586   6.114  11.300 -0.2204 -0.7873  1.0223
 7112TIP3   OH242750   6.035   3.990   2.578  0.1256 -0.3213 -0.1384
 7112TIP3    H142751   6.046   3.895   2.583  2.3871 -0.1839 -1.0371
 7112TIP3    H242752   6.113   4.026   2.622  0.8389  1.0317 -2.3266
 7113TIP3   OH242753   1.582   4.063   4.588  0.1348 -0.2402 -0.8386
 7113TIP3    H142754   1.562   4.114   4.666 -1.4706  0.0210 -1.3955
 7113TIP3    H242755   1.570   3.972   4.615 -0.2908 -0.1565 -0.7366
 7114TIP3   OH242756   1.630   1.704  12.213  0.1044 -0.0735 -0.0306
 7114TIP3    H142757   1.630   1.619  12.169 -0.8150 -0.6495  1.0454
 7114TIP3    H242758   1.546   1.744  12.187  0.5362  0.5249 -0.5397
 7115TIP3   OH242759   5.696   6.039   2.958 -0.2805 -0.4206  0.2624
 7115TIP3    H142760   5.760   5.989   2.908  0.0250  0.6553 -0.4664
 7115TIP3    H242761   5.674   6.113   2.901 -2.6715 -1.1017  0.2283
 7116TIP3   OH242762   3.774   5.425  12.566  0.1465 -0.0561 -0.0795
 7116TIP3    H142763   3.807   5.418  12.477 -1.6142  1.2170 -0.8961
 7116TIP3    H242764   3.834   5.372  12.619  0.3089 -2.1477 -2.2310
 7117TIP3   OH242765   5.277   0.927  10.817  0.2078 -0.0134 -0.1812
 7117TIP3    H142766   5.327   0.856  10.777  1.0609  0.1226  0.6119
 7117TIP3    H242767   5.324   1.007  10.792 -0.0867  0.1851 -0.1078
 7118TIP3   OH242768   1.610   6.329   5.826 -0.7386 -0.1276 -0.6967
 7118TIP3    H142769   1.665   6.383   5.883 -0.9481 -1.2075  0.5776
 7118TIP3    H242770   1.521   6.363   5.839 -0.7962 -0.4196 -0.3112
 7119TIP3   OH242771   2.955   1.927   2.387 -0.3676 -0.4468  0.3124
 7119TIP3    H142772   2.884   1.957   2.331  1.1671  0.7631 -1.0826
 7119TIP3    H242773   2.975   1.839   2.355 -1.0753 -0.7109  0.5767
 7120TIP3   OH242774   3.502   4.489   5.951  0.0287  0.0235  0.0065
 7120TIP3    H142775   3.463   4.402   5.960 -0.0680  0.1469  0.8980
 7120TIP3    H242776   3.571   4.492   6.018  0.2777  0.5030 -0.2609
 7121TIP3   OH242777   3.454   4.092  14.408 -0.1640 -0.6708  0.5966
 7121TIP3    H142778   3.464   4.062  14.318 -0.2728 -2.0183  1.0067
 7121TIP3    H242779   3.481   4.017  14.461 -3.9801 -1.4445  1.7079
 7122TIP3   OH242780   5.888   5.510  10.922  0.2366  0.5701 -0.2875
 7122TIP3    H142781   5.796   5.507  10.897  0.1183 -2.1614  0.2760
 7122TIP3    H242782   5.936   5.506  10.838 -0.1237  0.8801 -0.5128
 7123TIP3   OH242783   0.574   0.623   3.059  0.0338 -0.0281 -0.2828
 7123TIP3    H142784   0.558   0.544   3.111  0.1194  0.0624 -0.1186
 7123TIP3    H242785   0.525   0.608   2.978 -1.6962  0.6646  0.5921
 7124TIP3   OH242786   5.794   1.901   5.751  0.5205  0.2797 -0.0898
 7124TIP3    H142787   5.885   1.870   5.755  0.6658  0.7121 -0.0325
 7124TIP3    H242788   5.750   1.837   5.695  1.1521  0.7795 -1.1870
 7125TIP3   OH242789   0.021   6.036  11.283  0.2722  0.1830 -0.4187
 7125TIP3    H142790  -0.023   6.107  11.236 -0.1739 -0.6907 -1.3689
 7125TIP3    H242791   0.112   6.063  11.288 -0.3789  2.4096  2.2703
 7126TIP3   OH242792   0.324   5.743   0.276  0.1523 -0.6352  0.5351
 7126TIP3    H142793   0.302   5.726   0.185 -1.2798  2.7020  0.1123
 7126TIP3    H242794   0.242   5.771   0.317  1.4289  1.6436  1.7836
 7127TIP3   OH242795   1.870   2.976  14.585  0.5721  0.3542 -0.1306
 7127TIP3    H142796   1.946   2.995  14.531  0.1050  0.3732 -0.7983
 7127TIP3    H242797   1.831   3.062  14.602  1.4517  0.4849  1.3658
 7128TIP3   OH242798   5.268   3.207   4.280  0.1743  0.5388  0.1563
 7128TIP3    H142799   5.260   3.175   4.190  1.1861  1.2781 -0.2119
 7128TIP3    H242800   5.222   3.290   4.281 -0.3392  0.2568  0.4836
 7129TIP3   OH242801   5.347   0.661  13.033 -0.2514  0.2223  0.0069
 7129TIP3    H142802   5.336   0.567  13.020 -3.5438  0.4271  0.4234
 7129TIP3    H242803   5.299   0.701  12.961 -0.1133  1.5714  0.6230
 7130TIP3   OH242804   6.651   1.760  11.737  0.5442 -0.3129 -0.0601
 7130TIP3    H142805   6.732   1.807  11.756  0.4931  0.3456 -1.4082
 7130TIP3    H242806   6.643   1.762  11.642 -0.6581 -1.0545  0.0017
 7131TIP3   OH242807   6.642   4.726  12.264  0.1597  0.5472  0.4517
 7131TIP3    H142808   6.581   4.704  12.335 -0.7324 -1.5180 -0.8753
 7131TIP3    H242809   6.688   4.804  12.296 -3.3855  2.4910  1.4095
 7132TIP3   OH242810   2.393   3.390   2.075  0.2589  0.3448 -0.5504
 7132TIP3    H142811   2.393   3.436   2.159  0.4347  0.3627 -0.5609
 7132TIP3    H242812   2.322   3.430   2.025 -0.0980  0.0805 -0.2679
 7133TIP3   OH242813   1.462   2.086   3.750 -0.3692 -0.1307 -0.3349
 7133TIP3    H142814   1.374   2.090   3.787 -0.2587 -0.5356 -0.0209
 7133TIP3    H242815   1.456   2.023   3.679 -0.1334 -0.8183  0.2504
 7134TIP3   OH242816   5.330   3.183   3.311  0.0749 -0.3947  0.2833
 7134TIP3    H142817   5.391   3.252   3.284 -0.5355 -0.1557 -0.5449
 7134TIP3    H242818   5.331   3.186   3.407 -0.6182  1.4040  0.2765
 7135TIP3   OH242819   4.453   3.700  13.724 -0.0399  0.0808  0.7919
 7135TIP3    H142820   4.390   3.739  13.785 -2.1605 -0.9633 -0.6389
 7135TIP3    H242821   4.408   3.626  13.686  1.2370  0.5813 -1.9665
 7136TIP3   OH242822   0.355   1.291   0.064 -0.5163  0.0376  0.1238
 7136TIP3    H142823   0.427   1.252   0.013 -0.4708 -0.5533  0.6342
 7136TIP3    H242824   0.309   1.347   0.001  0.1199  0.0696 -0.3234
 7137TIP3   OH242825   0.030   2.061   1.706  0.3396 -0.4554 -0.4274
 7137TIP3    H142826  -0.047   2.100   1.664 -0.1604 -0.0079  0.8672
 7137TIP3    H242827   0.105   2.108   1.668 -0.1477  0.4542 -0.2883
 7138TIP3   OH242828   6.434   3.061  11.623  0.0363 -0.3625 -0.1866
 7138TIP3    H142829   6.394   3.011  11.694  0.2774 -0.1813  0.0737
 7138TIP3    H242830   6.509   3.104  11.662 -0.8013  1.1280 -0.1277
 7139TIP3   OH242831   5.843   2.109   2.518 -0.1296  0.4685  0.1127
 7139TIP3    H142832   5.892   2.057   2.454  0.1565  1.1998 -0.2725
 7139TIP3    H242833   5.834   2.194   2.477  1.3012  1.4082  1.6203
 7140TIP3   OH242834   2.731   4.445   3.576  0.0357 -0.2353  0.1239
 7140TIP3    H142835   2.768   4.474   3.660  0.4618  1.5027 -0.6078
 7140TIP3    H242836   2.641   4.479   3.577 -0.3291 -1.1869  0.3282
 7141TIP3   OH242837   6.333   0.656  15.764 -0.1112  0.0629  0.4531
 7141TIP3    H142838   6.372   0.597  15.830  1.1405  0.1204 -0.1981
 7141TIP3    H242839   6.405   0.714  15.740 -0.5559  0.0521 -0.9563
 7142TIP3   OH242840   4.103   0.284   2.899 -0.2920  0.4118  0.2921
 7142TIP3    H142841   4.137   0.226   2.967 -0.4136  1.6526  1.4270
 7142TIP3    H242842   4.098   0.370   2.940 -0.1757  1.2335 -1.3523
 7143TIP3   OH242843   5.938   1.237  13.317 -0.4852  0.2417 -0.3519
 7143TIP3    H142844   6.008   1.172  13.318 -0.4622  0.2705 -0.0345
 7143TIP3    H242845   5.914   1.245  13.225  1.5125  1.9628 -0.7926
 7144TIP3   OH242846   1.947   6.233  16.460  0.0780 -0.3778  0.2003
 7144TIP3    H142847   1.971   6.314  16.507  2.3062 -1.2115  0.6522
 7144TIP3    H242848   2.016   6.224  16.394 -2.3070  0.1090 -2.5402
 7145TIP3   OH242849   5.810   4.980   0.938  0.1560  0.5940 -0.4233
 7145TIP3    H142850   5.766   5.045   0.993 -0.5107  0.0643 -0.3293
 7145TIP3    H242851   5.896   4.968   0.978 -1.1850 -1.6712  2.0452
 7146TIP3   OH242852   6.585   3.567  15.224  0.3517  0.0834 -0.0163
 7146TIP3    H142853   6.662   3.530  15.182 -0.2000 -0.0077 -0.9834
 7146TIP3    H242854   6.564   3.645  15.172 -0.9410 -0.5975 -0.5459
 7147TIP3   OH242855   1.678   5.338   2.126  0.7374  0.1789 -0.0283
 7147TIP3    H142856   1.713   5.425   2.149  1.9847 -0.4111  0.3696
 7147TIP3    H242857   1.701   5.327   2.034  1.0414  0.0645  0.0588
 7148TIP3   OH242858   5.521   0.158  15.781  0.8032 -0.3541  0.2437
 7148TIP3    H142859   5.577   0.135  15.707 -0.2753  2.4191 -1.6005
 7148TIP3    H242860   5.565   0.233  15.822 -0.4858  0.6059 -0.0381
 7149TIP3   OH242861   1.684   1.733   4.709  0.1201  0.0345 -0.3143
 7149TIP3    H142862   1.727   1.651   4.735 -2.3822 -1.4503 -0.4618
 7149TIP3    H242863   1.718   1.751   4.621 -0.9244 -2.1927 -1.2562
 7150TIP3   OH242864   3.832   2.021  12.229  0.0212  0.7560 -0.3898
 7150TIP3    H142865   3.922   1.999  12.253  0.2800  1.2825 -0.8624
 7150TIP3    H242866   3.812   1.962  12.156 -0.6030 -0.5157  0.7677
 7151TIP3   OH242867   2.838   0.319   0.508 -0.4543  0.0161  0.0270
 7151TIP3    H142868   2.820   0.266   0.431 -1.0858 -0.9024  0.7732
 7151TIP3    H242869   2.925   0.355   0.494  0.5344 -2.2004  0.0058
 7152TIP3   OH242870   6.059   4.712   2.626 -0.0001 -0.7520 -0.5774
 7152TIP3    H142871   5.969   4.741   2.638 -0.0464  0.1964 -2.8172
 7152TIP3    H242872   6.099   4.778   2.570  1.9429 -1.4366 -0.0766
 7153TIP3   OH242873   4.695   6.419  13.953 -0.0772  0.1206 -0.3542
 7153TIP3    H142874   4.700   6.349  13.888 -1.9585 -0.3355 -0.0645
 7153TIP3    H242875   4.683   6.499  13.901 -0.1390 -0.0558 -0.6129
 7154TIP3   OH242876   5.080   6.326   2.967  0.2968 -0.1380 -0.1481
 7154TIP3    H142877   5.035   6.272   3.033  0.9468 -0.1210  0.3161
 7154TIP3    H242878   5.009   6.361   2.913 -0.3266  0.5815  1.0890
 7155TIP3   OH242879   4.477   4.000   5.928 -0.3929 -0.7443 -0.7732
 7155TIP3    H142880   4.482   3.905   5.936  2.8315 -0.6353 -0.2697
 7155TIP3    H242881   4.420   4.027   6.000  0.4445 -2.1715  0.4835
 7156TIP3   OH242882   4.536   4.018  13.450 -0.3063  0.1984 -0.5501
 7156TIP3    H142883   4.505   3.930  13.430  1.9365 -0.7482 -0.2217
 7156TIP3    H242884   4.482   4.046  13.524 -0.4423 -1.3147 -0.0361
 7157TIP3   OH242885   5.316   4.803  12.871 -0.4456 -0.8391  0.6055
 7157TIP3    H142886   5.247   4.854  12.915  1.0477  0.1677  1.8991
 7157TIP3    H242887   5.306   4.824  12.778 -1.0832  0.3080  0.9150
 7158TIP3   OH242888   0.633   1.824   5.641  0.0623  0.4013  0.4351
 7158TIP3    H142889   0.715   1.840   5.688  0.7894 -1.2249 -0.1851
 7158TIP3    H242890   0.574   1.789   5.708  0.0505  1.0074  0.7562
 7159TIP3   OH242891   0.654   2.458   4.969  0.1316  0.2675 -0.3486
 7159TIP3    H142892   0.734   2.405   4.975 -0.9761 -1.3326  1.8811
 7159TIP3    H242893   0.610   2.427   4.890  2.0524  1.8071 -2.1303
 7160TIP3   OH242894   5.919   5.366  14.277 -0.1859  0.3026 -0.4294
 7160TIP3    H142895   5.890   5.454  14.254 -0.0373  0.9921  1.8312
 7160TIP3    H242896   5.974   5.378  14.354 -1.2705 -1.9012  0.7723
 7161TIP3   OH242897   2.221   3.210   3.483 -0.2412  0.1265  0.5232
 7161TIP3    H142898   2.292   3.273   3.476  0.5340 -0.8572 -1.3849
 7161TIP3    H242899   2.257   3.129   3.447 -2.0357 -0.6648  0.3770
 7162TIP3   OH242900   3.518   5.234   3.633 -0.5581  0.5769 -0.2347
 7162TIP3    H142901   3.429   5.243   3.597 -0.0643  2.8285 -1.0204
 7162TIP3    H242902   3.542   5.322   3.661  0.2193 -0.5581  3.1159
 7163TIP3   OH242903   0.030   4.035  16.524 -0.9210 -0.0151 -0.3386
 7163TIP3    H142904   0.001   3.970  16.589  0.5824 -0.1996  0.1866
 7163TIP3    H242905   0.040   4.116  16.574  1.3685 -0.4261 -0.0227
 7164TIP3   OH242906   2.984   3.204   3.245  1.2612  0.0405 -0.3503
 7164TIP3    H142907   2.987   3.298   3.260 -0.3183 -0.1691  1.8299
 7164TIP3    H242908   3.075   3.175   3.248  1.6024  1.1576  1.8145
 7165TIP3   OH242909   2.684   3.301   2.343 -0.1834  0.2266  0.4879
 7165TIP3    H142910   2.654   3.229   2.287 -1.3048 -0.4144  1.8476
 7165TIP3    H242911   2.606   3.326   2.393  0.7735  0.7524  1.7720
 7166TIP3   OH242912   4.077   4.007   3.858  0.8905 -0.8312 -0.1862
 7166TIP3    H142913   4.117   4.043   3.778  2.2694 -0.5345  0.5953
 7166TIP3    H242914   4.116   3.920   3.867  0.6433 -0.9120  0.1064
 7167TIP3   OH242915   1.749   4.744   5.193 -0.5003  0.3518 -0.4302
 7167TIP3    H142916   1.809   4.678   5.159  0.5789  2.0804 -2.1009
 7167TIP3    H242917   1.662   4.706   5.182  0.1393 -1.3057 -0.0379
 7168TIP3   OH242918   4.213   0.149  11.963 -0.1747 -0.1960 -0.5707
 7168TIP3    H142919   4.299   0.166  11.924 -1.1439  1.3218 -2.1825
 7168TIP3    H242920   4.154   0.211  11.920 -1.9717 -0.7136  0.9898
 7169TIP3   OH242921   0.911   2.432  13.805 -0.5406  0.0929 -0.3096
 7169TIP3    H142922   0.833   2.486  13.791 -0.2224  0.0701 -2.3499
 7169TIP3    H242923   0.977   2.469  13.747  0.8674 -0.1720  1.0641
 7170TIP3   OH242924   3.574   3.418  10.386  0.1851 -0.0457  0.1042
 7170TIP3    H142925   3.607   3.399  10.298 -0.5544 -0.3039 -0.1270
 7170TIP3    H242926   3.626   3.492  10.416  1.1165 -0.5858 -0.1505
 7171TIP3   OH242927   4.290   1.697   4.715 -0.3816  0.1003 -0.0304
 7171TIP3    H142928   4.275   1.788   4.740  0.1998  0.0860  0.3924
 7171TIP3    H242929   4.209   1.651   4.737 -0.1212  0.2129  1.2233
 7172TIP3   OH242930   4.710   1.790   0.489 -0.3995 -0.8169 -0.3394
 7172TIP3    H142931   4.634   1.747   0.528 -1.2434  1.8628  1.2370
 7172TIP3    H242932   4.761   1.821   0.564  2.0440 -2.1146 -1.3800
 7173TIP3   OH242933   4.635   1.169  13.716 -0.0043 -0.4053  0.0943
 7173TIP3    H142934   4.603   1.186  13.804  0.6080  0.2114  0.2081
 7173TIP3    H242935   4.617   1.077  13.701 -1.3094 -0.2072  0.3581
 7174TIP3   OH242936   4.178   3.434  12.663 -0.1748  0.3422 -0.3306
 7174TIP3    H142937   4.146   3.345  12.648  1.7324 -0.8738  2.0620
 7174TIP3    H242938   4.255   3.442  12.607  0.0056  0.2486 -0.0979
 7175TIP3   OH242939   6.503   6.328  11.725  0.4522  0.3247 -0.3805
 7175TIP3    H142940   6.596   6.326  11.748  0.2158  0.7698  0.6935
 7175TIP3    H242941   6.494   6.264  11.655  1.2122 -1.2179  0.8688
 7176TIP3   OH242942   0.161   2.922  16.117  0.2190  0.0951  0.6446
 7176TIP3    H142943   0.113   2.978  16.177 -0.2000 -0.2079  0.6007
 7176TIP3    H242944   0.216   2.981  16.067  0.6139  0.3479  1.3615
 7177TIP3   OH242945   3.474   0.679  11.715 -0.2402  0.0074 -0.2070
 7177TIP3    H142946   3.429   0.626  11.648  1.1634 -3.0249  1.0493
 7177TIP3    H242947   3.539   0.729  11.665 -0.6416 -0.5480 -1.3386
 7178TIP3   OH242948   6.569   1.484  16.097 -0.3410 -0.2080  0.3515
 7178TIP3    H142949   6.624   1.452  16.025  2.1917  1.0381  1.6111
 7178TIP3    H242950   6.530   1.565  16.064 -0.7098 -0.6105 -0.2250
 7179TIP3   OH242951   5.874   0.425   1.062 -0.1903  0.6564 -0.0686
 7179TIP3    H142952   5.835   0.508   1.038 -0.5496  1.0665  1.7712
 7179TIP3    H242953   5.830   0.360   1.007 -1.1040  1.4847 -0.3314
 7180TIP3   OH242954   5.896   5.284   3.193 -0.5934  0.1596 -0.4785
 7180TIP3    H142955   5.880   5.193   3.167 -1.9558  0.6478 -1.4354
 7180TIP3    H242956   5.843   5.296   3.271  2.8319 -1.0443  2.3094
 7181TIP3   OH242957   2.330   2.670   4.617  0.0304 -0.3369  0.0011
 7181TIP3    H142958   2.413   2.714   4.633  0.1849 -0.5722 -0.1486
 7181TIP3    H242959   2.295   2.711   4.538 -0.2045  0.0630  0.3125
 7182TIP3   OH242960   3.038   5.962  13.114  0.4666  0.1216  0.0489
 7182TIP3    H142961   3.024   6.027  13.183  0.4528 -1.8300  2.0000
 7182TIP3    H242962   3.131   5.941  13.121  0.0996 -1.3942  0.7610
 7183TIP3   OH242963   2.080   6.595  11.449  0.5351  0.2952 -0.1656
 7183TIP3    H142964   2.083   6.690  11.437  1.8304  0.2931  0.0643
 7183TIP3    H242965   2.127   6.560  11.373  0.2952 -0.1492 -0.1099
 7184TIP3   OH242966   6.159   4.474  16.012 -0.6520 -0.0214  0.4712
 7184TIP3    H142967   6.169   4.470  16.108 -1.7015  2.2648  0.7383
 7184TIP3    H242968   6.133   4.564  15.995  0.0386 -0.2510 -2.0571
 7185TIP3   OH242969   1.476   0.523   6.197 -0.2234  0.6508 -0.1355
 7185TIP3    H142970   1.389   0.544   6.232 -1.1353  0.0248 -1.9061
 7185TIP3    H242971   1.507   0.452   6.253 -0.4758  1.4177  1.0235
 7186TIP3   OH242972   3.595   2.066  15.541  0.0527 -0.0957  0.7631
 7186TIP3    H142973   3.502   2.077  15.559  0.5953  0.5646  3.6770
 7186TIP3    H242974   3.628   2.016  15.616  2.1588  0.2359  0.1146
 7187TIP3   OH242975   1.340   1.438   0.650 -0.3042 -0.4824 -0.1518
 7187TIP3    H142976   1.262   1.426   0.704 -0.6136 -1.7379 -0.8290
 7187TIP3    H242977   1.315   1.503   0.585 -0.9356 -1.1469 -0.5949
 7188TIP3   OH242978   0.927   4.523  12.786 -0.0863  0.2745  0.4759
 7188TIP3    H142979   0.955   4.597  12.839  1.1976  0.4069 -0.3565
 7188TIP3    H242980   1.003   4.465  12.782 -0.2120  0.1584 -1.0079
 7189TIP3   OH242981   2.289   1.684  15.347  0.1939 -0.5920  0.2784
 7189TIP3    H142982   2.317   1.633  15.271  1.1981  0.3458  0.0029
 7189TIP3    H242983   2.273   1.619  15.415 -0.1805 -1.4022 -0.5624
 7190TIP3   OH242984   3.904   4.129  12.440 -0.1380  0.5612  0.0628
 7190TIP3    H142985   3.938   4.086  12.362 -0.2600 -1.1831  0.9080
 7190TIP3    H242986   3.961   4.098  12.511  0.2444  2.4511  0.6158
 7191TIP3   OH242987   1.542   1.647  16.428 -0.0443  0.2831  0.5218
 7191TIP3    H142988   1.495   1.727  16.403  0.8311  1.4614  2.4171
 7191TIP3    H242989   1.634   1.666  16.407  0.0204 -0.7312 -0.1582
 7192TIP3   OH242990   2.304   5.252   6.200 -0.2249 -0.1574  0.6159
 7192TIP3    H142991   2.366   5.251   6.272  2.0959 -0.5116 -1.2549
 7192TIP3    H242992   2.320   5.170   6.154 -2.0485 -0.2085 -0.0017
 7193TIP3   OH242993   4.763   4.126   3.495  0.2838  0.1584 -0.1993
 7193TIP3    H142994   4.813   4.177   3.559  0.3363  0.2702 -0.3296
 7193TIP3    H242995   4.731   4.191   3.432  1.9427 -0.1504 -1.4497
 7194TIP3   OH242996   2.858   3.038  16.326 -0.1857 -0.4260  0.4687
 7194TIP3    H142997   2.779   2.998  16.362 -1.6819  1.2972 -0.7552
 7194TIP3    H242998   2.896   2.970  16.270 -0.2876 -1.5511  1.7024
 7195TIP3   OH242999   0.586   0.493  11.401 -0.5184  0.0634 -0.1352
 7195TIP3    H143000   0.659   0.549  11.375  0.3517 -0.3007  1.3585
 7195TIP3    H243001   0.589   0.419  11.341 -0.2169  0.4918 -0.6464
 7196TIP3   OH243002   2.600   0.239   4.866  0.2610 -0.7797  0.2994
 7196TIP3    H143003   2.684   0.193   4.874  1.4361  1.4519  1.9860
 7196TIP3    H243004   2.550   0.212   4.943 -0.0926 -1.1790 -0.0659
 7197TIP3   OH243005   2.580   2.085  14.711 -0.3483  0.1943  0.4197
 7197TIP3    H143006   2.649   2.150  14.718  0.6899 -0.6848 -1.0957
 7197TIP3    H243007   2.619   2.004  14.745 -0.5063 -0.3802 -0.7229
 7198TIP3   OH243008   5.488   3.257  12.398  0.1695 -0.0064  0.2176
 7198TIP3    H143009   5.444   3.203  12.332 -0.4536 -0.2806  0.8357
 7198TIP3    H243010   5.579   3.260  12.370  0.1873 -1.2473  0.0703
 7199TIP3   OH243011   6.587   3.981   6.153 -0.1915  0.0330 -0.3414
 7199TIP3    H143012   6.585   4.033   6.234  0.8958  2.4981 -1.7608
 7199TIP3    H243013   6.671   3.935   6.156  0.3401  0.9539 -0.4832
 7200TIP3   OH243014   4.617   6.796  14.501 -0.2095 -0.1889  0.4308
 7200TIP3    H143015   4.712   6.790  14.508 -0.0692 -2.6646 -1.8539
 7200TIP3    H243016   4.587   6.808  14.591  2.2130  0.3243  1.2497
 7201TIP3   OH243017   3.140   3.584  13.341  0.0990 -0.2701  0.3253
 7201TIP3    H143018   3.131   3.531  13.261 -1.1381 -0.2639  0.4495
 7201TIP3    H243019   3.070   3.649  13.335 -0.4195 -0.6638  1.7095
 7202TIP3   OH243020   5.873   6.390   3.070  0.2387 -0.2559  0.4341
 7202TIP3    H143021   5.800   6.424   3.018  1.6508  0.9398 -0.8737
 7202TIP3    H243022   5.832   6.332   3.134 -1.8066  0.0556 -0.5090
 7203TIP3   OH243023   0.720   5.015   0.019  0.0602  0.0021 -0.1031
 7203TIP3    H143024   0.805   4.970   0.021  0.1448  0.1811  0.4001
 7203TIP3    H243025   0.666   4.965   0.080 -0.6087 -0.9060 -1.3802
 7204TIP3   OH243026   3.751   6.783  15.043 -0.2963  0.1663 -0.3957
 7204TIP3    H143027   3.671   6.766  14.993 -0.4015 -1.5368  0.2868
 7204TIP3    H243028   3.723   6.790  15.134  0.3809 -1.2365 -0.0476
 7205TIP3   OH243029   0.519   6.777  16.467 -0.0349  0.3832 -0.0315
 7205TIP3    H143030   0.607   6.805  16.493 -0.3995  1.4925  0.0583
 7205TIP3    H243031   0.485   6.851  16.416 -0.6641 -0.3131 -0.6391
 7206TIP3   OH243032   1.347   3.163  15.341  0.1892  0.3728 -0.0912
 7206TIP3    H143033   1.283   3.122  15.283  0.4915  0.2405 -0.3344
 7206TIP3    H243034   1.294   3.200  15.412 -0.1010 -0.2861  0.0472
 7207TIP3   OH243035   0.259   0.172  14.944  0.0467  0.1435  0.0829
 7207TIP3    H143036   0.171   0.208  14.938  0.2135  0.4766 -0.4375
 7207TIP3    H243037   0.269   0.119  14.864  1.0946  1.8994 -1.0280
 7208TIP3   OH243038   4.155   1.856  11.102  0.0129  0.1280 -0.3594
 7208TIP3    H143039   4.147   1.912  11.025  1.6232 -0.6510 -1.1462
 7208TIP3    H243040   4.089   1.788  11.088 -0.0852  0.3031 -0.7719
 7209TIP3   OH243041   5.051   1.607   0.989  0.3358  0.4074  0.2749
 7209TIP3    H143042   5.022   1.697   1.005 -2.2475 -0.4975  1.2752
 7209TIP3    H243043   5.071   1.573   1.076  1.2922 -0.0035 -0.0949
 7210TIP3   OH243044   0.148   6.110   3.300  0.0514  0.8202  0.0040
 7210TIP3    H143045   0.108   6.187   3.258  1.0042  1.5924  0.4764
 7210TIP3    H243046   0.242   6.122   3.287  0.1877 -1.1680 -1.4432
 7211TIP3   OH243047   6.747   1.150  11.747  0.2357 -0.1319 -0.1875
 7211TIP3    H143048   6.750   1.146  11.651 -1.7153 -0.7656 -0.2712
 7211TIP3    H243049   6.766   1.241  11.768 -0.8056  0.3612 -1.2884
 7212TIP3   OH243050   1.656   2.121   4.278 -1.0585  0.5152  0.0673
 7212TIP3    H143051   1.564   2.100   4.261 -0.6927  0.1483 -1.6503
 7212TIP3    H243052   1.704   2.080   4.206  0.3460  1.7432  0.2452
 7213TIP3   OH243053   0.185   4.098   3.849  0.2061  0.1081  0.1546
 7213TIP3    H143054   0.169   4.161   3.779 -0.0083 -0.4510 -0.3015
 7213TIP3    H243055   0.238   4.147   3.912  3.3471 -0.3113 -1.9303
 7214TIP3   OH243056   6.706   5.981   1.409  0.5536 -0.1281 -0.0524
 7214TIP3    H143057   6.667   5.974   1.496 -0.3161 -0.7218 -0.4636
 7214TIP3    H243058   6.655   6.050   1.366 -0.4754 -1.2915 -0.7824
 7215TIP3   OH243059   0.961   2.351  16.561  0.3367 -0.5545  0.0282
 7215TIP3    H143060   1.017   2.395  16.498  0.3649  1.6802  1.4922
 7215TIP3    H243061   1.016   2.341  16.639 -0.1524 -1.8808  0.2304
 7216TIP3   OH243062   4.123   2.906   2.080 -0.5231 -0.3929 -0.2982
 7216TIP3    H143063   4.041   2.860   2.099 -0.9288 -0.3864 -1.8994
 7216TIP3    H243064   4.154   2.867   1.998  1.1728 -0.5047  0.3541
 7217TIP3   OH243065   2.898   4.220  15.489 -0.9525 -0.0657  0.3811
 7217TIP3    H143066   2.990   4.244  15.501 -1.0948  0.9894 -0.4870
 7217TIP3    H243067   2.855   4.302  15.464 -1.5373 -1.0868 -2.3320
 7218TIP3   OH243068   4.958   0.932   2.807 -0.6719 -0.0202 -0.2417
 7218TIP3    H143069   4.973   0.964   2.896  1.4497 -0.2134 -0.4757
 7218TIP3    H243070   4.959   0.837   2.816 -0.4537 -0.0394 -0.4852
 7219TIP3   OH243071   4.160   0.528   5.651  0.1554  0.1946 -0.0221
 7219TIP3    H143072   4.090   0.591   5.663  1.5087  1.6509  0.6065
 7219TIP3    H243073   4.135   0.454   5.706  0.4402  1.8662  2.5093
 7220TIP3   OH243074   2.948   1.233   1.478  0.3750 -0.6905 -0.5047
 7220TIP3    H143075   2.929   1.232   1.572 -2.4963 -1.9556 -1.0049
 7220TIP3    H243076   3.004   1.156   1.465  1.3449 -0.1372  0.2241
 7221TIP3   OH243077   4.278   5.115   0.548 -0.0074  0.1112 -0.5070
 7221TIP3    H143078   4.344   5.056   0.510  0.2977 -0.1356  0.3896
 7221TIP3    H243079   4.326   5.162   0.616 -0.3462  1.1331 -0.9589
 7222TIP3   OH243080   5.572   2.553   1.874  0.5633 -0.1936  0.0986
 7222TIP3    H143081   5.576   2.476   1.931 -0.0420 -0.5751 -0.3556
 7222TIP3    H243082   5.663   2.581   1.864  0.9134 -1.5433 -0.6584
 7223TIP3   OH243083   2.999   0.054  14.898 -0.1550 -0.0169 -0.3073
 7223TIP3    H143084   2.919   0.008  14.925 -0.3289 -0.4286 -1.4771
 7223TIP3    H243085   2.969   0.119  14.835  0.2732  0.7653  0.2730
 7224TIP3   OH243086   1.651   4.509  11.682 -0.0395 -0.3880 -0.1155
 7224TIP3    H143087   1.734   4.468  11.658 -0.2809 -0.7421 -0.3621
 7224TIP3    H243088   1.658   4.598  11.650  0.6080 -0.1376  0.6827
 7225TIP3   OH243089   6.172   3.426  12.124 -0.3604 -0.0788  0.2245
 7225TIP3    H143090   6.220   3.500  12.087 -2.0462  1.1344  0.3145
 7225TIP3    H243091   6.203   3.419  12.214  0.1958  0.1714  0.0577
 7226TIP3   OH243092   3.322   0.926   1.852  0.5075  0.4866  0.0256
 7226TIP3    H143093   3.371   0.962   1.925 -0.6502  0.3131  0.9072
 7226TIP3    H243094   3.252   0.989   1.836  1.1397  0.8759 -1.4120
 7227TIP3   OH243095   1.957   0.781   5.136 -0.5699 -0.6545  0.3912
 7227TIP3    H143096   1.914   0.863   5.111  1.3026  0.1597 -0.3374
 7227TIP3    H243097   1.924   0.762   5.224 -2.3424 -0.0718 -0.1102
 7228TIP3   OH243098   0.469   0.636  14.638 -0.2127 -0.3173 -0.3423
 7228TIP3    H143099   0.432   0.556  14.676 -1.5321 -0.5086 -1.8896
 7228TIP3    H243100   0.554   0.609  14.604  0.1634 -0.5911  0.7623
 7229TIP3   OH243101   5.733   0.003   0.943 -0.1877  0.1646 -0.4480
 7229TIP3    H143102   5.826   0.015   0.926  0.1765  1.0267  1.8100
 7229TIP3    H243103   5.695   0.091   0.933  0.1994  0.9693  3.3465
 7230TIP3   OH243104   0.773   5.388   4.972  0.1119 -0.1079 -0.3521
 7230TIP3    H143105   0.733   5.312   4.931 -1.5629  0.6080 -0.1580
 7230TIP3    H243106   0.819   5.354   5.049  0.9350 -1.1132 -1.2682
 7231TIP3   OH243107   3.352   1.219  14.397  0.4127  0.0200 -0.3087
 7231TIP3    H143108   3.377   1.235  14.306  0.9748 -0.8565 -0.3247
 7231TIP3    H243109   3.258   1.203  14.394  0.1791  1.3654 -0.5371
 7232TIP3   OH243110   3.858   0.774   2.625  0.3100  1.0269  0.2922
 7232TIP3    H143111   3.873   0.842   2.690  0.1766  1.7369 -0.4062
 7232TIP3    H243112   3.945   0.749   2.594  0.6051 -1.1731  2.5502
 7233TIP3   OH243113   3.119   3.602  14.250  0.3488 -0.0059  0.3073
 7233TIP3    H143114   3.031   3.637  14.259 -0.0711 -1.0584  0.3637
 7233TIP3    H243115   3.123   3.569  14.160  0.1268 -1.4489  0.8139
 7234TIP3   OH243116   5.960   0.434   5.823  0.1256  0.0831  0.5168
 7234TIP3    H143117   6.037   0.462   5.872  0.0415 -0.8535  1.2186
 7234TIP3    H243118   5.888   0.441   5.886 -0.7315  2.7136 -0.6543
 7235TIP3   OH243119   2.020   1.326   2.638 -0.3595  0.0205  0.2929
 7235TIP3    H143120   1.955   1.269   2.597  0.2338 -0.2760 -0.2520
 7235TIP3    H243121   2.103   1.303   2.595 -0.0094  0.8672  0.4907
 7236TIP3   OH243122   0.300   2.256   0.540  0.6238  0.0329  0.1989
 7236TIP3    H143123   0.224   2.197   0.543 -0.1051  0.4372 -4.0505
 7236TIP3    H243124   0.264   2.343   0.557  0.2181  0.1016 -0.8945
 7237TIP3   OH243125   3.998   3.875  15.047  0.3560  0.0263  0.2531
 7237TIP3    H143126   3.910   3.883  15.084 -0.5248  1.2116 -1.8985
 7237TIP3    H243127   4.051   3.839  15.118 -1.6956 -0.0315  1.8470
 7238TIP3   OH243128   3.329   4.116   3.617 -0.4782 -0.3827  0.2240
 7238TIP3    H143129   3.248   4.111   3.566 -1.0342 -0.7052  1.1283
 7238TIP3    H243130   3.301   4.110   3.708  0.5833 -0.6503  0.5446
 7239TIP3   OH243131   2.177   2.555  15.122  0.5535 -0.2305 -0.7722
 7239TIP3    H143132   2.095   2.510  15.141  0.0296  0.5861 -1.0621
 7239TIP3    H243133   2.151   2.633  15.075  1.4536  0.3522 -0.3306
 7240TIP3   OH243134   4.778   2.602  15.772 -0.0926 -0.1262 -0.3044
 7240TIP3    H143135   4.749   2.689  15.743  1.2294  0.1429 -0.8838
 7240TIP3    H243136   4.795   2.612  15.865  1.0641  0.5355 -0.5732
 7241TIP3   OH243137   1.684   0.402  15.441 -0.2810 -0.2203 -0.1875
 7241TIP3    H143138   1.717   0.484  15.404  0.4088 -0.8969 -1.1018
 7241TIP3    H243139   1.616   0.374  15.380  0.2605 -0.8955 -0.4957
 7242TIP3   OH243140   5.139   2.721   6.244  0.6895  0.1296 -0.2857
 7242TIP3    H143141   5.170   2.641   6.286  0.9768 -0.5705 -1.7432
 7242TIP3    H243142   5.090   2.767   6.312  2.8657  0.1170  1.4190
 7243TIP3   OH243143   6.263   1.545  13.669 -0.1039  0.4417 -0.0869
 7243TIP3    H143144   6.323   1.506  13.732 -0.7794 -1.5192 -0.5958
 7243TIP3    H243145   6.272   1.640  13.683  1.7545  0.1424  1.0524
 7244TIP3   OH243146   6.630   3.206   0.563 -0.1205 -0.1721 -0.0998
 7244TIP3    H143147   6.719   3.176   0.582  0.6391  2.8585  1.7570
 7244TIP3    H243148   6.577   3.126   0.568  2.3204 -1.9333 -0.4080
 7245TIP3   OH243149   4.583   6.620  13.412  0.0691  0.1967  0.2954
 7245TIP3    H143150   4.613   6.575  13.490  0.1618 -0.0538  0.1179
 7245TIP3    H243151   4.636   6.583  13.341  0.3824  0.8362  0.1955
 7246TIP3   OH243152   1.355   2.740   3.795  0.0746 -0.2225 -0.5104
 7246TIP3    H143153   1.403   2.766   3.874  1.3770 -0.1333 -1.2923
 7246TIP3    H243154   1.415   2.759   3.723 -0.5055 -1.6253 -1.4259
 7247TIP3   OH243155   5.303   6.356  15.338 -0.2129 -0.2407 -0.4187
 7247TIP3    H143156   5.313   6.279  15.394  0.3773 -0.7031 -1.1527
 7247TIP3    H243157   5.390   6.372  15.303 -0.2792  0.8965 -0.1123
 7248TIP3   OH243158   1.301   4.449  14.689  0.1248 -0.2227 -0.0578
 7248TIP3    H143159   1.241   4.398  14.744  0.3737  1.8705  2.3335
 7248TIP3    H243160   1.382   4.454  14.740  0.8030  0.7518 -1.1766
 7249TIP3   OH243161   4.265   5.129  14.789  0.5362  0.3169 -0.4067
 7249TIP3    H143162   4.333   5.176  14.837  0.7666  1.0743 -1.4255
 7249TIP3    H243163   4.185   5.180  14.804  0.0752 -0.7959  1.1193
 7250TIP3   OH243164   3.843   0.349   1.326 -0.3613  0.3760  0.7842
 7250TIP3    H143165   3.768   0.408   1.335  0.1805  1.0918  0.7544
 7250TIP3    H243166   3.843   0.323   1.234 -1.9007 -1.4703  1.2510
 7251TIP3   OH243167   3.887   1.154   4.687 -0.4434  0.0997  0.3065
 7251TIP3    H143168   3.876   1.120   4.776 -0.0886  1.9097  1.1112
 7251TIP3    H243169   3.799   1.157   4.651 -0.9921  1.7187  1.6018
 7252TIP3   OH243170   4.266   0.200   4.726 -0.3931 -0.8514  0.4619
 7252TIP3    H143171   4.308   0.256   4.791  0.1723 -2.1912  1.2954
 7252TIP3    H243172   4.173   0.219   4.734 -0.2874 -0.6745  1.3542
 7253TIP3   OH243173   2.975   1.656  16.291 -0.2094 -0.2886  0.1858
 7253TIP3    H143174   2.919   1.731  16.310 -0.5554 -0.4091 -0.3304
 7253TIP3    H243175   2.942   1.586  16.346 -0.6043 -0.3731 -0.1533
 7254TIP3   OH243176   4.690   1.300  11.109 -0.1799 -0.0704 -0.4192
 7254TIP3    H143177   4.728   1.331  11.191 -0.4803  0.1214 -0.3514
 7254TIP3    H243178   4.706   1.371  11.047  0.0913 -0.2367 -0.5389
 7255TIP3   OH243179   1.297   2.187   0.814  0.4065  0.3539  0.1091
 7255TIP3    H143180   1.213   2.208   0.855  1.0266  1.6123  0.7998
 7255TIP3    H243181   1.294   2.093   0.800 -0.5064  0.1397  1.5397
 7256TIP3   OH243182   1.432   4.131  13.045  0.1906 -0.1487 -0.2676
 7256TIP3    H143183   1.495   4.178  13.098 -0.5431 -0.3105  0.7884
 7256TIP3    H243184   1.429   4.043  13.084 -0.2469 -0.3189 -0.6728
 7257TIP3   OH243185   6.016   4.647   0.234 -0.1331  0.1429  0.8602
 7257TIP3    H143186   5.972   4.718   0.281  1.3491  0.8243  1.2717
 7257TIP3    H243187   5.944   4.596   0.195 -1.3345  0.4478  2.5702
 7258TIP3   OH243188   6.468   0.253  16.244 -0.0958 -0.1152  0.3354
 7258TIP3    H143189   6.448   0.189  16.176 -2.4896  0.2697  0.5834
 7258TIP3    H243190   6.410   0.327  16.225  2.3233  1.8897  0.2732
 7259TIP3   OH243191   5.538   5.685   1.104 -0.3381 -0.0670  0.7325
 7259TIP3    H143192   5.619   5.635   1.102 -0.5831 -0.4442  0.2200
 7259TIP3    H243193   5.469   5.621   1.091 -0.6711  0.3630  0.3431
 7260TIP3   OH243194   4.566   1.810   2.733 -0.0827  0.2366 -0.9609
 7260TIP3    H143195   4.509   1.759   2.791  1.7448  0.3605  1.1007
 7260TIP3    H243196   4.559   1.900   2.767 -1.1344  0.8924 -2.7845
 7261TIP3   OH243197   1.504   3.462   5.039 -0.0808 -0.0954 -0.0886
 7261TIP3    H143198   1.515   3.502   5.125  2.2028  1.0690 -0.8593
 7261TIP3    H243199   1.490   3.369   5.058  2.4446 -0.2457  1.5300
 7262TIP3   OH243200   4.868   1.293  15.009 -0.1684  0.4989 -0.0493
 7262TIP3    H143201   4.812   1.314  14.935 -1.6592  0.9525  1.1386
 7262TIP3    H243202   4.842   1.204  15.033  2.8930 -1.1501 -2.2453
 7263TIP3   OH243203   5.652   2.118  17.055 -0.2937 -0.1036 -0.5938
 7263TIP3    H143204   5.700   2.105  16.973  1.8877 -1.1247  0.7348
 7263TIP3    H243205   5.716   2.160  17.113 -1.9094  0.9691  0.4977
 7264TIP3   OH243206   5.640   5.801  16.587 -0.0946 -0.1424  0.3624
 7264TIP3    H143207   5.666   5.885  16.624  0.6913 -0.2028 -0.0404
 7264TIP3    H243208   5.587   5.824  16.510  0.0216 -0.0136  0.3194
 7265TIP3   OH243209   0.550   5.855  12.899 -0.7405 -0.0406 -0.4593
 7265TIP3    H143210   0.586   5.935  12.938 -1.2722  1.5593 -3.0056
 7265TIP3    H243211   0.620   5.790  12.910  0.5971  1.3731 -0.2185
 7266TIP3   OH243212   2.532   1.855  10.523 -1.1028 -0.5620 -0.6084
 7266TIP3    H143213   2.497   1.901  10.447 -0.1739 -1.5178 -1.6450
 7266TIP3    H243214   2.596   1.794  10.487 -0.0310 -0.4575  1.0226
 7267TIP3   OH243215   3.076   4.204   4.754 -0.0831 -0.7740  0.0231
 7267TIP3    H143216   3.118   4.228   4.837 -1.5106 -1.6961  1.0562
 7267TIP3    H243217   2.990   4.246   4.758  0.2681  0.1813 -1.5744
 7268TIP3   OH243218   3.838   6.445  14.945  0.1536 -0.4107  0.6633
 7268TIP3    H143219   3.785   6.501  15.002 -0.2143  1.2323 -1.1746
 7268TIP3    H243220   3.912   6.419  14.999  0.1786  1.6387  1.7196
 7269TIP3   OH243221   4.052   4.929   5.438  0.1933 -0.1548  0.2081
 7269TIP3    H143222   4.137   4.885   5.434  0.2651  0.0655 -2.3033
 7269TIP3    H243223   3.994   4.866   5.481  1.2828 -0.8846  0.6453
 7270TIP3   OH243224   5.740   0.359   0.473 -0.4387 -0.5225 -0.8291
 7270TIP3    H143225   5.752   0.279   0.525  0.5119  0.2199  0.1371
 7270TIP3    H243226   5.801   0.349   0.400 -1.2123 -1.2120 -1.4062
 7271TIP3   OH243227   4.389   5.713  12.720 -0.0042 -0.5371  0.3052
 7271TIP3    H143228   4.393   5.784  12.784 -1.1471 -1.0462  0.9594
 7271TIP3    H243229   4.310   5.664  12.743  0.7213 -1.9823 -0.1835
 7272TIP3   OH243230   0.418   2.711  11.879 -0.3635  0.5210 -0.4248
 7272TIP3    H143231   0.387   2.755  11.800 -2.1581 -0.1773 -0.1452
 7272TIP3    H243232   0.437   2.783  11.940 -0.8732  1.0083 -0.8287
 7273TIP3   OH243233   4.650   2.605   1.831  0.4903  0.3025 -0.9865
 7273TIP3    H143234   4.591   2.630   1.903  3.6739  3.7988  0.7642
 7273TIP3    H243235   4.654   2.510   1.836 -1.6127  0.2113  1.6118
 7274TIP3   OH243236   4.572   4.125  17.017 -0.1095 -0.0019 -0.3424
 7274TIP3    H143237   4.496   4.066  17.014 -0.3582  0.3552 -1.5948
 7274TIP3    H243238   4.535   4.210  17.039  0.1599 -0.1563  0.7533
 7275TIP3   OH243239   2.072   1.855   1.664  0.3194 -0.9159  0.1046
 7275TIP3    H143240   2.138   1.886   1.726  1.8831 -1.9583 -0.9938
 7275TIP3    H243241   2.059   1.929   1.605 -0.6341 -0.1846  1.1663
 7276TIP3   OH243242   4.903   5.432   0.725  0.8225 -0.2520 -0.2473
 7276TIP3    H143243   4.817   5.406   0.756  1.4751 -0.4681  1.5339
 7276TIP3    H243244   4.934   5.358   0.672  0.9262 -1.3148  1.2282
 7277TIP3   OH243245   6.560   4.030   1.185 -0.3715 -0.2641 -0.1370
 7277TIP3    H143246   6.494   4.015   1.253 -0.9573  0.1345 -0.6095
 7277TIP3    H243247   6.566   3.946   1.138  0.3630 -0.6855  0.6678
 7278TIP3   OH243248   5.262   6.374  11.967  0.2349 -0.3585  0.6176
 7278TIP3    H143249   5.172   6.365  11.997 -0.5340 -1.3216 -1.7507
 7278TIP3    H243250   5.264   6.458  11.921  0.4327 -0.5318  0.3067
 7279TIP3   OH243251   1.924   3.611   3.916  0.1643 -0.6520 -0.1647
 7279TIP3    H143252   2.019   3.602   3.924  0.3807  0.3830 -1.3568
 7279TIP3    H243253   1.904   3.695   3.957 -0.1041 -0.4259 -0.7458
 7280TIP3   OH243254   4.743   6.693  11.858  0.1533  0.0008  0.4887
 7280TIP3    H143255   4.754   6.624  11.793 -1.9703 -0.6591  0.7419
 7280TIP3    H243256   4.750   6.649  11.942 -0.7096  0.1450  0.6548
 7281TIP3   OH243257   3.277   3.213  15.545 -0.8083  0.4378 -0.2731
 7281TIP3    H143258   3.208   3.277  15.527  0.6949  1.7542 -1.6431
 7281TIP3    H243259   3.313   3.190  15.459 -1.5881 -2.6972  0.0960
 7282TIP3   OH243260   3.389   3.829   5.289  0.1442  0.1657 -0.2016
 7282TIP3    H143261   3.397   3.762   5.357 -3.2555 -0.9644 -0.6842
 7282TIP3    H243262   3.425   3.789   5.210 -2.9237 -1.8284 -0.7852
 7283TIP3   OH243263   4.791   4.647  11.372 -0.2448 -0.2291  0.0121
 7283TIP3    H143264   4.871   4.617  11.415 -0.0712  1.3340  0.8614
 7283TIP3    H243265   4.810   4.737  11.346 -0.6183 -0.8417 -2.7256
 7284TIP3   OH243266   3.168   2.896  16.435  0.2169 -0.6711 -0.2272
 7284TIP3    H143267   3.219   2.817  16.415  0.8192 -0.5832  0.8659
 7284TIP3    H243268   3.202   2.962  16.374 -0.0450 -1.1563 -0.9063
 7285TIP3   OH243269   0.576   5.123   2.296 -0.2103 -0.5378 -1.0594
 7285TIP3    H143270   0.648   5.181   2.320  0.1250 -1.7520  1.2253
 7285TIP3    H243271   0.501   5.181   2.287  0.2458  0.3825  0.4996
 7286TIP3   OH243272   3.108   5.830  16.099  0.1860 -0.1480  0.5421
 7286TIP3    H143273   3.060   5.861  16.176 -1.9769 -2.2548  0.1659
 7286TIP3    H243274   3.105   5.903  16.037  1.1325  1.2227  2.0592
 7287TIP3   OH243275   6.690   3.580  12.894  0.3139 -0.0325 -0.2837
 7287TIP3    H143276   6.658   3.665  12.863  0.5116  0.8086  1.7123
 7287TIP3    H243277   6.689   3.586  12.989  0.9475 -2.0591 -0.0907
 7288TIP3   OH243278   2.276   3.909   1.627 -0.1167 -0.1963 -0.3721
 7288TIP3    H143279   2.235   3.989   1.595  2.8718  2.4240  1.8428
 7288TIP3    H243280   2.334   3.882   1.556 -0.2815  0.2569 -0.6851
 7289TIP3   OH243281   2.600   6.306  13.186  0.2700  0.4497  0.9800
 7289TIP3    H143282   2.596   6.213  13.161 -2.4459  1.2525 -2.4715
 7289TIP3    H243283   2.691   6.319  13.213  2.1185 -2.3263 -2.8207
 7290TIP3   OH243284   5.482   5.824   6.547  0.1881  0.0188  0.6521
 7290TIP3    H143285   5.564   5.818   6.497  0.3530  0.4071  0.8703
 7290TIP3    H243286   5.495   5.762   6.619 -0.9454 -2.2682 -0.9888
 7291TIP3   OH243287   0.048   2.246   2.344  0.6502 -0.1788  0.1297
 7291TIP3    H143288   0.004   2.163   2.326  0.4116  0.2091 -1.2087
 7291TIP3    H243289   0.131   2.221   2.385  0.1484 -1.0157  0.6485
 7292TIP3   OH243290   3.953   2.017  15.942  0.0459 -0.0425 -0.4522
 7292TIP3    H143291   3.929   1.973  16.024  0.6883 -0.0908 -0.2849
 7292TIP3    H243292   3.869   2.037  15.900 -0.4109  1.9858  1.2587
 7293TIP3   OH243293   2.643   5.674   3.893  0.6503  0.2237 -0.1099
 7293TIP3    H143294   2.677   5.638   3.975  0.5432  0.5106  0.0630
 7293TIP3    H243295   2.605   5.599   3.847 -2.8431  0.5893  1.8308
 7294TIP3   OH243296   3.733   3.556   2.195  0.3272  0.0742  0.0667
 7294TIP3    H143297   3.803   3.495   2.222  1.1457  0.6475 -0.7006
 7294TIP3    H243298   3.666   3.546   2.263  1.2971 -0.2425  1.0201
 7295TIP3   OH243299   3.818   1.411  13.994 -0.5099  0.4047 -0.1643
 7295TIP3    H143300   3.793   1.460  13.916  0.4623 -0.5396 -1.1077
 7295TIP3    H243301   3.790   1.321  13.975  0.0173  0.1054  0.4415
 7296TIP3   OH243302   1.350   4.355  15.678  0.9352 -0.7505 -0.8310
 7296TIP3    H143303   1.305   4.439  15.681  0.0442 -1.2150 -0.8971
 7296TIP3    H243304   1.309   4.308  15.605  1.3038 -1.3076 -0.6855
 7297TIP3   OH243305   3.068   2.042  12.831  0.0495 -0.4551 -0.5016
 7297TIP3    H143306   3.140   2.035  12.894 -1.0580  0.1880  0.9138
 7297TIP3    H243307   3.003   1.980  12.863  0.1346 -1.3738 -2.0357
 7298TIP3   OH243308   2.932   1.993   3.208 -0.0038 -0.6976  0.6804
 7298TIP3    H143309   2.995   1.934   3.168 -0.4138 -0.7667  0.1318
 7298TIP3    H243310   2.907   2.054   3.139 -0.0808 -0.2862  1.0603
 7299TIP3   OH243311   1.412   1.701   3.770  0.2412 -0.2457  0.2757
 7299TIP3    H143312   1.432   1.609   3.784  0.0071 -0.7474 -2.1221
 7299TIP3    H243313   1.483   1.749   3.812  0.9891 -1.5642  0.5621
 7300TIP3   OH243314   2.723   0.217   2.196  0.4980  0.1061  0.0893
 7300TIP3    H143315   2.701   0.188   2.107  1.4989  0.7943 -0.4005
 7300TIP3    H243316   2.669   0.294   2.210 -0.6828 -0.7782  0.6318
 7301TIP3   OH243317   1.183   2.756   2.488 -0.4676 -0.0969 -0.3016
 7301TIP3    H143318   1.213   2.836   2.445 -0.6232 -0.1176 -0.4500
 7301TIP3    H243319   1.262   2.705   2.503 -0.5073 -0.5181 -1.4306
 7302TIP3   OH243320   2.585   4.064  10.775 -0.2462 -0.2747 -0.7854
 7302TIP3    H143321   2.645   4.034  10.707  0.4652  1.0914 -0.8160
 7302TIP3    H243322   2.499   4.062  10.735  0.1784  0.6425 -1.8086
 7303TIP3   OH243323   1.825   0.142  12.138 -0.5385  0.5531  0.4702
 7303TIP3    H143324   1.810   0.109  12.226  1.6160 -0.4083  0.5364
 7303TIP3    H243325   1.747   0.114  12.089 -0.5348 -1.3447  1.4416
 7304TIP3   OH243326   1.992   1.817   0.821  0.0986 -0.2103 -0.8501
 7304TIP3    H143327   1.993   1.722   0.824 -0.1184 -0.1973  1.8231
 7304TIP3    H243328   1.925   1.838   0.755 -1.8745 -1.9568  0.4581
 7305TIP3   OH243329   2.997   5.521   3.160  0.0345  0.3112 -0.0685
 7305TIP3    H143330   2.949   5.500   3.079  0.7819 -0.9267 -0.2106
 7305TIP3    H243331   3.085   5.543   3.130  0.6865 -1.4229  0.4736
 7306TIP3   OH243332   5.653   4.473  17.044 -0.4253 -0.6288  0.1203
 7306TIP3    H143333   5.570   4.489  17.000 -1.7417 -0.7733  2.3681
 7306TIP3    H243334   5.631   4.475  17.138  2.5824  2.1554  0.9571
 7307TIP3   OH243335   4.222   0.032  13.054 -0.2656  0.0745  0.4202
 7307TIP3    H143336   4.191   0.039  12.963 -1.7552 -1.1702  0.7697
 7307TIP3    H243337   4.180  -0.049  13.086 -0.9857  1.2616  2.6648
 7308TIP3   OH243338   4.340   0.164   1.879 -0.8565  0.3031  0.2232
 7308TIP3    H143339   4.345   0.143   1.786 -0.8162  2.4485 -0.3151
 7308TIP3    H243340   4.260   0.121   1.909 -1.3430  0.2980 -1.0218
 7309TIP3   OH243341   0.335   6.009   1.220  0.0910  0.3372 -0.2328
 7309TIP3    H143342   0.319   6.062   1.142 -2.4161  1.1387  0.7280
 7309TIP3    H243343   0.348   6.073   1.290 -0.6254 -0.3228  0.5184
 7310TIP3   OH243344   0.221   2.998   4.288 -0.2162 -0.4394  0.0401
 7310TIP3    H143345   0.177   2.945   4.354  0.1922  0.8090  1.3879
 7310TIP3    H243346   0.152   3.055   4.253 -0.1677 -0.1576  0.3965
 7311TIP3   OH243347   0.187   5.183   5.034 -0.0776 -0.0233 -0.1624
 7311TIP3    H143348   0.194   5.126   5.110  2.4923  0.6872  0.2335
 7311TIP3    H243349   0.093   5.199   5.024 -0.7997 -3.1991  0.4867
 7312TIP3   OH243350   2.138   2.956   5.912  0.9465 -0.1063 -0.4208
 7312TIP3    H143351   2.228   2.929   5.896  0.9248 -0.2503 -0.3005
 7312TIP3    H243352   2.143   3.010   5.991  0.8031 -0.8424  0.1011
 7313TIP3   OH243353   5.006   3.334   3.680  1.0704 -0.0284  0.4952
 7313TIP3    H143354   5.032   3.366   3.766  1.1308 -1.3162  0.9709
 7313TIP3    H243355   5.037   3.244   3.677  0.5607 -0.1841 -0.6575
 7314TIP3   OH243356   2.805   1.356   3.365  0.1442 -0.3675  0.1835
 7314TIP3    H143357   2.875   1.292   3.356  1.1021  0.4395  1.5543
 7314TIP3    H243358   2.771   1.368   3.276  2.1269 -0.3597 -0.6095
 7315TIP3   OH243359   3.002   0.185   5.138 -0.0436 -0.0871 -0.1761
 7315TIP3    H143360   2.988   0.120   5.207  0.7674  1.4485  1.5157
 7315TIP3    H243361   2.952   0.151   5.064 -0.3300 -2.2008  0.8914
 7316TIP3   OH243362   0.334   0.106  15.798 -0.1959  0.3567  0.5138
 7316TIP3    H143363   0.250   0.114  15.754 -0.3039  0.0983  0.6690
 7316TIP3    H243364   0.325   0.155  15.879 -0.1420  0.4634  0.4563
 7317TIP3   OH243365   0.209   6.775   3.323 -0.4251  0.4329 -0.3798
 7317TIP3    H143366   0.218   6.704   3.387 -1.7703  0.3068 -0.3037
 7317TIP3    H243367   0.293   6.820   3.325 -0.2047  0.0062  0.9736
 7318TIP3   OH243368   2.416   4.738   2.291  0.1102  0.8720  0.2559
 7318TIP3    H143369   2.429   4.699   2.377  0.0740 -1.9976 -0.9490
 7318TIP3    H243370   2.465   4.682   2.231 -0.5182  2.3204 -1.7038
 7319TIP3   OH243371   4.447   6.438   5.432  0.2941  0.9589 -0.2873
 7319TIP3    H143372   4.388   6.374   5.471  2.7272 -0.8291  0.7130
 7319TIP3    H243373   4.434   6.518   5.483  0.7304 -0.2334  1.7765
 7320TIP3   OH243374   4.813   6.774  16.412  0.4331 -0.3475 -0.0110
 7320TIP3    H143375   4.739   6.795  16.355  0.4273 -3.0353 -1.1198
 7320TIP3    H243376   4.797   6.826  16.491 -2.2358 -0.2898 -0.4906
 7321TIP3   OH243377   4.920   0.440  16.767  1.0454  0.0936 -0.0382
 7321TIP3    H143378   5.005   0.397  16.757  0.9180 -0.3349  0.6720
 7321TIP3    H243379   4.860   0.388  16.713  1.3693  0.8491 -1.1650
 7322TIP3   OH243380   0.861   5.824  16.134 -0.1965  0.3135  0.1917
 7322TIP3    H143381   0.795   5.872  16.085 -0.8791 -0.9090 -0.1325
 7322TIP3    H243382   0.837   5.836  16.226  0.6219  1.9452  0.2265
 7323TIP3   OH243383   5.548   2.735   0.862 -0.4061  0.3982 -0.0678
 7323TIP3    H143384   5.492   2.668   0.823 -0.5059 -0.4293  1.4114
 7323TIP3    H243385   5.632   2.725   0.817 -0.5032 -0.5588 -0.0636
 7324TIP3   OH243386   4.090   5.582  10.498 -0.0027  0.1061 -0.0850
 7324TIP3    H143387   4.175   5.561  10.459  0.8538  0.8429  1.2962
 7324TIP3    H243388   4.103   5.667  10.541 -1.2002 -0.1289  0.8256
 7325TIP3   OH243389   2.990   5.052  14.007 -0.3210  0.2805 -0.6853
 7325TIP3    H143390   3.046   5.114  14.053 -1.5417  0.9190  0.0173
 7325TIP3    H243391   3.045   4.975  13.993  0.5092  0.6011  0.6206
 7326TIP3   OH243392   0.767   3.487   5.821  0.0608 -0.3996 -0.1759
 7326TIP3    H143393   0.717   3.547   5.877  0.4790 -1.2746  1.1744
 7326TIP3    H243394   0.708   3.414   5.806  0.0926 -0.3473 -0.5454
 7327TIP3   OH243395   4.430   5.732  15.592  0.5424  0.1800 -0.3148
 7327TIP3    H143396   4.485   5.672  15.541  0.0135 -1.2093  0.6945
 7327TIP3    H243397   4.340   5.706  15.572  0.3147 -0.7438  1.6493
 7328TIP3   OH243398   5.222   5.122   2.738  0.5341 -0.6508 -0.3503
 7328TIP3    H143399   5.213   5.162   2.652 -0.1782 -3.0982 -1.5061
 7328TIP3    H243400   5.277   5.183   2.788  3.1003 -0.3156 -3.3146
 7329TIP3   OH243401   1.278   2.044  14.125  0.2213  0.0654  0.1516
 7329TIP3    H143402   1.343   2.044  14.196 -0.3391  0.8543  0.6854
 7329TIP3    H243403   1.314   1.985  14.059  0.5532 -1.0532  1.2797
 7330TIP3   OH243404   0.572   6.455   4.855  0.3943  0.2213 -0.0874
 7330TIP3    H143405   0.605   6.367   4.872 -0.4793 -0.0315  0.3569
 7330TIP3    H243406   0.547   6.454   4.762 -1.0517 -0.5024  0.2800
 7331TIP3   OH243407   1.327   1.358   1.074  0.0058  0.4336 -0.1496
 7331TIP3    H143408   1.312   1.275   1.119  1.1158  0.2589 -0.0543
 7331TIP3    H243409   1.243   1.404   1.077 -0.4994 -0.4979  0.1846
 7332TIP3   OH243410   4.609   4.724   4.133  0.0617  0.0889  0.7453
 7332TIP3    H143411   4.624   4.660   4.202  1.3691 -1.0865 -0.5660
 7332TIP3    H243412   4.687   4.720   4.078 -1.6686 -0.4133 -1.8697
 7333TIP3   OH243413   2.967   4.407   5.318 -0.3971 -0.4827  0.2595
 7333TIP3    H143414   2.930   4.469   5.381 -0.7714  1.3761 -1.6812
 7333TIP3    H243415   2.935   4.322   5.347  0.8028  0.0366  3.5132
 7334TIP3   OH243416   6.531   3.228  12.189  0.2700 -0.0616  0.3298
 7334TIP3    H143417   6.525   3.301  12.127  0.5302 -0.3898 -0.0860
 7334TIP3    H243418   6.462   3.167  12.162 -1.6111  1.1176  2.1660
 7335TIP3   OH243419   0.645   4.757   5.397 -0.5052  0.1372  0.2538
 7335TIP3    H143420   0.698   4.759   5.318 -1.7265  1.3786 -0.5861
 7335TIP3    H243421   0.625   4.664   5.410  0.9169 -0.2280 -0.0284
 7336TIP3   OH243422   1.346   1.904   2.491  0.2282  0.2300  0.1521
 7336TIP3    H143423   1.362   1.814   2.462  1.1649  0.6171 -0.5969
 7336TIP3    H243424   1.319   1.950   2.411 -1.1904  0.4167  0.7067
 7337TIP3   OH243425   1.691   5.390  10.962  0.0995 -0.1560  0.0617
 7337TIP3    H143426   1.651   5.304  10.947  0.6947 -0.7723  1.7598
 7337TIP3    H243427   1.622   5.452  10.940 -0.4937 -1.0832 -0.7765
 7338TIP3   OH243428   1.018   0.974  12.951  0.0264 -0.4841 -0.4969
 7338TIP3    H143429   0.990   1.040  13.015 -0.7652  0.4846 -1.7957
 7338TIP3    H243430   0.946   0.969  12.889  0.9906 -1.0111 -1.6153
 7339TIP3   OH243431   4.625   1.268  17.038  0.0532 -0.2120 -0.5659
 7339TIP3    H143432   4.591   1.232  16.956  1.4059 -1.1612 -0.7459
 7339TIP3    H243433   4.657   1.355  17.014  1.4633 -0.9033 -1.3539
 7340TIP3   OH243434   5.491   0.782   2.258  0.0173  0.5703  0.5974
 7340TIP3    H143435   5.445   0.807   2.338  0.3758 -1.4254  1.4832
 7340TIP3    H243436   5.449   0.700   2.231  1.6402 -0.1837  0.2456
 7341TIP3   OH243437   1.999   2.308  15.227  0.2527  0.2138  0.2968
 7341TIP3    H143438   1.969   2.379  15.284 -0.4822  1.1614 -1.1862
 7341TIP3    H243439   1.982   2.228  15.277 -2.1339  0.8944  0.7088
 7342TIP3   OH243440   4.161   4.028   4.479 -0.0637 -0.8397 -0.0812
 7342TIP3    H143441   4.172   4.040   4.385  0.7374 -0.9069 -0.0024
 7342TIP3    H243442   4.119   4.109   4.509 -2.5253 -1.7509 -0.8262
 7343TIP3   OH243443   4.582   6.330   2.586 -0.1071  0.2308 -0.0250
 7343TIP3    H143444   4.494   6.359   2.560 -0.0323 -0.0335 -0.5709
 7343TIP3    H243445   4.636   6.346   2.510  0.1210 -0.5230 -0.0288
 7344TIP3   OH243446   0.224   5.322  13.732  0.5245  0.0225  0.1482
 7344TIP3    H143447   0.184   5.325  13.819  0.2965 -0.2985  0.0548
 7344TIP3    H243448   0.303   5.270  13.743  0.4457 -0.0971  0.1409
 7345TIP3   OH243449   1.010   2.992  16.145  0.2292  0.5108  0.5454
 7345TIP3    H143450   0.993   2.960  16.056 -1.9672  0.5954  0.8750
 7345TIP3    H243451   1.104   3.010  16.147  0.6684 -1.2401 -1.1726
 7346TIP3   OH243452   4.476   2.215   5.888  0.4769 -0.5856 -0.2057
 7346TIP3    H143453   4.381   2.230   5.894  0.3084 -0.9277 -1.6406
 7346TIP3    H243454   4.514   2.282   5.944 -0.5723  0.2484 -0.4498
 7347TIP3   OH243455   2.327   4.911  11.860 -0.0771  0.2351 -0.1399
 7347TIP3    H143456   2.281   4.881  11.939 -0.9757  1.9907  0.0453
 7347TIP3    H243457   2.410   4.945  11.892 -0.3417  0.7309  0.0227
 7348TIP3   OH243458   3.543   4.805  11.910  0.1695 -0.3717 -0.5136
 7348TIP3    H143459   3.514   4.750  11.983 -0.1770  1.7745  1.0747
 7348TIP3    H243460   3.636   4.784  11.900  0.5198  0.0823  1.3718
 7349TIP3   OH243461   3.768   5.892  15.390 -0.0430  0.5545  0.0290
 7349TIP3    H143462   3.691   5.879  15.445 -0.4746  1.4854 -0.3255
 7349TIP3    H243463   3.759   5.828  15.319  0.6856 -0.8805  1.1731
 7350TIP3   OH243464   5.982   4.429   4.071  0.3830  0.2416  0.1683
 7350TIP3    H143465   5.910   4.442   4.133  0.0928 -1.9785  0.4106
 7350TIP3    H243466   6.016   4.342   4.093  3.8238  1.5652  0.6764
 7351TIP3   OH243467   1.200   5.899   3.933 -0.2659 -0.1107  0.2287
 7351TIP3    H143468   1.142   5.899   4.009  0.9920 -0.0740  1.2176
 7351TIP3    H243469   1.143   5.874   3.860 -1.9969  1.8684  0.7738
 7352TIP3   OH243470   4.580   5.186  16.875 -0.0605  0.2555  0.0387
 7352TIP3    H143471   4.581   5.091  16.872 -0.5144  0.1088  2.6514
 7352TIP3    H243472   4.487   5.209  16.874 -0.0052  0.5584  1.1832
 7353TIP3   OH243473   0.694   2.864  12.503 -0.9525  0.1179 -0.1496
 7353TIP3    H143474   0.647   2.862  12.586  0.9453  0.4231  0.9758
 7353TIP3    H243475   0.699   2.958  12.481 -0.8670  0.0843 -0.2753
 7354TIP3   OH243476   2.050   2.337   4.600 -0.2491  0.1072  0.1369
 7354TIP3    H143477   2.066   2.417   4.650  2.1002 -0.0437 -0.2674
 7354TIP3    H243478   1.967   2.353   4.555 -1.0914  1.2775  2.0123
 7355TIP3   OH243479   0.684   1.814  15.755 -0.2950 -0.0897 -0.4425
 7355TIP3    H143480   0.725   1.727  15.753 -0.1973 -0.0569  0.1170
 7355TIP3    H243481   0.598   1.801  15.716 -0.6885 -0.6515  0.5934
 7356TIP3   OH243482   0.964   4.788  14.058 -0.9240  0.0334  0.0610
 7356TIP3    H143483   0.930   4.709  14.014 -2.2215  0.3522  0.4440
 7356TIP3    H243484   0.987   4.758  14.146 -4.7962  0.6470  1.5204
 7357TIP3   OH243485   0.537   3.156  13.872  0.1641 -0.5486 -0.2313
 7357TIP3    H143486   0.568   3.199  13.951  0.1867  1.4312 -1.2673
 7357TIP3    H243487   0.613   3.154  13.814 -0.1110 -1.0833 -0.5876
 7358TIP3   OH243488   3.633   6.519   0.279 -0.4381  0.0270  0.0329
 7358TIP3    H143489   3.632   6.605   0.323 -1.7195  0.2076 -0.3136
 7358TIP3    H243490   3.624   6.456   0.351  2.4327  0.0354  0.4961
 7359TIP3   OH243491   3.234   0.954  13.603  0.7800  0.0720  0.3174
 7359TIP3    H143492   3.213   0.906  13.683  1.1486 -0.8617 -0.1316
 7359TIP3    H243493   3.151   0.995  13.577 -0.3963 -2.9163 -1.0065
 7360TIP3   OH243494   6.176   4.737  11.263  0.4849  0.3210  0.3426
 7360TIP3    H143495   6.137   4.752  11.177  2.2344  0.4706 -0.4864
 7360TIP3    H243496   6.180   4.642  11.272 -0.5900  0.3038  0.7029
 7361TIP3   OH243497   2.297   2.790  11.886  0.9913  0.2506 -0.5855
 7361TIP3    H143498   2.349   2.726  11.837  0.1506  0.1261 -1.3267
 7361TIP3    H243499   2.265   2.851  11.820 -1.3044 -0.6922 -0.4275
 7362TIP3   OH243500   1.995   3.843   2.400  0.0608 -0.0883 -0.0356
 7362TIP3    H143501   2.061   3.777   2.378  2.2461  1.7217  0.6307
 7362TIP3    H243502   1.980   3.832   2.494  0.9779  0.7280  0.2351
 7363TIP3   OH243503   1.067   5.017   3.433 -0.0729 -0.2292  0.0686
 7363TIP3    H143504   1.070   4.962   3.511  0.4308  0.5552  0.6171
 7363TIP3    H243505   0.981   5.058   3.436  0.8522  1.8393  1.7006
 7364TIP3   OH243506   2.386   5.230  11.622 -0.1034 -0.3256  0.0133
 7364TIP3    H143507   2.453   5.239  11.690 -1.0100 -2.1798  1.2239
 7364TIP3    H243508   2.304   5.221  11.671 -0.4796 -4.7527 -1.0744
 7365TIP3   OH243509   0.549   4.908   3.166  0.2367 -0.1247 -0.2971
 7365TIP3    H143510   0.505   4.831   3.129 -0.1808  0.0005 -0.0668
 7365TIP3    H243511   0.504   4.982   3.126 -2.6393  0.1384  3.0110
 7366TIP3   OH243512   1.366   4.338  16.226  0.1447 -0.0835 -0.3129
 7366TIP3    H143513   1.372   4.336  16.130  0.1395 -0.7450 -0.3027
 7366TIP3    H243514   1.417   4.263  16.254  0.5717  0.4012  0.2314
 7367TIP3   OH243515   6.693   3.613   3.274 -0.3736 -0.2588  0.2337
 7367TIP3    H143516   6.647   3.634   3.355 -0.8728 -0.9186  0.1335
 7367TIP3    H243517   6.779   3.580   3.302 -0.8339 -1.2236  0.5390
 7368TIP3   OH243518   3.309   6.152   0.637 -0.1901  0.2221  0.1246
 7368TIP3    H143519   3.265   6.109   0.711  0.2440  2.4444  1.7870
 7368TIP3    H243520   3.268   6.115   0.559 -2.9700  0.0873  1.5505
 7369TIP3   OH243521   6.313   2.984  14.521 -0.1823  0.4472  0.4965
 7369TIP3    H143522   6.310   3.079  14.533  1.0227  0.4617  0.7631
 7369TIP3    H243523   6.312   2.949  14.610 -2.2708  0.1158  0.3993
 7370TIP3   OH243524   4.401   6.196   1.695  0.3175  0.5156 -0.3545
 7370TIP3    H143525   4.337   6.267   1.700 -1.0592 -0.7483  1.4666
 7370TIP3    H243526   4.477   6.235   1.652 -1.9122  1.8884 -3.5081
 7371TIP3   OH243527   3.577   6.513   0.631  0.1213  0.4224 -0.2724
 7371TIP3    H143528   3.551   6.488   0.720  1.7246  2.1782  0.7760
 7371TIP3    H243529   3.546   6.442   0.576  0.0610 -1.2744  1.8290
 7372TIP3   OH243530   2.847   6.802   2.305  0.4065 -0.0834  0.0269
 7372TIP3    H143531   2.821   6.891   2.283 -0.0874 -0.0007  0.8800
 7372TIP3    H243532   2.865   6.760   2.221  1.0519  0.9356 -0.3628
 7373TIP3   OH243533   6.477   2.124  16.753 -0.5904  0.9638 -0.1518
 7373TIP3    H143534   6.546   2.138  16.819 -1.1348 -0.1912  0.6962
 7373TIP3    H243535   6.511   2.164  16.673  2.3976 -2.0552 -0.5955
 7374TIP3   OH243536   0.482   1.414   1.539  0.7720  0.4733 -1.0057
 7374TIP3    H143537   0.575   1.431   1.524  0.9453 -1.0187 -1.8307
 7374TIP3    H243538   0.479   1.326   1.577 -0.3511  0.1719 -1.7338
 7375TIP3   OH243539   6.214   4.674  13.895  0.0081 -0.1584 -0.4430
 7375TIP3    H143540   6.137   4.718  13.859 -0.6328 -0.0085  1.0344
 7375TIP3    H243541   6.288   4.728  13.869 -0.5995  0.8062 -0.1956
 7376TIP3   OH243542   0.065   1.019   4.808 -0.6735  0.0355  0.8311
 7376TIP3    H143543   0.084   1.056   4.722 -1.0303 -3.6232 -1.0113
 7376TIP3    H243544   0.151   0.995   4.844 -0.6703 -0.9090  0.2222
 7377TIP3   OH243545   0.824   1.108   4.974  0.1156  0.7430  0.1842
 7377TIP3    H143546   0.834   1.202   4.962  1.9225  0.7059  1.1392
 7377TIP3    H243547   0.898   1.069   4.928  0.2879 -0.0965  1.1336
 7378TIP3   OH243548   6.738   2.500   1.670  1.0035  0.2952 -0.2576
 7378TIP3    H143549   6.805   2.540   1.726  1.2588  2.0313 -1.6671
 7378TIP3    H243550   6.688   2.575   1.636  0.0678 -0.7752 -1.3410
 7379TIP3   OH243551   2.739   5.373   0.842 -0.2080  0.5212 -0.5792
 7379TIP3    H143552   2.721   5.329   0.924 -0.2409 -0.0326 -0.8822
 7379TIP3    H243553   2.700   5.317   0.775 -1.1158  1.4871 -0.9040
 7380TIP3   OH243554   2.444   2.054  13.507 -0.3856 -0.6184 -0.4869
 7380TIP3    H143555   2.522   2.038  13.454  2.2807  1.3321  2.5019
 7380TIP3    H243556   2.477   2.070  13.595 -4.0393  1.7432  0.7077
 7381TIP3   OH243557   4.455   3.665   3.211  0.3071 -0.0874  0.2313
 7381TIP3    H143558   4.546   3.682   3.239 -0.5322 -0.1570  3.4208
 7381TIP3    H243559   4.439   3.731   3.144  2.8250 -0.3513 -0.7594
 7382TIP3   OH243560   1.587   6.254  11.059  0.5915 -0.1460 -0.3197
 7382TIP3    H143561   1.627   6.180  11.105  1.2975  1.0929  1.1557
 7382TIP3    H243562   1.605   6.237  10.966  0.3758 -2.0018 -0.0566
 7383TIP3   OH243563   1.332   0.067  11.659 -0.4239  0.0135 -0.0494
 7383TIP3    H143564   1.308   0.041  11.571 -0.4635 -2.3512  0.5821
 7383TIP3    H243565   1.256   0.045  11.713  1.2364 -3.2527  1.2575
 7384TIP3   OH243566   1.871   3.428  13.128 -0.2875  0.5289 -0.4596
 7384TIP3    H143567   1.844   3.424  13.219 -2.3082  1.9186 -0.9325
 7384TIP3    H243568   1.932   3.501  13.123  0.3603  0.0151 -0.1085
 7385TIP3   OH243569   5.164   4.978  15.840 -0.1076  0.4690  0.1343
 7385TIP3    H143570   5.155   5.044  15.771 -0.8536 -0.2123 -0.4294
 7385TIP3    H243571   5.076   4.943  15.852  0.2326 -0.2375  0.6234
 7386TIP3   OH243572   0.403   5.854   5.500  0.7139  0.0253 -0.5336
 7386TIP3    H143573   0.432   5.945   5.492 -0.4127  0.3723 -0.8994
 7386TIP3    H243574   0.482   5.802   5.486  1.6338  0.9600  0.9572
 7387TIP3   OH243575   0.882   4.715  12.178  0.1566  0.1463  0.5262
 7387TIP3    H143576   0.863   4.796  12.131 -0.3279  0.1935  0.7971
 7387TIP3    H243577   0.800   4.665  12.173 -0.2481  0.5892  2.2008
 7388TIP3   OH243578   1.899   1.758  15.671 -0.1024  0.1757 -0.1832
 7388TIP3    H143579   1.815   1.760  15.627 -0.8487 -0.7382  1.1434
 7388TIP3    H243580   1.918   1.665  15.683  0.5264  0.3963  0.5971
 7389TIP3   OH243581   5.224   4.102  12.328  0.8098  0.8267  0.1938
 7389TIP3    H143582   5.133   4.131  12.334  0.4276 -0.5028  1.3026
 7389TIP3    H243583   5.245   4.068  12.415  1.9324 -0.1207 -0.4072
 7390TIP3   OH243584   2.373   2.681   4.289 -0.8920 -0.0948 -0.4822
 7390TIP3    H143585   2.414   2.750   4.341 -1.5461 -0.0114 -0.0566
 7390TIP3    H243586   2.444   2.642   4.239 -0.0247 -0.9646  1.3477
 7391TIP3   OH243587   2.571   1.641   5.029  0.1367  0.2541 -0.5771
 7391TIP3    H143588   2.606   1.730   5.036 -0.7676  0.5027  1.7642
 7391TIP3    H243589   2.487   1.652   4.985 -0.3703  0.7023  0.4797
 7392TIP3   OH243590   2.834   0.164   6.027  0.9744 -0.2278 -0.2315
 7392TIP3    H143591   2.890   0.091   6.054  1.3164 -0.2561 -0.9719
 7392TIP3    H243592   2.891   0.241   6.029  1.1244 -0.2926 -1.1995
 7393TIP3   OH243593   6.417   4.886  14.734 -0.4648  0.1331  0.1246
 7393TIP3    H143594   6.346   4.891  14.798 -2.1542  2.0147 -1.7240
 7393TIP3    H243595   6.497   4.890  14.787 -1.7019 -1.3604  2.2431
 7394TIP3   OH243596   4.000   4.238   4.502  0.2459  0.0563  0.2497
 7394TIP3    H143597   3.918   4.229   4.550  0.3450  1.0488  0.6206
 7394TIP3    H243598   4.049   4.305   4.549  1.5637 -0.9738  0.4090
 7395TIP3   OH243599   3.944   4.632   1.009 -0.4850 -0.3927 -0.1376
 7395TIP3    H143600   3.951   4.541   1.036 -0.4372 -0.2722  0.2522
 7395TIP3    H243601   4.024   4.673   1.041 -0.7910 -0.0745  0.2208
 7396TIP3   OH243602   4.766   5.811   0.450 -0.6467 -0.4441 -0.2629
 7396TIP3    H143603   4.843   5.755   0.441  0.4889  1.2871 -2.5710
 7396TIP3    H243604   4.756   5.825   0.544  1.6603 -0.9856  0.1113
 7397TIP3   OH243605   5.111   0.215   1.557  0.5006 -0.2795 -0.0598
 7397TIP3    H143606   5.129   0.290   1.500 -1.6077  0.1962 -0.1967
 7397TIP3    H243607   5.042   0.166   1.511  0.6938 -1.4078  0.8068
 7398TIP3   OH243608   2.731   5.502  13.830 -0.3490  0.4776  0.0135
 7398TIP3    H143609   2.821   5.500  13.798 -1.1099 -1.1252 -2.3313
 7398TIP3    H243610   2.701   5.591  13.813  0.9511  1.2145  1.4228
 7399TIP3   OH243611   3.017   4.628  16.178  1.0358 -0.0914 -0.6072
 7399TIP3    H143612   2.992   4.706  16.228  1.3550 -0.0823 -0.4544
 7399TIP3    H243613   3.113   4.633  16.174  0.9695  0.3583 -1.9544
 7400TIP3   OH243614   2.076   6.326   4.984  0.2219  0.0440  0.4669
 7400TIP3    H143615   2.157   6.324   4.934  0.4040 -1.7676  0.7468
 7400TIP3    H243616   2.091   6.264   5.056 -1.0951  0.3150  1.0103
 7401TIP3   OH243617   3.697   5.135   0.551 -0.2609  0.3657 -0.8716
 7401TIP3    H143618   3.715   5.071   0.482  1.4526 -0.4844  0.3094
 7401TIP3    H243619   3.780   5.146   0.597 -1.3501  0.8516  1.1136
 7402TIP3   OH243620   1.581   0.433  16.898 -0.1385 -0.3581  0.0390
 7402TIP3    H143621   1.492   0.398  16.896 -0.7265  0.9311  1.3850
 7402TIP3    H243622   1.584   0.495  16.825 -0.0492 -1.0316 -0.5384
 7403TIP3   OH243623   2.653   3.936  13.078 -0.3145  0.1550  0.1742
 7403TIP3    H143624   2.614   3.849  13.080  1.5002 -0.7509 -1.0523
 7403TIP3    H243625   2.743   3.922  13.108  0.1255  1.5364 -0.4174
 7404TIP3   OH243626   1.662   2.962   4.120  0.0699  0.0629  0.0270
 7404TIP3    H143627   1.660   2.947   4.215 -0.1813 -0.7356 -0.0911
 7404TIP3    H243628   1.749   2.933   4.094 -0.2475 -0.7843 -0.1342
 7405TIP3   OH243629   1.032   0.302  14.528 -0.5436 -0.4435 -0.4237
 7405TIP3    H143630   0.976   0.235  14.488  1.4860 -2.3138 -0.3668
 7405TIP3    H243631   1.015   0.294  14.622 -0.4934 -0.7126 -0.4369
 7406TIP3   OH243632   2.011   2.723   4.564  0.0791  0.4609 -0.4724
 7406TIP3    H143633   2.013   2.811   4.601  1.1044  0.4247 -0.3996
 7406TIP3    H243634   2.019   2.665   4.640 -0.0759  0.3220 -0.5626
 7407TIP3   OH243635   2.750   6.223  12.448 -0.4559  0.2525 -0.4292
 7407TIP3    H143636   2.748   6.316  12.470 -1.4868  0.1769 -0.1509
 7407TIP3    H243637   2.772   6.221  12.355 -0.7577  0.7966 -0.5174
 7408TIP3   OH243638   5.055   5.794  13.331  0.6455  0.5992 -0.3028
 7408TIP3    H143639   5.148   5.812  13.318  0.6144 -0.0958 -1.7477
 7408TIP3    H243640   5.022   5.776  13.243 -0.2109 -2.1134  0.4584
 7409TIP3   OH243641   1.415   5.408   5.077 -0.2985  0.4284  0.1696
 7409TIP3    H143642   1.486   5.349   5.104  0.3202  1.6957  1.4355
 7409TIP3    H243643   1.439   5.436   4.989 -0.2079 -0.6126 -0.1485
 7410TIP3   OH243644   3.876   6.724   1.668 -0.1662  0.6130  0.2365
 7410TIP3    H143645   3.881   6.747   1.575  0.5691 -0.6725 -0.0795
 7410TIP3    H243646   3.788   6.687   1.678  0.6951 -1.9423 -0.6921
 7411TIP3   OH243647   1.084   1.086   2.297  0.3798 -0.2511 -0.2335
 7411TIP3    H143648   1.041   1.117   2.377 -1.2978  1.1864 -1.6129
 7411TIP3    H243649   1.157   1.147   2.285 -0.4888  0.7089 -0.7702
 7412TIP3   OH243650   2.658   3.143  16.759 -0.5380 -0.3907 -0.9864
 7412TIP3    H143651   2.724   3.200  16.801 -1.5018 -0.3872  0.5913
 7412TIP3    H243652   2.667   3.059  16.803 -1.9924 -0.2126 -0.2887
 7413TIP3   OH243653   5.506   2.722   1.510 -0.0343  0.3695  0.2713
 7413TIP3    H143654   5.602   2.719   1.515 -0.0198 -2.2518 -0.3518
 7413TIP3    H243655   5.486   2.815   1.498  2.4904  0.8906 -0.5655
 7414TIP3   OH243656   5.332   5.008  13.312  0.2250  0.2726  0.4781
 7414TIP3    H143657   5.358   5.062  13.387  1.1183  1.4060 -0.5933
 7414TIP3    H243658   5.239   5.026  13.300  0.1370  0.2877  1.1491
 7415TIP3   OH243659   0.783   5.923  15.120 -0.4805  0.1051 -0.2147
 7415TIP3    H143660   0.756   5.944  15.209 -0.3469  0.1554 -0.1868
 7415TIP3    H243661   0.792   6.008  15.077  0.3747  0.1282 -0.0116
 7416TIP3   OH243662   3.300   4.213  13.603  0.0834 -0.2256  0.1854
 7416TIP3    H143663   3.233   4.225  13.671 -0.2580  1.0756 -0.3684
 7416TIP3    H243664   3.296   4.119  13.582 -0.0275 -0.5878  1.7129
 7417TIP3   OH243665   6.008   2.955   0.003  0.3167  0.4031 -0.5686
 7417TIP3    H143666   6.067   2.916   0.068 -0.1336 -1.2169 -1.0803
 7417TIP3    H243667   6.038   2.919  -0.081  0.3697  1.8180 -1.1841
 7418TIP3   OH243668   3.374   5.452   4.589 -0.5484 -0.1942 -0.1125
 7418TIP3    H143669   3.424   5.410   4.520 -1.4845  1.7941 -2.1054
 7418TIP3    H243670   3.434   5.514   4.629  0.0185 -1.4052  0.9806
 7419TIP3   OH243671   0.592   4.946  15.042 -0.0382 -0.2676 -0.5549
 7419TIP3    H143672   0.613   5.033  15.074  1.7584 -1.4544  1.8141
 7419TIP3    H243673   0.610   4.888  15.116 -0.5050 -2.7274 -2.2472
 7420TIP3   OH243674   0.725   5.488  13.446  0.1973  0.3004  0.2002
 7420TIP3    H143675   0.685   5.517  13.365 -0.7965 -3.8676 -1.0013
 7420TIP3    H243676   0.653   5.485  13.509 -0.0425 -0.8677 -0.1087
 7421TIP3   OH243677   6.779   6.162  16.021 -0.4188  0.3425  0.0076
 7421TIP3    H143678   6.734   6.217  16.086  0.8750  0.9498  0.4355
 7421TIP3    H243679   6.744   6.074  16.035  1.1776  0.0411  2.9205
 7422TIP3   OH243680   2.293   4.132  12.850  0.5171  0.3297  0.0489
 7422TIP3    H143681   2.354   4.178  12.908  0.2316  0.8391 -0.0485
 7422TIP3    H243682   2.216   4.189  12.846  0.8457  0.6982 -1.4645
 7423TIP3   OH243683   0.476   3.459  14.732 -0.3408  0.3550 -0.0171
 7423TIP3    H143684   0.459   3.516  14.657 -1.4898  2.5396  1.7631
 7423TIP3    H243685   0.545   3.400  14.703  0.5693  2.3410 -2.1822
 7424TIP3   OH243686   0.586   2.039  14.953  0.6264  0.1110 -0.0354
 7424TIP3    H143687   0.644   2.010  15.022 -0.7059  0.0469  1.1119
 7424TIP3    H243688   0.633   2.020  14.872  1.4896 -1.4660  0.7898
 7425TIP3   OH243689   2.728   1.020   1.476 -0.2020 -0.2333 -0.0405
 7425TIP3    H143690   2.675   1.100   1.470 -0.8364 -0.6993 -1.0445
 7425TIP3    H243691   2.796   1.041   1.539 -1.0351  0.7108  0.5883
 7426TIP3   OH243692   5.639   4.365   5.846  1.0773  0.6388  0.0306
 7426TIP3    H143693   5.719   4.317   5.824  0.1946 -1.4410  1.0204
 7426TIP3    H243694   5.656   4.400   5.934  0.1907 -1.7716  1.2686
 7427TIP3   OH243695   1.563   2.747  16.374  0.3229 -0.2748 -0.1344
 7427TIP3    H143696   1.578   2.841  16.373 -1.5435  0.0724  0.4122
 7427TIP3    H243697   1.544   2.723  16.283  0.7611 -0.1163 -0.2671
 7428TIP3   OH243698   1.658   0.877   4.028  0.0831 -0.1362  0.1120
 7428TIP3    H143699   1.738   0.923   4.003 -0.7320  0.8332 -0.8150
 7428TIP3    H243700   1.632   0.917   4.110 -0.2505  0.5975 -0.3453
 7429TIP3   OH243701   1.843   1.421   5.529 -0.1256 -0.4841  0.3210
 7429TIP3    H143702   1.755   1.455   5.540 -0.5272 -0.6753 -1.7952
 7429TIP3    H243703   1.846   1.343   5.585 -1.9246 -1.4809 -0.8705
 7430TIP3   OH243704   0.152   2.041  13.108  0.3610 -0.1575  0.1648
 7430TIP3    H143705   0.166   2.111  13.045 -0.1078 -0.9064 -0.8059
 7430TIP3    H243706   0.235   1.995  13.113  0.4754  0.0611  0.3085
 7431TIP3   OH243707   4.132   1.468   2.973  0.3481  0.1869  0.5855
 7431TIP3    H143708   4.101   1.474   2.883 -2.2134  0.7143  1.4316
 7431TIP3    H243709   4.219   1.509   2.971  0.1832  0.5275 -1.5464
 7432TIP3   OH243710   2.950   0.055   5.388  0.1717  0.1173 -0.6044
 7432TIP3    H143711   2.882   0.022   5.445  0.1112 -0.0208 -0.7557
 7432TIP3    H243712   3.024   0.072   5.446 -0.4959  1.7463 -0.2004
 7433TIP3   OH243713   3.214   4.918   5.268 -0.1130  0.1367  0.7026
 7433TIP3    H143714   3.249   5.005   5.252 -0.4824  0.1274 -0.2371
 7433TIP3    H243715   3.290   4.860   5.262 -0.2355  0.1144 -1.3270
 7434TIP3   OH243716   5.877   5.508   2.353  0.0600 -0.1565  0.2266
 7434TIP3    H143717   5.831   5.562   2.418  0.6078 -0.5287  0.9342
 7434TIP3    H243718   5.807   5.463   2.305 -0.4018  1.0541 -0.2779
 7435TIP3   OH243719   2.535   5.420   3.141 -0.0367 -0.2240 -0.3333
 7435TIP3    H143720   2.505   5.330   3.129  1.9791 -1.2021  1.3091
 7435TIP3    H243721   2.609   5.429   3.080 -0.3321  0.4101 -0.6157
 7436TIP3   OH243722   2.133   1.713  12.542 -0.8143  0.4256 -0.4634
 7436TIP3    H143723   2.165   1.799  12.515  0.0084  0.2416 -0.1060
 7436TIP3    H243724   2.039   1.715  12.524 -0.7527  1.3008 -0.7032
 7437TIP3   OH243725   4.768   1.549  10.948 -0.3450  0.7962  0.1024
 7437TIP3    H143726   4.679   1.561  10.914  0.5290  0.9582 -2.3090
 7437TIP3    H243727   4.822   1.610  10.898  1.3128 -0.1205  0.6817
 7438TIP3   OH243728   1.081   5.642  13.852  0.2419 -0.2700 -0.4779
 7438TIP3    H143729   1.003   5.612  13.806  0.1593 -0.8670  0.0387
 7438TIP3    H243730   1.065   5.620  13.944  0.9465 -0.2428 -0.3434
 7439TIP3   OH243731   0.361   4.323   4.842  0.2880 -0.5244  0.2869
 7439TIP3    H143732   0.322   4.265   4.776 -0.1832 -0.1682  0.2412
 7439TIP3    H243733   0.295   4.392   4.854  1.3825  0.7071 -0.5937
 7440TIP3   OH243734   6.776   4.223  13.284 -0.0861  0.0512  0.0664
 7440TIP3    H143735   6.740   4.237  13.196 -0.2196 -1.7279 -0.1908
 7440TIP3    H243736   6.871   4.228  13.272 -0.0708 -0.9880 -0.3586
 7441TIP3   OH243737   4.265   2.128  12.280  0.0175  0.4513  0.4472
 7441TIP3    H143738   4.297   2.099  12.195 -0.2206 -1.1962  0.8920
 7441TIP3    H243739   4.252   2.223  12.270  1.9346  0.6266 -0.6912
 7442TIP3   OH243740   2.640   6.467   2.014 -0.4966  0.0444  0.3826
 7442TIP3    H143741   2.672   6.459   1.924 -0.5628 -1.5779  0.4694
 7442TIP3    H243742   2.718   6.484   2.066 -0.4653  1.0524  0.0166
 7443TIP3   OH243743   3.938   0.626  15.132 -0.1554 -0.0881 -0.1961
 7443TIP3    H143744   4.021   0.579  15.120 -0.0882  0.1087 -0.5253
 7443TIP3    H243745   3.879   0.587  15.067  0.2814  1.1571 -1.3728
 7444TIP3   OH243746   1.898   2.677   5.319 -0.5379 -0.4582  0.5262
 7444TIP3    H143747   1.924   2.698   5.230  0.5579 -0.6881  0.7748
 7444TIP3    H243748   1.913   2.758   5.368  0.0859 -0.6952  0.7410
 7445TIP3   OH243749   5.099   1.974  11.004  0.6202  0.6048  0.5047
 7445TIP3    H143750   5.013   1.995  11.041  0.6711 -0.4399  1.2742
 7445TIP3    H243751   5.080   1.943  10.916 -0.0949 -1.7910  1.4008
 7446TIP3   OH243752   2.196   3.287   0.284 -0.1480 -0.2363 -0.0267
 7446TIP3    H143753   2.253   3.358   0.253 -0.3793  0.0165  0.1289
 7446TIP3    H243754   2.257   3.217   0.307  0.3021  0.8217  2.3173
 7447TIP3   OH243755   0.824   5.114  15.918  0.2176  0.2820 -0.4355
 7447TIP3    H143756   0.813   5.160  16.001  0.7812 -0.4996  0.0918
 7447TIP3    H243757   0.737   5.114  15.879 -0.0834  0.5553  0.2174
 7448TIP3   OH243758   5.960   1.392  15.429  0.1934  0.3170  0.4673
 7448TIP3    H143759   6.033   1.334  15.404  0.6322  1.5050 -1.1229
 7448TIP3    H243760   5.965   1.396  15.525  1.9174 -0.0252  0.4243
 7449TIP3   OH243761   6.140   2.370  16.664 -0.3014 -0.0601  0.6458
 7449TIP3    H143762   6.152   2.298  16.726 -1.7438 -0.5857  0.3393
 7449TIP3    H243763   6.170   2.335  16.580  0.4303  0.2204  0.7806
 7450TIP3   OH243764   2.223   6.604  12.420  0.7601 -0.1623 -0.0917
 7450TIP3    H143765   2.156   6.604  12.351  2.7317 -0.1540 -2.1213
 7450TIP3    H243766   2.177   6.576  12.498 -1.4730 -0.7640 -1.5319
 7451TIP3   OH243767   5.317   3.230   3.023  0.0627  0.3897 -0.4274
 7451TIP3    H143768   5.321   3.171   3.099  0.9028  1.5254  0.4433
 7451TIP3    H243769   5.234   3.277   3.034  0.5246  1.0813  0.2227
 7452TIP3   OH243770   2.824   6.299   6.211 -0.5262 -0.3594 -0.4499
 7452TIP3    H143771   2.919   6.303   6.222 -0.5703 -1.9633  0.8554
 7452TIP3    H243772   2.811   6.299   6.116  0.5578  2.7647 -0.7152
 7453TIP3   OH243773   3.471   1.534   0.649  0.0819  0.2944  0.0965
 7453TIP3    H143774   3.526   1.533   0.727  1.1432  1.3739 -0.6074
 7453TIP3    H243775   3.427   1.448   0.649  2.0495 -0.7674  0.4763
 7454TIP3   OH243776   5.795   0.549  12.424 -0.0915  0.3831 -0.1358
 7454TIP3    H143777   5.773   0.514  12.338 -0.7293 -0.8751  0.5101
 7454TIP3    H243778   5.716   0.535  12.477  0.3077  1.0847  0.6836
 7455TIP3   OH243779   1.740   3.625  12.810  0.2815 -0.0574  0.0676
 7455TIP3    H143780   1.762   3.618  12.717 -1.5198  1.5676 -0.5315
 7455TIP3    H243781   1.657   3.579  12.819 -0.9083  2.0454  0.2890
 7456TIP3   OH243782   5.403   3.547   0.592  0.2838  0.3096  0.0746
 7456TIP3    H143783   5.451   3.570   0.513  0.0009  3.0406  0.5782
 7456TIP3    H243784   5.337   3.484   0.564  1.0236  0.2488 -1.5915
 7457TIP3   OH243785   1.157   2.488  15.039 -0.3516  0.4633 -0.0468
 7457TIP3    H143786   1.131   2.553  15.105 -2.2876 -0.3455  0.0455
 7457TIP3    H243787   1.164   2.406  15.087 -0.7948  0.0496 -0.6772
 7458TIP3   OH243788   4.708   3.042  15.348 -0.2944 -0.2473  0.1070
 7458TIP3    H143789   4.658   3.104  15.400  0.0746 -0.2917  0.5257
 7458TIP3    H243790   4.796   3.043  15.387 -0.4773 -1.5843  0.6193
 7459TIP3   OH243791   1.213   4.211   2.399 -0.1095  0.5390 -0.0566
 7459TIP3    H143792   1.126   4.251   2.395 -0.3078  0.0600 -0.6985
 7459TIP3    H243793   1.197   4.118   2.382  0.6853  0.6817 -1.8238
 7460TIP3   OH243794   3.025   3.612  15.453  0.4281  0.0290 -0.1424
 7460TIP3    H143795   2.938   3.618  15.412  1.7942 -1.2945 -3.6747
 7460TIP3    H243796   3.050   3.702  15.471 -0.8536  0.6014 -1.0508
 7461TIP3   OH243797   2.057   5.576  12.832  0.0093  0.4677  0.2931
 7461TIP3    H143798   2.121   5.640  12.801  1.2349 -0.6827  0.3790
 7461TIP3    H243799   2.057   5.586  12.927  0.3535  0.2054  0.3217
 7462TIP3   OH243800   4.309   1.017   6.499  0.2560  0.3611  0.5731
 7462TIP3    H143801   4.279   0.937   6.543 -0.1848  1.8398  3.1324
 7462TIP3    H243802   4.405   1.007   6.495  0.3403  0.3390  2.2322
 7463TIP3   OH243803   1.540   3.688  14.677  0.3692 -0.1337 -0.4819
 7463TIP3    H143804   1.633   3.709  14.689  0.3025 -0.1723  0.1768
 7463TIP3    H243805   1.525   3.614  14.737 -0.5369  1.1225  0.9076
 7464TIP3   OH243806   5.615   1.319  16.276  0.5524  0.5644  0.1854
 7464TIP3    H143807   5.707   1.343  16.259  1.3546 -2.0358  0.4154
 7464TIP3    H243808   5.619   1.228  16.305 -2.0494  0.6846  1.1878
 7465TIP3   OH243809   2.480   5.290   6.415 -0.3246  0.2843 -0.1409
 7465TIP3    H143810   2.539   5.335   6.355  2.2295 -0.8225  1.3679
 7465TIP3    H243811   2.504   5.323   6.501 -2.1941  0.0165  0.5227
 7466TIP3   OH243812   5.504   3.930  16.076 -0.2771  0.1361  0.5174
 7466TIP3    H143813   5.529   4.009  16.123  1.4996  0.0578 -0.2357
 7466TIP3    H243814   5.505   3.956  15.984 -1.7981 -0.2219  0.3691
 7467TIP3   OH243815   4.776   2.617  14.001 -0.1569  0.2904  0.2973
 7467TIP3    H143816   4.818   2.687  14.051 -0.0946 -0.7247  1.7523
 7467TIP3    H243817   4.751   2.552  14.068 -0.0996 -1.1275 -1.0043
 7468TIP3   OH243818   5.052   6.369   1.097 -0.6764  0.2268 -0.3751
 7468TIP3    H143819   5.139   6.391   1.130 -0.2202 -0.0664 -1.3429
 7468TIP3    H243820   5.057   6.388   1.003 -1.7511  0.4870 -0.3881
 7469TIP3   OH243821   2.549   3.759  15.849  0.7448  0.2125  0.2791
 7469TIP3    H143822   2.635   3.738  15.813  1.1284 -0.4224  1.4827
 7469TIP3    H243823   2.533   3.689  15.913 -0.7685  0.1981 -0.0908
 7470TIP3   OH243824   0.020   6.114   2.430  0.0671  0.4541  0.7248
 7470TIP3    H143825   0.113   6.133   2.442  0.2811  0.1471 -0.3791
 7470TIP3    H243826  -0.025   6.188   2.472  0.8389  1.7006 -0.5524
 7471TIP3   OH243827   5.877   3.669  14.278  0.3329  0.3923 -0.7073
 7471TIP3    H143828   5.827   3.701  14.203 -0.3929  0.0770 -0.3752
 7471TIP3    H243829   5.968   3.672  14.250  0.0248 -0.4258 -1.8791
 7472TIP3   OH243830   0.725   3.444  16.955 -0.4533  0.3693 -0.3370
 7472TIP3    H143831   0.760   3.492  17.030  2.3470 -2.3184  0.2769
 7472TIP3    H243832   0.645   3.402  16.988  0.1048  0.1713  0.8095
 7473TIP3   OH243833   6.115   1.288  14.764  0.1355  0.5373 -0.2060
 7473TIP3    H143834   6.024   1.299  14.791  0.1035  2.0265 -0.8093
 7473TIP3    H243835   6.116   1.206  14.715 -0.9395  0.6309 -0.4081
 7474TIP3   OH243836   6.513   3.967   5.359  0.0058 -0.1683 -0.3740
 7474TIP3    H143837   6.440   3.942   5.301  0.8943 -3.0148 -0.4333
 7474TIP3    H243838   6.474   3.970   5.446 -1.3199  4.0350 -0.8703
 7475TIP3   OH243839   4.704   5.707   6.320  0.1112 -0.3271  0.1841
 7475TIP3    H143840   4.678   5.700   6.412 -3.7609 -1.2228 -0.8262
 7475TIP3    H243841   4.764   5.634   6.306  1.1923  0.1271  2.0249
 7476TIP3   OH243842   0.218   3.703   5.115  0.0312 -0.4236  0.3586
 7476TIP3    H143843   0.280   3.690   5.187  0.6833 -0.1219 -0.1334
 7476TIP3    H243844   0.268   3.681   5.036 -0.0933  1.0271 -0.1533
 7477TIP3   OH243845   6.810   0.861  13.190 -0.3437  0.1917 -0.2134
 7477TIP3    H143846   6.875   0.930  13.207 -1.5937  1.3200  0.2505
 7477TIP3    H243847   6.828   0.795  13.257  1.0385 -0.0906 -0.8188
 7478TIP3   OH243848   2.613   1.789   1.859  0.3799 -0.1930  0.1354
 7478TIP3    H143849   2.705   1.783   1.884  0.0475 -0.0408  1.4788
 7478TIP3    H243850   2.585   1.698   1.848  1.0464 -0.2179 -1.8144
 7479TIP3   OH243851   2.765   5.043   3.555  0.0546 -0.0521  0.1908
 7479TIP3    H143852   2.696   5.015   3.494 -0.3603 -1.0345  1.0794
 7479TIP3    H243853   2.718   5.088   3.625  0.3469 -0.4074  0.6210
 7480TIP3   OH243854   2.555   3.400   4.618 -0.4795  0.9915  0.7505
 7480TIP3    H143855   2.647   3.423   4.606 -0.9489  3.0248  0.6208
 7480TIP3    H243856   2.521   3.465   4.680 -1.8570  0.3568  0.7192
 7481TIP3   OH243857   0.021   0.451  14.871  0.0658  0.4721 -0.3366
 7481TIP3    H143858   0.039   0.366  14.830 -1.3764 -0.3695  0.6956
 7481TIP3    H243859  -0.050   0.434  14.932  0.2145  2.3009  0.4119
 7482TIP3   OH243860   4.807   4.645  10.664 -0.4844  0.1955 -0.1226
 7482TIP3    H143861   4.778   4.565  10.621 -0.5271 -0.0082  0.2761
 7482TIP3    H243862   4.742   4.660  10.733 -0.5778  0.6763 -0.3091
 7483TIP3   OH243863   1.286   1.674  14.856 -0.2629 -0.4442 -0.0155
 7483TIP3    H143864   1.194   1.663  14.833 -0.8611 -0.4540  2.1685
 7483TIP3    H243865   1.327   1.706  14.776 -1.7135 -2.4732 -1.6968
 7484TIP3   OH243866   0.020   3.356  13.559  0.2530 -0.0274  0.4317
 7484TIP3    H143867  -0.004   3.440  13.520  1.2568 -0.3539 -0.9696
 7484TIP3    H243868   0.114   3.363  13.574 -0.0344 -0.0373  2.5868
 7485TIP3   OH243869   1.955   6.137   5.556  0.4818 -0.1002  0.1848
 7485TIP3    H143870   1.874   6.116   5.602  0.6071  0.2126  0.5516
 7485TIP3    H243871   1.956   6.077   5.482 -1.1142  1.2809 -1.0376
 7486TIP3   OH243872   2.657   4.553  13.065 -0.2204 -0.2552  0.0652
 7486TIP3    H143873   2.752   4.569  13.062 -0.2867  0.1253 -0.1404
 7486TIP3    H243874   2.647   4.459  13.049  0.2082 -0.5829  1.5733
 7487TIP3   OH243875   2.598   5.007  16.760  0.2430  0.0178 -0.7317
 7487TIP3    H143876   2.660   5.072  16.793  1.2981 -0.6422 -1.3433
 7487TIP3    H243877   2.572   4.957  16.838  0.7233  0.0983 -0.5174
 7488TIP3   OH243878   5.018   5.695   0.439 -0.3543 -0.0414 -0.0771
 7488TIP3    H143879   5.023   5.717   0.532 -1.5298 -0.1572  0.0331
 7488TIP3    H243880   5.104   5.716   0.404  0.1177 -0.0470  1.0502
 7489TIP3   OH243881   6.257   2.643   0.022 -0.9749 -0.7884 -0.6745
 7489TIP3    H143882   6.312   2.683  -0.046 -1.8124  1.5675 -0.0620
 7489TIP3    H243883   6.261   2.549   0.004  2.7173 -0.6914 -0.9965
 7490TIP3   OH243884   6.709   2.471   3.461  0.5849  0.2549 -0.2043
 7490TIP3    H143885   6.741   2.429   3.382 -0.2173  0.1811 -0.5047
 7490TIP3    H243886   6.664   2.550   3.430  0.3759  0.2929  0.1811
 7491TIP3   OH243887   3.862   5.096  16.096 -0.0891  0.0543 -0.8293
 7491TIP3    H143888   3.837   5.062  16.182  0.9525  0.5193 -0.3340
 7491TIP3    H243889   3.781   5.091  16.044 -0.8258  0.1080  0.2783
 7492TIP3   OH243890   0.718   4.694  14.618  0.3512  0.4548 -0.1552
 7492TIP3    H143891   0.631   4.656  14.617 -0.2704  1.7996 -1.4426
 7492TIP3    H243892   0.711   4.772  14.673  0.7339  0.5835 -0.2801
 7493TIP3   OH243893   6.039   0.726   1.523  0.3601  1.2783  0.2969
 7493TIP3    H143894   5.950   0.707   1.553 -0.0881 -0.2957 -1.7250
 7493TIP3    H243895   6.036   0.818   1.498 -0.1178  1.7649  2.0106
 7494TIP3   OH243896   1.707   2.310   4.663  0.5095  0.0310 -0.4509
 7494TIP3    H143897   1.744   2.347   4.583 -0.0857  1.0551 -0.2634
 7494TIP3    H243898   1.676   2.223   4.637  1.4922 -0.1646 -1.0105
 7495TIP3   OH243899   6.323   0.024  14.983 -0.1706 -0.4519 -0.3936
 7495TIP3    H143900   6.353   0.082  14.913 -2.2035  0.5600 -0.5083
 7495TIP3    H243901   6.347  -0.064  14.953  1.9905  0.1987 -0.7246
 7496TIP3   OH243902   5.625   1.511  12.395 -0.1627 -0.3779  0.3981
 7496TIP3    H143903   5.599   1.591  12.348  0.3612 -0.0219  0.6984
 7496TIP3    H243904   5.549   1.490  12.450  0.1675  0.6795  1.3130
 7497TIP3   OH243905   6.728   2.000   1.418  0.3112 -0.0788 -0.9157
 7497TIP3    H143906   6.683   2.000   1.333 -1.3582 -0.7071 -0.0824
 7497TIP3    H243907   6.669   2.049   1.475  0.8178 -0.7067  0.1627
 7498TIP3   OH243908   0.326   0.797  15.522 -0.0038  0.0264  0.2114
 7498TIP3    H143909   0.290   0.792  15.611 -0.3066  0.4850  0.1185
 7498TIP3    H243910   0.390   0.867  15.526  1.0242 -0.8969  0.4143
 7499TIP3   OH243911   2.704   4.110   4.315  0.5677  0.5576 -0.2055
 7499TIP3    H143912   2.628   4.064   4.350  0.2377  0.1136 -1.4430
 7499TIP3    H243913   2.687   4.203   4.332 -0.0532  0.4306 -0.1157
 7500TIP3   OH243914   0.176   1.547  14.667 -0.6251  0.0084  0.4550
 7500TIP3    H143915   0.231   1.494  14.724 -0.7390 -0.1135  0.4521
 7500TIP3    H243916   0.107   1.579  14.724 -1.1861 -0.7578  0.2228
 7501TIP3   OH243917   0.806   5.372  14.611 -0.9273 -0.2843  0.2390
 7501TIP3    H143918   0.821   5.349  14.519 -1.1288 -3.7142  0.9278
 7501TIP3    H243919   0.725   5.424  14.609 -0.9705 -0.3467 -1.5066
 7502TIP3   OH243920   0.506   6.478  15.731 -0.1330  0.0522  0.3259
 7502TIP3    H143921   0.494   6.531  15.810 -1.7808  1.6572 -0.8985
 7502TIP3    H243922   0.569   6.529  15.678 -1.6154  0.7878 -0.7994
 7503TIP3   OH243923   3.500   0.982  14.234 -0.1364 -0.6858  0.0578
 7503TIP3    H143924   3.485   1.006  14.325 -0.0624 -0.2335 -0.0480
 7503TIP3    H243925   3.429   1.025  14.186 -0.9759 -2.0189  0.0504
 7504TIP3   OH243926   2.539   2.172   3.584  0.2078  0.5120 -0.4974
 7504TIP3    H143927   2.628   2.195   3.557  0.2974  0.9231  0.0983
 7504TIP3    H243928   2.491   2.255   3.579 -0.2407  0.2076 -1.1963
 7505TIP3   OH243929   2.647   5.490  10.840  0.0646  0.1541 -0.4171
 7505TIP3    H143930   2.742   5.482  10.830  0.0195 -1.2345  0.0220
 7505TIP3    H243931   2.611   5.441  10.767 -0.3079  0.0703 -0.1803
 7506TIP3   OH243932   4.643   3.901  11.529 -0.1075 -0.0058 -0.0574
 7506TIP3    H143933   4.571   3.889  11.467 -0.3755  2.0806 -0.2379
 7506TIP3    H243934   4.722   3.888  11.477 -0.3315 -1.0356 -0.1590
 7507TIP3   OH243935   3.170   2.671   2.112 -0.3861 -0.7101  0.2502
 7507TIP3    H143936   3.177   2.667   2.207  0.4260 -1.3781  0.1794
 7507TIP3    H243937   3.259   2.654   2.081 -1.0815 -3.0717 -0.6781
 7508TIP3   OH243938   4.998   4.531  14.913  0.3945  0.2268 -0.0125
 7508TIP3    H143939   5.066   4.503  14.974  0.3723  0.0916 -0.0498
 7508TIP3    H243940   5.039   4.526  14.827 -0.8698 -4.0624 -0.5986
 7509TIP3   OH243941   4.936   4.003   3.837  0.6054 -0.0822 -0.0747
 7509TIP3    H143942   4.932   4.042   3.924  0.2369 -1.4736  0.5617
 7509TIP3    H243943   4.924   4.077   3.777  0.8779  0.8977  1.0460
 7510TIP3   OH243944   1.064   1.831  14.067  0.4272  0.0155  0.4101
 7510TIP3    H143945   1.105   1.798  14.147  1.9126  0.4164 -0.1465
 7510TIP3    H243946   1.112   1.911  14.047  0.4467 -0.3503 -1.1599
 7511TIP3   OH243947   5.569   5.982   5.822 -0.0764 -0.1827 -0.8525
 7511TIP3    H143948   5.629   6.018   5.888 -0.7070  0.0210 -0.3866
 7511TIP3    H243949   5.499   5.942   5.873 -0.2816 -0.5200 -1.3980
 7512TIP3   OH243950   1.533   4.424   5.720  0.0760  0.0667  0.3339
 7512TIP3    H143951   1.560   4.343   5.677 -0.3179  0.6385 -1.0808
 7512TIP3    H243952   1.565   4.494   5.662 -2.0377  0.8262 -0.0181
 7513TIP3   OH243953   5.243   5.828  10.319 -0.1857 -0.1705  0.1873
 7513TIP3    H143954   5.240   5.923  10.333  1.3651 -0.2083  0.9805
 7513TIP3    H243955   5.171   5.794  10.372 -0.2092  0.4903  0.5978
 7514TIP3   OH243956   2.877   6.377   2.907 -0.0603 -0.4042 -0.3971
 7514TIP3    H143957   2.893   6.428   2.828  2.6472 -0.2435  0.1709
 7514TIP3    H243958   2.844   6.293   2.876  0.3137 -0.0947 -1.6584
 7515TIP3   OH243959   1.221   1.363   5.728 -0.4506  0.0597  0.1255
 7515TIP3    H143960   1.189   1.273   5.729  1.0571 -0.5151  1.7193
 7515TIP3    H243961   1.203   1.394   5.639 -1.0988 -1.7668 -0.4265
 7516TIP3   OH243962   3.699   1.007  12.440 -0.2031 -0.0431 -0.2203
 7516TIP3    H143963   3.750   0.963  12.372 -0.0587 -2.2307  1.2110
 7516TIP3    H243964   3.637   0.940  12.471 -2.5399  1.8879 -0.4285
 7517TIP3   OH243965   6.628   4.870   6.126  0.3817  0.6845  0.2750
 7517TIP3    H143966   6.615   4.776   6.120  3.5326 -0.0378  2.3595
 7517TIP3    H243967   6.548   4.904   6.166 -0.0567 -1.4024  1.2685
 7518TIP3   OH243968   3.227   4.855  15.284 -0.5184  0.2286 -0.4396
 7518TIP3    H143969   3.273   4.774  15.306  0.7857  1.1333  0.3464
 7518TIP3    H243970   3.197   4.843  15.194 -0.3573 -1.1185 -0.3256
 7519TIP3   OH243971   2.644   6.630   4.585  0.0533  0.4127 -0.6561
 7519TIP3    H143972   2.562   6.581   4.583 -0.8421  1.8577 -0.4339
 7519TIP3    H243973   2.633   6.692   4.657  0.9005  1.3739 -1.3404
 7520TIP3   OH243974   1.538   4.614   5.096 -0.2337  0.2327 -0.1956
 7520TIP3    H143975   1.552   4.524   5.064  0.8365  0.6283 -0.9036
 7520TIP3    H243976   1.443   4.627   5.089 -0.1918 -0.1713 -1.9863
 7521TIP3   OH243977   1.180   4.434  15.326 -1.0534  0.2430  0.0752
 7521TIP3    H143978   1.164   4.359  15.384  0.8901 -0.2433  0.0606
 7521TIP3    H243979   1.187   4.509  15.386 -2.1510  0.2844  0.1662
 7522TIP3   OH243980   5.114   3.397  17.035 -0.2096  0.5681 -0.7132
 7522TIP3    H143981   5.185   3.440  17.081 -1.2599  2.4145 -0.7260
 7522TIP3    H243982   5.101   3.315  17.082  1.5852  0.4034 -0.4393
 7523TIP3   OH243983   2.959   6.497  14.924 -0.0726  0.3276 -0.5986
 7523TIP3    H143984   2.891   6.560  14.901 -0.5710 -0.7084 -2.1705
 7523TIP3    H243985   2.978   6.451  14.841 -0.3505 -2.1241  0.6017
 7524TIP3   OH243986   3.683   2.415  10.973 -0.4630  0.4781 -0.1280
 7524TIP3    H143987   3.612   2.420  11.038  0.2381 -1.2439  0.8423
 7524TIP3    H243988   3.761   2.400  11.026  0.0230 -1.7324 -1.3827
 7525TIP3   OH243989   5.484   5.345   5.123  0.0280  0.4608  0.0463
 7525TIP3    H143990   5.421   5.401   5.169 -3.3505 -2.2029 -0.9016
 7525TIP3    H243991   5.431   5.274   5.087  3.4385 -1.1816 -2.2805
 7526TIP3   OH243992   3.932   0.094  15.450  0.4506  0.3365  0.1784
 7526TIP3    H143993   3.977   0.120  15.370  0.1736  0.3968  0.0449
 7526TIP3    H243994   4.002   0.057  15.505  0.3292 -1.4650 -0.8197
 7527TIP3   OH243995   0.373   1.155   5.235 -0.2864 -0.5916 -0.1813
 7527TIP3    H143996   0.441   1.160   5.167 -0.9839  0.5186 -0.8214
 7527TIP3    H243997   0.336   1.243   5.238 -2.7070 -1.5153 -0.9168
 7528TIP3   OH243998   5.039   0.388  12.626  0.2222  0.8263  0.1836
 7528TIP3    H143999   5.091   0.394  12.546 -0.3128 -1.7670 -0.4529
 7528TIP3    H244000   4.964   0.445  12.611 -0.7821 -0.9624 -1.9559
 7529TIP3   OH244001   4.340   6.808  14.509  0.7772  0.1599  0.1498
 7529TIP3    H144002   4.432   6.790  14.490  0.2718 -2.0257 -0.4935
 7529TIP3    H244003   4.300   6.721  14.519 -1.0807  1.0685  1.1318
 7530TIP3   OH244004   5.333   3.164   1.033  0.3619 -0.6891 -0.1910
 7530TIP3    H144005   5.243   3.132   1.034  0.7362 -1.7530  0.5359
 7530TIP3    H244006   5.333   3.233   0.966 -0.4886 -2.1124 -1.7185
 7531TIP3   OH244007   3.744   3.557  12.506 -0.2458 -0.2059 -0.2981
 7531TIP3    H144008   3.792   3.615  12.566  1.0118  0.6651 -2.0434
 7531TIP3    H244009   3.686   3.616  12.458  0.4461 -0.4841 -1.5241
 7532TIP3   OH244010   3.866   2.431   0.443 -0.2821 -0.2205 -0.3305
 7532TIP3    H144011   3.849   2.392   0.357  0.4968 -1.2107 -0.0635
 7532TIP3    H244012   3.941   2.381   0.477 -0.4547  0.2852  0.8357
 7533TIP3   OH244013   4.108   2.793  15.397 -0.3908 -0.1462  0.0683
 7533TIP3    H144014   4.067   2.822  15.479  2.6601  0.2788  1.6138
 7533TIP3    H244015   4.166   2.865  15.373 -0.4884 -0.6872 -1.9865
 7534TIP3   OH244016   0.553   0.113  13.632  0.0603  0.1499  0.0066
 7534TIP3    H144017   0.561   0.192  13.686  0.0120  0.5496 -0.5695
 7534TIP3    H244018   0.502   0.052  13.686 -0.4498  0.7401  0.1958
 7535TIP3   OH244019   2.976   2.891  16.109  0.3368  0.5116  0.1528
 7535TIP3    H144020   3.064   2.853  16.116  0.1740 -0.1358 -0.9925
 7535TIP3    H244021   2.919   2.815  16.093 -0.2717  1.0482 -0.2471
 7536TIP3   OH244022   1.424   3.384   0.755  0.3112 -0.7953  0.2793
 7536TIP3    H144023   1.367   3.366   0.680  1.1463  1.9228 -1.1665
 7536TIP3    H244024   1.511   3.360   0.726  0.7390  0.8782  0.0498
 7537TIP3   OH244025   1.428   3.402   0.408  0.1354  0.5494 -0.4648
 7537TIP3    H144026   1.393   3.329   0.460  0.4016  0.2110 -0.7558
 7537TIP3    H244027   1.432   3.368   0.319  1.2809  0.5519 -0.4276
 7538TIP3   OH244028   3.738   2.655  11.294  0.0363 -0.1277 -0.4936
 7538TIP3    H144029   3.783   2.592  11.351  0.0990  1.8931  1.8942
 7538TIP3    H244030   3.808   2.699  11.247  0.1346 -0.5668 -0.7605
 7539TIP3   OH244031   3.473   6.212  13.349  0.4048  0.5301  0.3900
 7539TIP3    H144032   3.432   6.224  13.263 -1.3049  1.3856  1.2807
 7539TIP3    H244033   3.503   6.121  13.349 -0.1815  0.3191 -0.8523
 7540TIP3   OH244034   0.886   5.521   0.545 -0.0697  0.5129 -0.4933
 7540TIP3    H144035   0.872   5.594   0.486  0.0760  0.4269 -0.6313
 7540TIP3    H244036   0.911   5.448   0.489  0.3624  0.5096 -0.2960
 7541TIP3   OH244037   2.444   6.521  16.335  0.5058  0.6988 -0.4365
 7541TIP3    H144038   2.427   6.519  16.429  2.1572 -0.0602 -0.1340
 7541TIP3    H244039   2.521   6.467  16.322 -0.1553  0.1115 -2.3552
 7542TIP3   OH244040   4.661   2.515  11.351 -0.0944 -0.4669  0.2870
 7542TIP3    H144041   4.616   2.547  11.429  0.3947 -1.6761  1.1020
 7542TIP3    H244042   4.754   2.516  11.374  0.1009 -0.3610 -0.4716
 7543TIP3   OH244043   0.125   5.594   4.391 -0.1402 -0.0453 -0.4867
 7543TIP3    H144044   0.192   5.534   4.359 -0.5400 -0.3561 -0.7565
 7543TIP3    H244045   0.080   5.624   4.312 -2.9406 -2.9271 -0.1765
 7544TIP3   OH244046   1.301   1.903  16.543  0.1590  0.5666 -0.0387
 7544TIP3    H144047   1.373   1.952  16.504 -0.2092  1.0478 -0.1073
 7544TIP3    H244048   1.225   1.960  16.537  0.3349  1.1888  2.4967
 7545TIP3   OH244049   0.697   1.104  11.033 -0.6596  0.1733 -0.6147
 7545TIP3    H144050   0.753   1.140  10.964 -0.3998 -0.0724 -0.5368
 7545TIP3    H244051   0.694   1.174  11.099  0.2873 -0.1345 -0.2173
 7546TIP3   OH244052   1.604   2.449  11.905 -0.9041 -0.0531 -0.3483
 7546TIP3    H144053   1.672   2.417  11.845 -0.9316 -0.5792 -0.1040
 7546TIP3    H244054   1.622   2.403  11.987 -0.0738  1.6201  0.4520
 7547TIP3   OH244055   4.899   4.532   0.617  0.2768  0.2347 -0.1538
 7547TIP3    H144056   4.966   4.476   0.576  0.0137  0.7565 -1.3250
 7547TIP3    H244057   4.932   4.621   0.605  0.3442  0.3883  1.0690
 7548TIP3   OH244058   3.392   3.852  11.747 -0.2745  0.0737  0.0456
 7548TIP3    H144059   3.433   3.906  11.680 -1.4049 -0.7762 -1.4131
 7548TIP3    H244060   3.336   3.912  11.796 -0.8202  0.4101 -0.9627
 7549TIP3   OH244061   3.244   1.148   1.688 -0.1759  0.1186 -0.1000
 7549TIP3    H144062   3.268   1.226   1.638 -0.1010 -0.0654 -0.3534
 7549TIP3    H244063   3.217   1.084   1.622  0.4514 -0.3117  0.0490
 7550TIP3   OH244064   2.138   6.567   1.252 -0.4967  0.0404  0.0687
 7550TIP3    H144065   2.155   6.481   1.214  1.0462  0.1057  0.5594
 7550TIP3    H244066   2.219   6.590   1.297 -0.5601  2.1323 -0.7678
 7551TIP3   OH244067   1.748   5.582   2.189 -0.0528 -0.0071  0.3128
 7551TIP3    H144068   1.691   5.627   2.252  0.6606  1.8144 -0.2528
 7551TIP3    H244069   1.771   5.650   2.126  3.0463 -0.5286  0.7270
 7552TIP3   OH244070   1.619   4.994  14.497  0.0259  0.4880  0.2727
 7552TIP3    H144071   1.654   5.007  14.409  0.1856  1.7484  0.4976
 7552TIP3    H244072   1.526   4.977  14.484 -0.1438  1.6265 -0.1070
 7553TIP3   OH244073   3.805   1.446  16.743 -0.7332  0.1691  0.5359
 7553TIP3    H144074   3.864   1.476  16.813 -0.2586  0.2784  0.0919
 7553TIP3    H244075   3.754   1.524  16.721  1.9933  1.4091 -2.1467
 7554TIP3   OH244076   5.844   3.039   4.306 -0.3358 -0.2952 -0.5053
 7554TIP3    H144077   5.854   3.093   4.227 -0.0329  0.7352  0.2130
 7554TIP3    H244078   5.768   3.077   4.351  1.1202  0.8999  1.0445
 7555TIP3   OH244079   4.253   3.711   5.780 -0.2993 -0.5226 -0.0857
 7555TIP3    H144080   4.188   3.774   5.811 -0.6187 -1.0303  0.3052
 7555TIP3    H244081   4.285   3.748   5.698 -1.1991 -0.3340 -0.3644
 7556TIP3   OH244082   4.652   2.624  14.350 -0.1451 -0.6311  0.4220
 7556TIP3    H144083   4.715   2.678  14.397 -0.3931 -2.6329  3.2849
 7556TIP3    H244084   4.608   2.685  14.291 -0.1039  2.2436  3.0879
 7557TIP3   OH244085   5.964   5.136   2.312  0.0804  0.3374 -0.1117
 7557TIP3    H144086   5.929   5.161   2.226 -1.0422  1.9721  0.7786
 7557TIP3    H244087   6.058   5.150   2.304  0.5287 -2.7517 -2.0948
 7558TIP3   OH244088   3.968   6.005  11.708  0.8140  0.9601  0.7583
 7558TIP3    H144089   3.979   5.999  11.803  0.1064 -0.8959  0.7733
 7558TIP3    H244090   4.044   5.959  11.672 -1.1803 -2.7052  0.6421
 7559TIP3   OH244091   6.125   1.647   2.336 -0.1981 -0.0655 -0.3377
 7559TIP3    H144092   6.174   1.603   2.406 -1.5144 -0.4553  0.3761
 7559TIP3    H244093   6.170   1.730   2.323  0.3398 -0.1855  0.6634
 7560TIP3   OH244094   6.458   4.999   5.444 -0.2161 -0.4167  0.3846
 7560TIP3    H144095   6.460   4.903   5.444  2.1962 -0.4473  1.1185
 7560TIP3    H244096   6.400   5.021   5.517 -0.4300 -1.3259  0.5109
 7561TIP3   OH244097   4.708   1.806   3.240  0.5037 -0.5203  0.3531
 7561TIP3    H144098   4.728   1.865   3.167 -0.3525 -1.2424 -0.4916
 7561TIP3    H244099   4.651   1.740   3.202  1.1192 -1.6718  1.3824
 7562TIP3   OH244100   3.175   2.013   0.449 -0.6744  0.1022  0.3962
 7562TIP3    H144101   3.226   1.961   0.386 -2.0881 -2.6101  1.3615
 7562TIP3    H244102   3.142   2.087   0.397  0.1154 -0.7685 -1.4465
 7563TIP3   OH244103   6.099   5.098  12.142 -0.0664  0.0125  0.3053
 7563TIP3    H144104   6.173   5.039  12.160  0.7820  1.0492  0.2957
 7563TIP3    H244105   6.138   5.185  12.137 -1.3341  0.6207  0.5552
 7564TIP3   OH244106   3.371   0.696  11.272  0.3990  0.5025  0.0127
 7564TIP3    H144107   3.462   0.724  11.282  0.6683 -0.5747  0.7207
 7564TIP3    H244108   3.329   0.720  11.355  0.6085 -1.0285  0.5883
 7565TIP3   OH244109   4.955   0.916  10.930  0.0482 -0.1094 -0.6727
 7565TIP3    H144110   4.920   0.988  10.878 -0.5447 -1.0483 -1.6029
 7565TIP3    H244111   5.048   0.914  10.907 -0.3207 -0.9089 -2.2207
 7566TIP3   OH244112   2.296   0.651   0.261  0.5694 -0.8383 -0.0368
 7566TIP3    H144113   2.213   0.641   0.307  1.0013  1.0692  1.2495
 7566TIP3    H244114   2.293   0.739   0.224  2.4374 -0.3081  0.9582
 7567TIP3   OH244115   5.091   3.342   1.827 -0.5756  0.1299  0.2794
 7567TIP3    H144116   5.009   3.342   1.877  0.3196 -2.1038  1.9090
 7567TIP3    H244117   5.158   3.366   1.891  0.2101  0.7946 -0.7620
 7568TIP3   OH244118   6.174   1.217   0.219 -0.4164  0.2540 -0.3959
 7568TIP3    H144119   6.137   1.173   0.296  1.5927 -1.0497 -0.0886
 7568TIP3    H244120   6.104   1.213   0.154 -1.5665 -0.1395  0.8098
 7569TIP3   OH244121   0.192   0.327   3.485 -0.0569 -0.1312 -0.4611
 7569TIP3    H144122   0.129   0.258   3.504 -1.6578  1.5291  0.5912
 7569TIP3    H244123   0.227   0.305   3.398  0.8469 -3.1689  0.5228
 7570TIP3   OH244124   4.047   1.095  12.174  0.3048  0.4486  0.1910
 7570TIP3    H144125   4.127   1.043  12.180  1.2404  1.7190 -0.6623
 7570TIP3    H244126   4.056   1.163  12.241  0.1426  0.8523 -0.1881
 7571TIP3   OH244127   1.646   1.750  13.600 -0.3509  0.4560  0.0258
 7571TIP3    H144128   1.716   1.685  13.594 -0.3347  0.5078 -0.3857
 7571TIP3    H244129   1.678   1.814  13.663 -0.1354  0.3448  0.0305
 7572TIP3   OH244130   4.537   5.294  16.419 -0.5008  0.2588 -0.5489
 7572TIP3    H144131   4.565   5.376  16.461 -0.4791 -0.5812  1.1243
 7572TIP3    H244132   4.517   5.235  16.491 -0.6188 -1.2011 -1.7281
 7573TIP3   OH244133   0.517   0.021   0.515 -0.5646 -0.8642  0.0529
 7573TIP3    H144134   0.523  -0.045   0.583  2.2132  0.4098  1.1743
 7573TIP3    H244135   0.600   0.069   0.520 -2.5727  3.0221 -0.3651
 7574TIP3   OH244136   4.421   4.818  11.857  0.2497  0.1178  0.4287
 7574TIP3    H144137   4.450   4.738  11.814  0.2559 -0.4738  1.5100
 7574TIP3    H244138   4.334   4.835  11.822 -0.1541 -0.9116  0.9084
 7575TIP3   OH244139   2.233   3.115   5.034  0.2021 -0.0631 -0.0426
 7575TIP3    H144140   2.211   3.082   4.947 -2.6368  1.6663 -0.1173
 7575TIP3    H244141   2.177   3.065   5.093  1.7523 -0.8749  0.8141
 7576TIP3   OH244142   5.846   4.703  16.393  0.1523 -0.2119  0.2805
 7576TIP3    H144143   5.937   4.733  16.383  0.0631 -0.2712 -0.7735
 7576TIP3    H244144   5.836   4.690  16.487  1.7779 -1.8799  0.2694
 7577TIP3   OH244145   1.346   0.668  13.274 -0.1389 -0.0008 -0.2762
 7577TIP3    H144146   1.334   0.598  13.339 -0.2050 -0.8327 -1.1691
 7577TIP3    H244147   1.257   0.691  13.246 -0.0559 -0.7794 -1.2396
 7578TIP3   OH244148   0.470   2.187   5.093  0.0060 -0.2861 -0.3643
 7578TIP3    H144149   0.482   2.256   5.157 -0.7993 -0.0795 -0.4241
 7578TIP3    H244150   0.388   2.209   5.048  0.0112 -0.9879 -0.7435
 7579TIP3   OH244151   6.534   3.388   4.675 -0.0346  0.2967 -0.5384
 7579TIP3    H144152   6.464   3.424   4.730 -0.7795 -0.7838 -0.7373
 7579TIP3    H244153   6.587   3.336   4.736 -1.5066 -1.8377 -0.9325
 7580TIP3   OH244154   3.453   1.118  12.829  0.1616  0.3052  0.3060
 7580TIP3    H144155   3.430   1.110  12.737 -0.5893 -0.7498  0.5702
 7580TIP3    H244156   3.510   1.194  12.833  0.0980  0.4369 -1.0086
 7581TIP3   OH244157   5.179   0.762  16.654  0.2700  0.2412  0.5634
 7581TIP3    H144158   5.233   0.828  16.611  1.2364 -1.1536 -0.4215
 7581TIP3    H244159   5.113   0.739  16.588  0.1101  0.0112  0.8028
 7582TIP3   OH244160   3.672   3.578   4.663  0.2966 -0.0013  0.2487
 7582TIP3    H144161   3.664   3.666   4.702  0.2119 -0.5781  1.5863
 7582TIP3    H244162   3.764   3.555   4.676  0.5403  0.2346 -0.9255
 7583TIP3   OH244163   2.486   4.832   3.987 -0.2546 -0.1720  0.6418
 7583TIP3    H144164   2.491   4.750   3.937 -0.6780  0.8586 -1.1804
 7583TIP3    H244165   2.576   4.863   3.991 -0.2875  0.0214 -0.0006
 7584TIP3   OH244166   4.857   1.913  16.497  0.2427 -0.8160 -0.4055
 7584TIP3    H144167   4.771   1.903  16.537 -0.1622 -0.8793 -1.2657
 7584TIP3    H244168   4.918   1.876  16.561 -0.3750 -0.8041  0.1924
 7585TIP3   OH244169   3.915   4.162   1.534 -0.5754  0.2726  0.4628
 7585TIP3    H144170   3.874   4.195   1.454  0.0811 -0.5032 -0.2164
 7585TIP3    H244171   4.004   4.198   1.532 -0.6025  0.3815  0.9413
 7586TIP3   OH244172   1.143   5.125   2.449  0.2055  0.0699 -0.3857
 7586TIP3    H144173   1.064   5.109   2.501 -0.1893  1.2123 -0.6103
 7586TIP3    H244174   1.147   5.220   2.440  1.3733  0.0010 -0.7547
 7587TIP3   OH244175   1.751   1.600   3.982  0.5392 -0.5683 -0.2966
 7587TIP3    H144176   1.799   1.518   3.979 -0.4937 -1.1729 -2.4482
 7587TIP3    H244177   1.664   1.576   4.014  1.2056  0.3341  2.4918
 7588TIP3   OH244178   0.345   1.197  14.484 -0.2386 -0.2313 -0.0388
 7588TIP3    H144179   0.276   1.221  14.546  0.3221 -0.1363  0.5612
 7588TIP3    H244180   0.345   1.101  14.483 -0.3361 -0.2312  0.0094
 7589TIP3   OH244181   5.346   5.702  11.372  0.0783 -0.4920  0.1204
 7589TIP3    H144182   5.361   5.770  11.305 -0.8306  1.6214  1.9201
 7589TIP3    H244183   5.277   5.647  11.335 -1.7467  1.7241 -0.0745
 7590TIP3   OH244184   5.686   0.253  16.349 -0.5065  0.3158 -0.9908
 7590TIP3    H144185   5.676   0.337  16.392  0.0482 -0.4484  0.7367
 7590TIP3    H244186   5.772   0.257  16.308 -0.3491  0.4867 -0.6462
 7591TIP3   OH244187   3.100   1.325   6.588 -0.2939 -0.6281  0.4747
 7591TIP3    H144188   3.159   1.291   6.522 -0.6339 -0.1274 -0.1007
 7591TIP3    H244189   3.085   1.252   6.648  1.7163 -0.4733  1.2292
 7592TIP3   OH244190   6.757   1.494  13.370  0.3839 -0.0470 -0.3500
 7592TIP3    H144191   6.709   1.537  13.299  0.4417 -0.7645 -0.8407
 7592TIP3    H244192   6.847   1.522  13.360  0.0385  1.6014  0.7995
 7593TIP3   OH244193   4.167   3.769  16.331  0.3470 -0.3347  0.2277
 7593TIP3    H144194   4.108   3.840  16.355  0.2526 -0.4523  0.3433
 7593TIP3    H244195   4.253   3.810  16.326  0.3072 -0.2329  0.3879
 7594TIP3   OH244196   1.620   2.142   3.263 -0.0591 -0.4073  0.5504
 7594TIP3    H144197   1.698   2.180   3.305 -0.0971  0.1800  0.0927
 7594TIP3    H244198   1.551   2.152   3.328 -0.4353  1.7109 -0.1269
 7595TIP3   OH244199   5.199   0.006   5.664 -0.1861 -0.1398  0.2497
 7595TIP3    H144200   5.158  -0.021   5.746  0.5076 -1.1810  0.2757
 7595TIP3    H244201   5.283  -0.040   5.664 -0.5700 -0.8893 -1.4715
 7596TIP3   OH244202   5.914   1.317   1.457  0.0996  0.0822 -0.2682
 7596TIP3    H144203   5.924   1.278   1.544 -0.4741 -1.9458 -1.0605
 7596TIP3    H244204   5.842   1.379   1.467  0.1753  0.0274  0.7430
 7597TIP3   OH244205   5.775   4.192  11.236  0.4108  0.7021 -0.3850
 7597TIP3    H144206   5.765   4.121  11.172 -0.2894  1.3431 -1.0141
 7597TIP3    H244207   5.742   4.156  11.318  1.3420 -0.1431 -0.3550
 7598TIP3   OH244208   4.361   3.353   4.009 -0.3079  0.0081 -0.1913
 7598TIP3    H144209   4.449   3.381   3.986 -0.9816  0.1126 -2.9418
 7598TIP3    H244210   4.370   3.261   4.033  0.3962 -0.3692 -1.8008
 7599TIP3   OH244211   4.559   6.573  12.903 -0.3129  0.1878 -0.0291
 7599TIP3    H144212   4.621   6.501  12.896 -0.3655  0.1835 -0.4514
 7599TIP3    H244213   4.611   6.651  12.881 -0.0557  0.3890  1.1678
 7600TIP3   OH244214   2.948   1.801   6.110  0.3048  0.0945 -0.3220
 7600TIP3    H144215   2.869   1.760   6.147  0.4487  0.4676  0.4095
 7600TIP3    H244216   2.982   1.854   6.181  0.9778  0.2795 -0.7842
 7601TIP3   OH244217   1.328   1.008   2.868 -0.3731 -0.1524 -0.0010
 7601TIP3    H144218   1.283   1.021   2.785  0.4421  1.8055 -0.2029
 7601TIP3    H244219   1.354   0.916   2.868 -1.7146 -0.5643 -1.2009
 7602TIP3   OH244220   4.290   5.024   1.465  0.3686  0.4444 -0.2115
 7602TIP3    H144221   4.287   4.929   1.467  1.3075  0.3896 -0.8556
 7602TIP3    H244222   4.307   5.050   1.556  0.3870 -0.0100 -0.0852
 7603TIP3   OH244223   0.005   2.732   2.622  0.2051  0.4927  0.0022
 7603TIP3    H144224   0.026   2.726   2.715  1.2846  1.9406 -0.1198
 7603TIP3    H244225   0.035   2.649   2.585  0.7864  0.3531  0.7591
 7604TIP3   OH244226   4.545   3.278   1.190 -0.5218 -0.3232 -0.2011
 7604TIP3    H144227   4.528   3.354   1.246 -0.2033 -0.8613  0.6399
 7604TIP3    H244228   4.640   3.275   1.181 -0.5540 -0.4208 -0.5204
 7605TIP3   OH244229   2.525   4.237  11.569 -0.6234  1.2733 -0.1672
 7605TIP3    H144230   2.551   4.189  11.648 -0.6810  0.1366 -0.8247
 7605TIP3    H244231   2.523   4.329  11.597 -2.8584  0.7319  1.7852
 7606TIP3   OH244232   6.290   4.297  13.179 -0.1624  0.6011 -0.3049
 7606TIP3    H144233   6.321   4.343  13.256  0.2930  0.5671 -0.4648
 7606TIP3    H244234   6.195   4.291  13.191 -0.1756  1.2080 -0.0838
 7607TIP3   OH244235   5.767   2.926  16.369  0.1118  0.4097 -0.2451
 7607TIP3    H144236   5.717   2.845  16.354 -0.1637  0.5517 -0.1176
 7607TIP3    H244237   5.857   2.897  16.382  0.2598  0.2365 -1.5604
 7608TIP3   OH244238   4.091   2.415   3.100  0.2456 -0.0224 -0.2236
 7608TIP3    H144239   4.058   2.475   3.033 -0.7753 -1.5732 -1.1558
 7608TIP3    H244240   4.183   2.439   3.110  0.2186  0.7525 -1.5925
 7609TIP3   OH244241   0.645   6.583  11.574 -0.4664 -0.3774  0.0810
 7609TIP3    H144242   0.689   6.595  11.490 -0.5185  0.1152  0.1177
 7609TIP3    H244243   0.691   6.642  11.634 -2.5993  2.0044 -0.4106
 7610TIP3   OH244244   0.352   2.209  12.691  0.0031 -0.2348  0.3922
 7610TIP3    H144245   0.447   2.216  12.685  0.0225 -1.1758 -0.9353
 7610TIP3    H244246   0.319   2.272  12.627 -0.2430 -0.4543  0.3029
 7611TIP3   OH244247   1.296   3.065  16.845  0.2777  0.1963 -0.2263
 7611TIP3    H144248   1.303   3.091  16.753 -1.8678  0.4733 -0.3640
 7611TIP3    H244249   1.371   3.007  16.859  1.0359  0.6933 -1.9521
 7612TIP3   OH244250   4.142   3.265  11.046 -0.2789  0.1514 -0.5498
 7612TIP3    H144251   4.170   3.344  11.000  0.8809  1.6890  2.5173
 7612TIP3    H244252   4.222   3.213  11.057 -0.6357 -0.4490 -0.7262
 7613TIP3   OH244253   2.790   2.655   5.852 -0.1168  0.6001  0.0632
 7613TIP3    H144254   2.837   2.710   5.914 -2.6136  0.8648  1.8920
 7613TIP3    H244255   2.706   2.700   5.839 -1.0758 -1.2757 -0.7160
 7614TIP3   OH244256   4.307   3.041   4.327 -0.0748  0.0939  0.2753
 7614TIP3    H144257   4.338   3.061   4.239 -0.0750  1.3213  0.5403
 7614TIP3    H244258   4.214   3.064   4.325 -0.2373 -0.5484  0.3931
 7615TIP3   OH244259   4.139   1.364   0.347  0.3234 -0.2304  0.0647
 7615TIP3    H144260   4.187   1.393   0.425 -1.0284  0.4987  0.6609
 7615TIP3    H244261   4.190   1.290   0.313  2.4035  1.1237  0.0682
 7616TIP3   OH244262   6.405   6.593  11.658 -0.0759  0.7870  0.1095
 7616TIP3    H144263   6.461   6.668  11.676  0.7074  0.5607 -1.2474
 7616TIP3    H244264   6.460   6.517  11.675 -0.4933  0.5290  0.3348
 7617TIP3   OH244265   2.436   2.197   3.071  0.2952 -0.4316 -0.1859
 7617TIP3    H144266   2.527   2.226   3.077  0.9601 -1.9500 -2.0774
 7617TIP3    H244267   2.432   2.144   2.992 -2.0767 -1.0708  0.2670
 7618TIP3   OH244268   0.166   5.578   1.380 -0.3216 -0.0119  0.0159
 7618TIP3    H144269   0.202   5.646   1.437  0.4129 -0.0130 -0.4410
 7618TIP3    H244270   0.073   5.573   1.404 -0.1001  0.2403  0.9578
 7619TIP3   OH244271   3.626   2.892  14.252  0.0095 -0.7082  0.0695
 7619TIP3    H144272   3.575   2.891  14.333  1.1566 -0.7383  0.8176
 7619TIP3    H244273   3.676   2.974  14.257 -1.4278  0.3269 -1.6129
 7620TIP3   OH244274   5.077   0.890  12.003  0.3158  0.1127 -0.5560
 7620TIP3    H144275   5.047   0.810  11.960  0.5988  0.7281 -1.9725
 7620TIP3    H244276   5.173   0.882  12.007  0.3855  0.5687 -1.1314
 7621TIP3   OH244277   5.612   5.132  15.121  0.1176 -0.0239  0.8839
 7621TIP3    H144278   5.606   5.134  15.026 -0.0205  1.2842  0.8996
 7621TIP3    H244279   5.537   5.081  15.150 -1.9091  2.5009  0.4122
 7622TIP3   OH244280   5.544   5.772   0.194  0.2471 -0.9144  0.3501
 7622TIP3    H144281   5.593   5.787   0.274 -0.9914 -0.3067  1.0279
 7622TIP3    H244282   5.503   5.686   0.205 -2.0239  0.2278  1.5707
 7623TIP3   OH244283   0.321   1.599  11.822  0.3226  0.1930  0.1933
 7623TIP3    H144284   0.289   1.540  11.753  2.6605 -0.5286 -0.3659
 7623TIP3    H244285   0.357   1.540  11.889  1.7729  0.9089  0.0952
 7624TIP3   OH244286   4.982   2.856  13.336  0.0139  0.2137  0.1254
 7624TIP3    H144287   5.040   2.929  13.312 -0.9923  1.1169  0.3751
 7624TIP3    H244288   4.942   2.829  13.253 -0.4539  0.6950  0.1891
 7625TIP3   OH244289   2.358   4.871  10.986 -0.1896 -0.1279 -0.3105
 7625TIP3    H144290   2.271   4.833  10.978  0.1606 -0.6153 -2.0640
 7625TIP3    H244291   2.418   4.796  10.986  0.2302  0.1574  1.5620
 7626TIP3   OH244292   6.585   3.431   1.008 -0.0763  0.1244  0.2973
 7626TIP3    H144293   6.518   3.482   1.055 -0.1898 -0.2557  0.5512
 7626TIP3    H244294   6.540   3.349   0.984 -1.0108  1.4401 -3.1312
 7627TIP3   OH244295   1.570   4.541  12.468 -0.1478 -0.3185 -0.5766
 7627TIP3    H144296   1.536   4.603  12.405 -1.4584 -2.0296 -1.6238
 7627TIP3    H244297   1.504   4.472  12.473  0.9295 -1.3147  1.0435
 7628TIP3   OH244298   3.221   1.116  12.252 -0.0502 -0.2453  0.1154
 7628TIP3    H144299   3.258   1.140  12.337 -1.9471  1.2870  0.5650
 7628TIP3    H244300   3.147   1.176  12.239 -1.0837 -1.7794 -1.6796
 7629TIP3   OH244301   3.455   0.539   3.090 -0.3770 -0.0203 -0.3902
 7629TIP3    H144302   3.484   0.628   3.109 -0.4357 -0.2629  0.9591
 7629TIP3    H244303   3.536   0.492   3.069 -0.1541  0.0440  0.2718
 7630TIP3   OH244304   4.871   3.495   4.597  0.2467 -0.2197  0.4136
 7630TIP3    H144305   4.866   3.439   4.519 -3.3050 -0.7049  0.8216
 7630TIP3    H244306   4.819   3.449   4.662  1.4507  1.1750  2.4578
 7631TIP3   OH244307   0.298   5.366   0.554 -0.4391  0.9490  0.1071
 7631TIP3    H144308   0.330   5.429   0.489  1.3586 -0.3056 -0.2824
 7631TIP3    H244309   0.213   5.338   0.520  0.3783  0.4452 -1.6530
 7632TIP3   OH244310   4.357   4.745   1.461 -0.3400  0.2359  0.0712
 7632TIP3    H144311   4.393   4.659   1.440 -0.9081 -0.4095  1.5808
 7632TIP3    H244312   4.268   4.744   1.425 -0.4126  0.1216  0.2550
 7633TIP3   OH244313   5.792   6.228   2.348  0.7979  1.1485 -0.3964
 7633TIP3    H144314   5.813   6.312   2.308  2.1915 -0.4601 -3.3719
 7633TIP3    H244315   5.718   6.195   2.297  0.1572  0.6020  0.8437
 7634TIP3   OH244316   0.372   3.392  14.175  0.0606  0.0507  0.4620
 7634TIP3    H144317   0.286   3.366  14.142  1.0343 -3.3009  0.2581
 7634TIP3    H244318   0.381   3.346  14.258  2.2711 -1.0485 -0.3180
 7635TIP3   OH244319   4.918   3.724  13.921 -0.3836 -0.2356  0.2469
 7635TIP3    H144320   4.870   3.691  13.997  1.1721 -0.1253  1.3261
 7635TIP3    H244321   4.927   3.818  13.937  0.9732 -0.3974  0.5489
 7636TIP3   OH244322   5.456   4.802  12.318  0.5099  0.1740  0.2158
 7636TIP3    H144323   5.416   4.719  12.291  1.5824  0.3813 -2.3231
 7636TIP3    H244324   5.383   4.861  12.331 -0.1967 -0.6387  0.0227
 7637TIP3   OH244325   4.507   2.048  13.321  0.1351 -0.0303  0.4917
 7637TIP3    H144326   4.499   1.960  13.284 -0.4209  0.2449 -0.0661
 7637TIP3    H244327   4.600   2.068  13.316  0.0622  0.0276 -0.8266
 7638TIP3   OH244328   3.727   5.815   4.653  0.3803 -0.1974  0.8073
 7638TIP3    H144329   3.747   5.748   4.718 -1.5931 -0.4042  1.2750
 7638TIP3    H244330   3.641   5.789   4.618  0.7101  0.7471 -0.7949
 7639TIP3   OH244331   5.169   1.961  15.504  0.7416 -0.3101  0.2094
 7639TIP3    H144332   5.168   1.869  15.532  0.5635 -1.2271 -2.4868
 7639TIP3    H244333   5.210   1.959  15.418 -1.2780  1.8383 -0.8982
 7640TIP3   OH244334   0.186   3.197  15.475  0.1917 -0.4430  0.2488
 7640TIP3    H144335   0.238   3.231  15.548 -1.6387  2.1535  0.4847
 7640TIP3    H244336   0.157   3.275  15.428 -2.9037 -1.7256 -0.2168
 7641TIP3   OH244337   2.424   4.817  16.424  0.0874  0.2700  0.2125
 7641TIP3    H144338   2.428   4.841  16.516 -2.2577  1.7892 -0.0121
 7641TIP3    H244339   2.415   4.900  16.378  1.4987 -0.4379 -1.4634
 7642TIP3   OH244340   2.203   2.597  16.919  0.3606 -0.2092 -0.7557
 7642TIP3    H144341   2.200   2.662  16.989 -1.1471  0.0802 -1.0576
 7642TIP3    H244342   2.296   2.588  16.898  0.8414 -0.2384  1.1991
 7643TIP3   OH244343   5.247   5.409   3.257 -0.1534 -0.0084 -0.3146
 7643TIP3    H144344   5.311   5.461   3.306  0.2577 -0.0137 -0.8442
 7643TIP3    H244345   5.165   5.421   3.305  0.4412 -0.8138  0.9778
 7644TIP3   OH244346   3.328   3.559   2.858  0.2043  0.2808  0.6456
 7644TIP3    H144347   3.342   3.466   2.875 -0.9579  0.2544  1.6016
 7644TIP3    H244348   3.233   3.568   2.847  0.4567  1.0865 -1.2596
 7645TIP3   OH244349   2.721   5.223  16.006  0.3656 -0.1073  0.4275
 7645TIP3    H144350   2.735   5.133  15.976  1.6246  0.3357 -0.3990
 7645TIP3    H244351   2.775   5.231  16.084 -0.6130 -0.3731  1.1566
 7646TIP3   OH244352   5.669   6.174  14.657  0.1051 -0.3124  0.0070
 7646TIP3    H144353   5.643   6.224  14.734 -1.5299 -1.0770  0.0088
 7646TIP3    H244354   5.690   6.087  14.691 -1.2144 -0.8314 -0.4480
 7647TIP3   OH244355   4.449   4.285  12.738  0.3869 -0.4656 -0.4688
 7647TIP3    H144356   4.421   4.194  12.741  0.4182 -0.4710  1.7156
 7647TIP3    H244357   4.453   4.307  12.645  1.2196 -2.9399 -1.0905
 7648TIP3   OH244358   5.247   0.613   2.447 -0.5580  0.0377  0.3980
 7648TIP3    H144359   5.236   0.572   2.532 -0.2455  0.2633  0.5478
 7648TIP3    H244360   5.283   0.544   2.391 -0.6043 -0.0624  0.4924
 7649TIP3   OH244361   2.009   4.336   2.595  0.1824 -0.1893 -0.0807
 7649TIP3    H144362   2.096   4.315   2.563  0.3601  0.4133  0.0046
 7649TIP3    H244363   1.974   4.252   2.625  1.4628 -0.1504  1.6900
 7650TIP3   OH244364   6.350   1.444   0.614 -0.2166 -0.1288  0.3359
 7650TIP3    H144365   6.399   1.379   0.564  1.2240  0.8680  0.4074
 7650TIP3    H244366   6.270   1.459   0.563  1.4591  1.2931 -2.0313
 7651TIP3   OH244367   1.584   5.685  16.137  0.8146  0.1086  0.1944
 7651TIP3    H144368   1.541   5.634  16.069  2.1089  0.1912 -0.7274
 7651TIP3    H244369   1.669   5.642  16.149  1.2559  1.0537  0.5897
 7652TIP3   OH244370   3.037   6.499   1.330 -0.1050 -0.5397  0.3424
 7652TIP3    H144371   3.117   6.551   1.327  0.3471 -1.2667 -1.0074
 7652TIP3    H244372   2.971   6.554   1.288  0.1445 -0.6803 -0.2362
 7653TIP3   OH244373   6.567   5.303  16.735 -0.3676 -0.5054 -0.2391
 7653TIP3    H144374   6.656   5.334  16.755 -0.6784  0.4450 -0.2505
 7653TIP3    H244375   6.567   5.211  16.759  1.1143 -0.9533 -1.8022
 7654TIP3   OH244376   0.292   6.663   2.099  0.0619  0.1791 -0.0889
 7654TIP3    H144377   0.371   6.717   2.102 -1.4173  2.4392  0.6108
 7654TIP3    H244378   0.322   6.576   2.128  2.2216  1.0146  0.4194
 7655TIP3   OH244379   0.098   4.494   2.232  0.1444  0.1540  0.5608
 7655TIP3    H144380   0.081   4.418   2.176 -0.7419  0.7500  0.0141
 7655TIP3    H244381   0.132   4.456   2.313  1.1240 -0.7388 -0.2386
 7656TIP3   OH244382   2.554   5.541  11.452  0.1661 -0.8261 -0.1682
 7656TIP3    H144383   2.630   5.594  11.430  0.6697 -0.8393  1.4084
 7656TIP3    H244384   2.587   5.452  11.454 -0.0634 -0.9112 -0.1726
 7657TIP3   OH244385   5.664   6.013   1.601 -0.6357  0.1259 -0.1952
 7657TIP3    H144386   5.630   6.029   1.513 -1.3661  1.2531  0.2741
 7657TIP3    H244387   5.757   6.035   1.595 -0.5442 -0.3826 -0.8216
 7658TIP3   OH244388   2.940   2.210   1.341  0.3794  0.0254  0.3595
 7658TIP3    H144389   2.915   2.177   1.254  1.5860 -0.7303  0.2688
 7658TIP3    H244390   2.858   2.212   1.391  0.2017 -3.1674  0.3685
 7659TIP3   OH244391   2.449   3.276   1.660 -0.2721 -0.2713 -0.2448
 7659TIP3    H144392   2.396   3.209   1.704 -1.6168  0.5057 -0.6216
 7659TIP3    H244393   2.478   3.334   1.730 -0.0401 -0.6261 -0.0477
 7660TIP3   OH244394   6.355   3.739  13.536 -0.2371  0.0135 -0.0695
 7660TIP3    H144395   6.343   3.645  13.551  1.6084 -0.4183 -1.0636
 7660TIP3    H244396   6.335   3.779  13.620 -0.6370 -1.3090  0.4921
 7661TIP3   OH244397   4.439   5.358   1.088  0.0821 -0.9032 -0.0778
 7661TIP3    H144398   4.411   5.325   1.174  0.7669 -0.9951  0.1137
 7661TIP3    H244399   4.475   5.445   1.107  0.1305 -0.8758 -0.2916
 7662TIP3   OH244400   4.704   1.661  11.427  0.2351  0.2620 -0.4599
 7662TIP3    H144401   4.736   1.631  11.342  2.0288 -1.8960  0.8609
 7662TIP3    H244402   4.619   1.618  11.437 -0.2102  0.9091 -1.3259
 7663TIP3   OH244403   4.618   6.395   1.919 -0.1869 -0.0953  0.2789
 7663TIP3    H144404   4.638   6.303   1.906  0.2904 -0.0957  0.9176
 7663TIP3    H244405   4.649   6.438   1.839 -1.5104 -0.6231 -0.5346
 7664TIP3   OH244406   3.303   3.600  16.168  0.2001  0.4464 -0.0912
 7664TIP3    H144407   3.287   3.532  16.104  4.1035 -0.7206 -0.0478
 7664TIP3    H244408   3.294   3.556  16.253  0.0405  0.6757  0.0116
 7665TIP3   OH244409   4.233   4.773  14.092  0.2265  0.3278 -0.4420
 7665TIP3    H144410   4.323   4.753  14.119 -0.4795 -0.3354  1.6123
 7665TIP3    H244411   4.191   4.806  14.171 -2.2424 -2.5426 -0.3385
 7666TIP3   OH244412   5.907   3.179  11.632  0.1917  0.0620 -0.0283
 7666TIP3    H144413   5.822   3.217  11.611  0.4405  0.4267 -0.4075
 7666TIP3    H244414   5.923   3.115  11.563  1.0599  1.3397 -1.0756
 7667TIP3   OH244415   2.887   2.172   2.993 -0.3100 -0.0806  0.4363
 7667TIP3    H144416   2.846   2.245   3.040 -0.3020 -1.6893  3.1877
 7667TIP3    H244417   2.978   2.198   2.981 -0.0056 -0.0664  2.5030
 7668TIP3   OH244418   1.147   0.896   4.241  0.4552 -0.2638  0.4033
 7668TIP3    H144419   1.131   0.846   4.162  0.8247  1.4946 -0.8558
 7668TIP3    H244420   1.190   0.976   4.211  1.8585 -0.1059  2.5243
 7669TIP3   OH244421   4.677   0.256  13.300 -0.1931  0.0649  0.3883
 7669TIP3    H144422   4.720   0.277  13.218 -0.3046  0.6849  0.4819
 7669TIP3    H244423   4.738   0.285  13.368 -0.7275  0.9230  0.5211
 7670TIP3   OH244424   0.258   2.480   1.625 -0.0059  0.0664  0.3111
 7670TIP3    H144425   0.226   2.540   1.692 -2.2315 -0.1708 -0.4384
 7670TIP3    H244426   0.178   2.442   1.587  1.2530 -1.5858 -0.8476
 7671TIP3   OH244427   0.964   5.985  17.072  0.4534  0.2320 -0.1177
 7671TIP3    H144428   0.980   6.054  17.007  0.9590 -0.3743 -0.6583
 7671TIP3    H244429   0.944   5.908  17.019 -1.2541  0.2312  0.4992
 7672TIP3   OH244430   6.298   6.568  10.725  0.4272  0.5276 -0.6871
 7672TIP3    H144431   6.307   6.487  10.776  0.5558  0.5630 -0.6554
 7672TIP3    H244432   6.253   6.541  10.645  2.5926 -0.0062 -1.7726
 7673TIP3   OH244433   4.371   0.725  13.810 -0.1368 -0.3109 -0.5328
 7673TIP3    H144434   4.283   0.713  13.772 -0.6049 -3.7992  1.2560
 7673TIP3    H244435   4.358   0.788  13.880 -1.2723 -0.8559 -0.2290
 7674TIP3   OH244436   1.258   3.842  12.098 -0.4959 -0.0975 -0.5969
 7674TIP3    H144437   1.221   3.766  12.143 -0.8075  0.1602 -0.4131
 7674TIP3    H244438   1.341   3.811  12.061 -0.7198 -0.5783 -0.6939
 7675TIP3   OH244439   1.902   6.683   6.109 -0.2237 -0.1180  0.4287
 7675TIP3    H144440   1.812   6.675   6.140 -0.4906 -2.5262 -0.7700
 7675TIP3    H244441   1.898   6.748   6.039 -0.4674  1.7591  2.0762
 7676TIP3   OH244442   1.737   0.562  14.488  0.1180  0.0783  0.2635
 7676TIP3    H144443   1.777   0.577  14.573  1.0597 -0.3116 -0.0951
 7676TIP3    H244444   1.741   0.467  14.476 -1.1890 -0.0143  0.3298
 7677TIP3   OH244445   2.924   4.936   6.118  0.0676 -0.0059 -0.6745
 7677TIP3    H144446   2.925   4.858   6.174 -1.2638  0.1338 -0.4212
 7677TIP3    H244447   2.980   4.999   6.163 -1.8021  0.4857  1.1334
 7678TIP3   OH244448   6.390   0.567   2.597  0.0548 -0.6882  1.0346
 7678TIP3    H144449   6.434   0.642   2.635  1.3657 -0.2729 -1.1741
 7678TIP3    H244450   6.300   0.597   2.581 -0.0323 -0.3244  2.1336
 7679TIP3   OH244451   4.438   0.233  16.161  0.2310 -0.0453  0.2374
 7679TIP3    H144452   4.373   0.245  16.091 -0.7241 -1.4620  0.8218
 7679TIP3    H244453   4.406   0.288  16.232 -1.4495 -2.0862  1.1891
 7680TIP3   OH244454   4.657   2.234  12.321 -0.2515 -0.0342  0.0361
 7680TIP3    H144455   4.694   2.199  12.240  0.3502  1.9802 -0.5997
 7680TIP3    H244456   4.592   2.297  12.292 -0.6392  0.0863  1.1379
 7681TIP3   OH244457   4.494   2.048   1.913  0.1954  0.4088 -0.2408
 7681TIP3    H144458   4.491   2.035   2.008  0.4352  0.1870 -0.2607
 7681TIP3    H244459   4.571   1.999   1.885 -1.2843 -1.7252 -0.8720
 7682TIP3   OH244460   3.533   0.115  13.173  0.5206 -0.1405  0.1533
 7682TIP3    H144461   3.570   0.085  13.089 -0.4945 -1.1639  0.0490
 7682TIP3    H244462   3.439   0.112  13.160  0.3156 -1.3155  1.6661
 7683TIP3   OH244463   3.342   0.702  15.953  0.0887 -0.1956  0.1125
 7683TIP3    H144464   3.266   0.645  15.937  0.1272 -0.4844  0.9169
 7683TIP3    H244465   3.359   0.743  15.868 -0.0221 -1.2794 -0.4578
 7684TIP3   OH244466   3.603   3.233  11.180  0.3529 -0.6666 -0.2321
 7684TIP3    H144467   3.688   3.257  11.216  0.7249  0.5870 -1.8441
 7684TIP3    H244468   3.541   3.257  11.249  0.9809  2.3967 -0.5762
 7685TIP3   OH244469   6.406   5.986   1.105 -0.3211  0.1412 -0.2075
 7685TIP3    H144470   6.464   5.962   1.177 -0.9593 -2.1048 -0.3904
 7685TIP3    H244471   6.450   5.953   1.026 -0.3162  1.3213 -0.7288
 7686TIP3   OH244472   3.654   0.132   5.436 -0.0594 -0.5117 -0.1860
 7686TIP3    H144473   3.583   0.187   5.402  0.7569 -0.5712 -2.1285
 7686TIP3    H244474   3.612   0.050   5.459 -0.6315 -0.5848 -1.4206
 7687TIP3   OH244475   5.803   1.304  14.288 -0.1873 -0.1709  0.5916
 7687TIP3    H144476   5.723   1.355  14.274 -0.2925 -0.9589 -2.3985
 7687TIP3    H244477   5.783   1.249  14.364 -2.8483 -0.8662 -0.4855
 7688TIP3   OH244478   1.073   6.477   3.359  0.3991 -0.8418  0.4509
 7688TIP3    H144479   1.133   6.403   3.370 -0.5677 -1.7392 -0.1114
 7688TIP3    H244480   1.004   6.461   3.423  0.6798  0.1195  1.0106
 7689TIP3   OH244481   1.186   3.924  15.401 -0.2919 -0.7042 -0.0354
 7689TIP3    H144482   1.258   3.863  15.414  0.6459  0.3836  0.0298
 7689TIP3    H244483   1.116   3.891  15.457  1.4425  0.3130  2.9572
 7690TIP3   OH244484   3.178   4.254  11.202 -0.1546 -0.2751 -0.1896
 7690TIP3    H144485   3.107   4.271  11.140  1.0191  0.2039 -1.4642
 7690TIP3    H244486   3.204   4.164  11.183  1.1319  0.3178 -1.4384
 7691TIP3   OH244487   5.910   3.553   3.556 -0.4534 -0.1338  0.4161
 7691TIP3    H144488   5.966   3.559   3.633  0.6973  1.3930 -0.4641
 7691TIP3    H244489   5.874   3.642   3.546 -1.7612 -0.6818  0.0259
 7692TIP3   OH244490   1.396   0.609  12.461  0.3696  0.0029 -0.7026
 7692TIP3    H144491   1.355   0.625  12.376 -0.2651  0.7759 -0.2610
 7692TIP3    H244492   1.465   0.545  12.442 -0.5806 -0.7979 -1.5753
 7693TIP3   OH244493   3.399   2.042   2.149  1.0168 -0.1155  0.0382
 7693TIP3    H144494   3.304   2.046   2.151  1.0447  0.9571 -0.2078
 7693TIP3    H244495   3.428   2.097   2.222  1.4593 -1.4381  0.9179
 7694TIP3   OH244496   2.303   2.440   0.668  0.9155  0.3102  0.0976
 7694TIP3    H144497   2.365   2.495   0.621  2.1702 -0.1640  1.1447
 7694TIP3    H244498   2.301   2.475   0.757  0.1201 -0.0531  0.2352
 7695TIP3   OH244499   2.779   3.284   1.268 -0.0456 -0.1876 -0.8311
 7695TIP3    H144500   2.710   3.261   1.330  0.3366  1.0603  0.0998
 7695TIP3    H244501   2.851   3.224   1.288  0.7946  1.3785  1.2988
 7696TIP3   OH244502   5.608   0.407   4.785 -0.2709  0.2098  0.0649
 7696TIP3    H144503   5.545   0.461   4.832 -1.1582 -0.0349 -0.8116
 7696TIP3    H244504   5.600   0.434   4.694 -0.8458 -1.4583 -0.4189
 7697TIP3   OH244505   3.046   2.329   3.509 -0.0940  0.3771  0.5230
 7697TIP3    H144506   2.983   2.400   3.523  0.1992  0.7605 -0.0501
 7697TIP3    H244507   3.125   2.373   3.475 -0.1985 -0.3028 -0.6653
 7698TIP3   OH244508   1.637   2.825   1.323  0.6375 -0.8467 -0.0911
 7698TIP3    H144509   1.674   2.760   1.382  0.4512 -0.3499  0.5840
 7698TIP3    H244510   1.544   2.828   1.347  0.6928 -0.1579  0.0584
 7699TIP3   OH244511   0.833   1.672  11.213 -0.3928  0.1933 -0.1912
 7699TIP3    H144512   0.832   1.753  11.264 -1.7403  0.0648  0.0361
 7699TIP3    H244513   0.866   1.606  11.273  0.3059  0.4902 -0.2434
 7700TIP3   OH244514   2.927   1.896   4.675  0.7286 -0.1071 -0.1579
 7700TIP3    H144515   2.991   1.833   4.708  0.2475 -0.2285  0.5675
 7700TIP3    H244516   2.910   1.869   4.585  1.4387 -0.2747 -0.2501
 7701TIP3   OH244517   0.019   1.021  14.153  0.3691 -0.1475 -0.3195
 7701TIP3    H144518   0.005   1.011  14.247 -1.5623  0.8283 -0.4432
 7701TIP3    H244519  -0.046   1.087  14.126  1.8106  0.6418 -2.0997
 7702TIP3   OH244520   5.172   1.418   0.561 -0.0557  0.2117  0.0660
 7702TIP3    H144521   5.185   1.406   0.466  0.0219  0.8140 -0.0000
 7702TIP3    H244522   5.147   1.510   0.570 -1.2631 -0.1518  0.5132
 7703TIP3   OH244523   4.555   5.087   4.070 -0.3123  0.0543 -0.0758
 7703TIP3    H144524   4.501   5.018   4.108 -0.5771  0.5518  0.4497
 7703TIP3    H244525   4.630   5.040   4.032 -1.8713 -0.8252 -2.2843
 7704TIP3   OH244526   3.364   0.527  16.786 -0.6565 -0.1821 -0.1373
 7704TIP3    H144527   3.269   0.541  16.780 -0.7080  0.2237  1.2707
 7704TIP3    H244528   3.374   0.456  16.849  0.0452  2.0504  2.4553
 7705TIP3   OH244529   0.549   5.903  11.826  0.7316 -0.1367  0.3529
 7705TIP3    H144530   0.503   5.987  11.832  0.3250 -0.4178  1.4742
 7705TIP3    H244531   0.513   5.862  11.747  0.5808  0.5316  0.0638
 7706TIP3   OH244532   3.119   1.739  11.850  0.7991  0.0300 -0.0145
 7706TIP3    H144533   3.042   1.775  11.804  0.7894 -0.7060 -0.5944
 7706TIP3    H244534   3.086   1.660  11.892  0.7464  0.8369  1.5107
 7707TIP3   OH244535   4.444   2.795  15.447 -0.6315 -0.4908  0.1257
 7707TIP3    H144536   4.434   2.871  15.505  1.3275  0.5396 -0.8046
 7707TIP3    H244537   4.488   2.729  15.501 -0.2317 -0.1103  0.2662
 7708TIP3   OH244538   5.513   3.819   5.862  0.2877  0.4784  0.1887
 7708TIP3    H144539   5.484   3.820   5.953 -1.5504  1.1958 -0.3549
 7708TIP3    H244540   5.505   3.911   5.833 -1.0606 -0.0232 -1.2099
 7709TIP3   OH244541   0.488   3.888   2.841 -0.2134 -0.3111 -0.0903
 7709TIP3    H144542   0.489   3.983   2.858  0.9582 -0.2950 -0.1622
 7709TIP3    H244543   0.397   3.863   2.852 -0.5184  0.8068  0.0771
 7710TIP3   OH244544   3.719   2.973   2.724 -0.3354 -0.3666 -0.1335
 7710TIP3    H144545   3.792   3.036   2.726  0.2086 -0.9962  0.4641
 7710TIP3    H244546   3.757   2.892   2.759 -1.8587 -0.1518  2.2453
 7711TIP3   OH244547   5.406   6.001   5.501 -0.9244 -0.7272 -0.4393
 7711TIP3    H144548   5.358   6.012   5.583 -0.5269  1.9339 -0.4690
 7711TIP3    H244549   5.490   5.962   5.528  0.1871  2.2391  0.9077
 7712TIP3   OH244550   6.340   4.506   5.410  0.1288 -0.0929 -0.0644
 7712TIP3    H144551   6.268   4.558   5.373  0.8134  0.9881  0.0668
 7712TIP3    H244552   6.392   4.481   5.335  1.1595  1.5521  0.0420
 7713TIP3   OH244553   3.366   1.559  12.622  0.4962  0.2936  0.6896
 7713TIP3    H144554   3.349   1.653  12.617 -0.4034  0.1354  0.6583
 7713TIP3    H244555   3.391   1.544  12.714 -0.4596  0.3908  0.9718
 7714TIP3   OH244556   0.460   4.682  12.369 -0.2108 -0.0394  0.4430
 7714TIP3    H144557   0.397   4.705  12.437 -0.6310 -1.5996  0.6365
 7714TIP3    H244558   0.545   4.705  12.406 -0.5679  0.7839  0.7579
 7715TIP3   OH244559   6.702   1.828   2.735 -0.0540 -0.1410  0.1654
 7715TIP3    H144560   6.735   1.784   2.813 -0.2553  1.7637  1.3881
 7715TIP3    H244561   6.609   1.805   2.731  0.0243 -0.4869  0.2882
 7716TIP3   OH244562   4.783   1.290  16.708  0.1039  0.0071 -0.7315
 7716TIP3    H144563   4.813   1.381  16.712 -1.1454  0.4297  2.7446
 7716TIP3    H244564   4.863   1.238  16.714  0.8531  0.7997 -2.9275
 7717TIP3   OH244565   3.268   2.223  12.194 -0.6321 -0.1298  0.4028
 7717TIP3    H144566   3.272   2.310  12.235 -0.6337  0.7429 -1.3559
 7717TIP3    H244567   3.280   2.240  12.101  0.1173 -2.1176  0.0888
 7718TIP3   OH244568   4.195   1.755   3.799  0.4688  0.4992  0.2241
 7718TIP3    H144569   4.206   1.826   3.863  0.6242 -0.1887  0.9697
 7718TIP3    H244570   4.111   1.773   3.758  0.0527  0.5855  1.0934
 7719TIP3   OH244571   2.281   3.786  13.601  0.0810 -0.0564  0.1938
 7719TIP3    H144572   2.375   3.806  13.608 -0.4001  1.7765  2.9675
 7719TIP3    H244573   2.262   3.793  13.507  2.5640  0.2204 -0.3517
 7720TIP3   OH244574   2.767   6.714  16.336 -0.3134 -0.1657  0.1488
 7720TIP3    H144575   2.781   6.692  16.428 -1.6450 -0.0884  0.3894
 7720TIP3    H244576   2.855   6.725  16.300  0.4665 -4.0590  0.4234
 7721TIP3   OH244577   1.439   5.292   2.999  0.2416  0.2781 -0.0829
 7721TIP3    H144578   1.380   5.258   2.932  2.2953 -0.7313 -1.4774
 7721TIP3    H244579   1.390   5.363   3.040 -1.2542  0.7007 -2.4116
 7722TIP3   OH244580   2.549   5.320  14.214 -0.1785  0.1085  0.0374
 7722TIP3    H144581   2.496   5.248  14.180  2.2516 -1.5906 -0.4855
 7722TIP3    H244582   2.633   5.311  14.168  1.3232  1.2420  2.3765
 7723TIP3   OH244583   5.353   5.620  14.833  0.2251 -0.5379  0.0386
 7723TIP3    H144584   5.271   5.624  14.884 -0.7576  0.2167 -1.5214
 7723TIP3    H244585   5.422   5.631  14.899 -0.9741 -0.0481  1.2735
 7724TIP3   OH244586   4.130   2.489  13.794  0.6836 -0.0418 -0.3528
 7724TIP3    H144587   4.112   2.420  13.859  1.3687  0.0217 -0.0884
 7724TIP3    H244588   4.067   2.472  13.724 -0.2084  0.0164  0.4190
 7725TIP3   OH244589   3.593   6.477  15.158  0.1304  0.7238  0.0538
 7725TIP3    H144590   3.541   6.526  15.093  0.2460 -4.7668 -5.0882
 7725TIP3    H244591   3.534   6.408  15.188  1.7874 -0.1260  1.4920
 7726TIP3   OH244592   0.145   1.063   1.287 -0.2672  0.0755 -0.0019
 7726TIP3    H144593   0.162   1.136   1.347 -0.1974  0.5370 -0.5633
 7726TIP3    H244594   0.073   1.094   1.232 -0.3220 -0.3336 -0.1605
 7727TIP3   OH244595   3.443   6.729  16.580  0.1700 -0.0540  0.7492
 7727TIP3    H144596   3.477   6.641  16.559  0.5247  0.1172  0.5899
 7727TIP3    H244597   3.379   6.746  16.511  1.9500  0.8617 -0.7678
 7728TIP3   OH244598   5.153   1.585   3.899 -0.4552  0.4696 -0.2351
 7728TIP3    H144599   5.107   1.603   3.980  2.0441  0.2483  1.3365
 7728TIP3    H244600   5.236   1.632   3.907  0.0917 -0.0011 -2.4368
 7729TIP3   OH244601   0.144   1.466  12.661  0.0359 -0.6321 -0.1154
 7729TIP3    H144602   0.052   1.476  12.684  0.3936  0.1516  1.0509
 7729TIP3    H244603   0.175   1.395  12.718  1.2322  2.1324  2.9626
 7730TIP3   OH244604   1.961   2.669  12.034  0.0918 -0.8511  0.0784
 7730TIP3    H144605   1.975   2.685  11.940 -1.5809  0.8924  0.0649
 7730TIP3    H244606   2.044   2.634  12.065  1.0210 -0.5056 -1.8543
 7731TIP3   OH244607   6.671   0.200   2.806 -0.1258 -0.2364 -0.2272
 7731TIP3    H144608   6.666   0.291   2.778  2.1002  0.3457  1.0393
 7731TIP3    H244609   6.615   0.194   2.883 -0.1911  0.0966 -0.2495
 7732TIP3   OH244610   3.963   5.230   5.018 -0.2046 -0.5396 -0.0991
 7732TIP3    H144611   4.014   5.195   5.091 -0.4822  2.2320  1.5689
 7732TIP3    H244612   3.872   5.215   5.043 -0.3112 -1.7736 -1.1145
 7733TIP3   OH244613   0.612   6.672  16.166  0.2127 -0.1529  0.2376
 7733TIP3    H144614   0.583   6.636  16.082  1.0208 -1.8447  0.6392
 7733TIP3    H244615   0.601   6.767  16.157 -0.2934 -0.3504 -1.5404
 7734TIP3   OH244616   5.573   1.692   3.573  0.2132  0.3436 -0.3181
 7734TIP3    H144617   5.550   1.735   3.655 -1.2560 -0.3206 -0.3505
 7734TIP3    H244618   5.656   1.648   3.591  0.8770  1.7818  0.2177
 7735TIP3   OH244619   5.800   0.563  13.796  0.2300 -0.2608  0.0655
 7735TIP3    H144620   5.746   0.497  13.839 -0.2684  0.7211  1.0014
 7735TIP3    H244621   5.751   0.644  13.806  1.0954  0.3565 -0.5588
 7736TIP3   OH244622   5.495   2.380  15.738  0.2896 -0.6609  0.0531
 7736TIP3    H144623   5.519   2.312  15.674 -0.2464 -0.1481 -0.7216
 7736TIP3    H244624   5.437   2.439  15.689 -0.7442 -0.6553  1.2224
 7737TIP3   OH244625   6.776   1.208   6.099 -0.3095  0.7742 -0.3077
 7737TIP3    H144626   6.789   1.154   6.021  0.3916 -1.3825  1.1906
 7737TIP3    H244627   6.857   1.198   6.149 -0.7600  2.0439  0.7346
 7738TIP3   OH244628   5.793   2.495   2.605  0.0009  0.0443  0.2426
 7738TIP3    H144629   5.847   2.429   2.648  0.3623 -0.1158 -0.4460
 7738TIP3    H244630   5.766   2.454   2.523  1.3370  1.2345 -0.8338
 7739TIP3   OH244631   1.355   4.861   0.359 -0.0748  0.0685 -0.5079
 7739TIP3    H144632   1.271   4.819   0.378  0.3496 -1.6028 -2.0074
 7739TIP3    H244633   1.414   4.828   0.427  0.6740 -3.3426 -2.5660
 7740TIP3   OH244634   5.478   5.196   1.716 -0.4027 -0.0247 -0.0104
 7740TIP3    H144635   5.442   5.143   1.645  0.4672 -1.3031  0.4705
 7740TIP3    H244636   5.434   5.281   1.707 -0.9442 -0.4327 -1.5317
 7741TIP3   OH244637   0.411   5.021  12.434  0.3668 -0.4279  0.1593
 7741TIP3    H144638   0.382   4.973  12.357  0.0363 -0.9600  0.6050
 7741TIP3    H244639   0.463   5.094  12.399 -0.0954 -0.4409 -0.5741
 7742TIP3   OH244640   1.851   4.895   5.767  0.1207 -0.1055  0.5555
 7742TIP3    H144641   1.763   4.858   5.757 -0.2721  0.5129  1.5565
 7742TIP3    H244642   1.836   4.987   5.790  0.9672 -0.3909  2.4523
 7743TIP3   OH244643   5.207   1.567  14.105 -0.4118  0.5193  0.0037
 7743TIP3    H144644   5.220   1.502  14.174 -0.8887 -0.6326 -0.9570
 7743TIP3    H244645   5.196   1.650  14.152  0.0242 -0.1145  1.2679
 7744TIP3   OH244646   2.464   5.793  15.583  0.1630  0.1997 -0.1243
 7744TIP3    H144647   2.493   5.702  15.590  0.3258  0.2503 -0.1456
 7744TIP3    H244648   2.464   5.812  15.489 -1.1326 -0.1872 -0.2215
 7745TIP3   OH244649   1.982   5.841   2.322 -0.3414  0.6167 -0.2042
 7745TIP3    H144650   2.055   5.866   2.265 -1.0758 -0.8022 -1.8561
 7745TIP3    H244651   1.912   5.902   2.299 -0.0596  1.2371  0.5490
 7746TIP3   OH244652   2.631   2.731   5.239  0.0679 -0.6115  0.4740
 7746TIP3    H144653   2.619   2.805   5.298 -0.2888 -1.9659  2.1703
 7746TIP3    H244654   2.571   2.749   5.166  0.7758  1.2616  0.2728
 7747TIP3   OH244655   5.763   0.753   2.281 -0.5181 -0.0128  0.0406
 7747TIP3    H144656   5.685   0.791   2.239 -0.2170 -0.7714 -1.2689
 7747TIP3    H244657   5.761   0.661   2.255  0.6249 -0.1210  0.2868
 7748TIP3   OH244658   1.770   4.836   0.318 -0.1038  0.2436 -0.4653
 7748TIP3    H144659   1.799   4.768   0.379 -0.9485  0.0310 -0.2820
 7748TIP3    H244660   1.717   4.790   0.253 -1.1994  0.7736  0.0073
 7749TIP3   OH244661   5.228   6.735   2.420  0.0244 -0.5456 -0.3019
 7749TIP3    H144662   5.143   6.774   2.440  0.3489  1.5767 -2.5981
 7749TIP3    H244663   5.209   6.641   2.410 -1.8861 -0.2247 -0.0817
 7750TIP3   OH244664   2.772   4.860   5.922 -0.1144  0.1145 -0.4006
 7750TIP3    H144665   2.833   4.906   5.980 -0.2186  0.6551 -0.7068
 7750TIP3    H244666   2.700   4.923   5.909  0.1879  0.2333 -1.5776
 7751TIP3   OH244667   5.324   1.757  13.161 -0.1029 -0.0808 -0.1287
 7751TIP3    H144668   5.305   1.790  13.249 -1.5950 -0.7269 -0.1805
 7751TIP3    H244669   5.416   1.780  13.146 -0.5177  2.3713  0.5546
 7752TIP3   OH244670   3.048   4.692   5.966 -0.3427 -0.1728 -0.4918
 7752TIP3    H144671   3.061   4.597   5.967  0.6141 -0.0496  0.6544
 7752TIP3    H244672   2.990   4.709   6.041 -1.7051  0.0212 -1.5445
 7753TIP3   OH244673   0.868   1.207  16.396 -0.0533 -0.4058  0.4234
 7753TIP3    H144674   0.943   1.264  16.409 -1.0790  0.7219  1.6613
 7753TIP3    H244675   0.794   1.254  16.435 -1.6177 -1.0292 -1.6175
 7754TIP3   OH244676   4.804   4.171   5.542 -0.0014  0.1650 -0.4477
 7754TIP3    H144677   4.851   4.253   5.531  0.3819  0.1742  1.0720
 7754TIP3    H244678   4.723   4.197   5.587  0.1684 -0.2845  0.1268
 7755TIP3   OH244679   2.485   6.698   1.549 -0.4535 -0.1794 -0.1683
 7755TIP3    H144680   2.413   6.761   1.543  0.3396  0.6614 -1.4360
 7755TIP3    H244681   2.562   6.751   1.567  0.1872 -0.8090 -0.9728
 7756TIP3   OH244682   1.017   5.503  14.254  0.2400  0.1037  0.9185
 7756TIP3    H144683   1.062   5.426  14.221 -1.0957 -0.6147  0.7097
 7756TIP3    H244684   1.070   5.531  14.329  0.0560 -1.8245  1.8408
 7757TIP3   OH244685   3.009   3.061   1.024 -0.2075  0.4454 -0.1658
 7757TIP3    H144686   3.094   3.032   0.992  0.1422  0.0416  1.1035
 7757TIP3    H244687   3.027   3.139   1.076 -0.5144 -0.0804  0.7397
 7758TIP3   OH244688   0.109   3.373   2.384 -0.5534 -0.1185  0.2170
 7758TIP3    H144689   0.155   3.415   2.311 -1.0098 -0.3003 -0.1858
 7758TIP3    H244690   0.170   3.308   2.417 -0.0401  0.5057  0.5058
 7759TIP3   OH244691   5.044   1.789   2.883  0.3604  0.0765 -0.4981
 7759TIP3    H144692   4.956   1.757   2.901  0.1301  1.1207  0.3036
 7759TIP3    H244693   5.068   1.839   2.961 -0.1330  3.6680 -2.4482
 7760TIP3   OH244694   5.287   2.295   5.729 -0.3097 -0.1975  0.6142
 7760TIP3    H144695   5.372   2.336   5.742 -0.2309 -0.6924  1.7660
 7760TIP3    H244696   5.224   2.363   5.752 -0.2712  0.3813 -0.8548
 7761TIP3   OH244697   5.152   6.457  11.597 -0.1565 -0.2433 -0.4126
 7761TIP3    H144698   5.165   6.509  11.676 -1.7517  2.1337 -1.5695
 7761TIP3    H244699   5.125   6.371  11.629  1.4814 -0.0900  1.5991
 7762TIP3   OH244700   3.963   5.589   1.615  0.1797  0.0061 -0.1656
 7762TIP3    H144701   4.040   5.533   1.626 -0.5057 -1.2529 -1.4001
 7762TIP3    H244702   3.908   5.568   1.691  0.0392 -0.8470 -0.4881
 7763TIP3   OH244703   5.765   4.878  14.874  0.2202  0.3522  0.5297
 7763TIP3    H144704   5.806   4.812  14.819 -0.0082 -0.3276  1.1557
 7763TIP3    H244705   5.736   4.830  14.951 -0.0596  1.1646  0.9437
 7764TIP3   OH244706   6.098   5.434  15.819  0.5682  0.2194  0.7463
 7764TIP3    H144707   6.069   5.496  15.752 -0.1606 -1.8881 -1.0081
 7764TIP3    H244708   6.187   5.462  15.840  0.3249  1.7475 -0.0934
 7765TIP3   OH244709   6.187   5.686   0.265 -0.2590  0.4478  0.2162
 7765TIP3    H144710   6.257   5.691   0.331 -0.6972  1.4287  0.6111
 7765TIP3    H244711   6.108   5.667   0.315 -0.8871  2.7570  0.2011
 7766TIP3   OH244712   0.556   3.625  15.242  0.0850 -0.3244  0.0808
 7766TIP3    H144713   0.519   3.711  15.260  1.4248 -0.0263  1.6256
 7766TIP3    H244714   0.483   3.564  15.256 -0.3348  0.3983  1.1679
 7767TIP3   OH244715   0.318   5.557  14.140 -0.3250 -0.2289  0.7089
 7767TIP3    H144716   0.269   5.581  14.062 -0.1333  0.9344  0.9215
 7767TIP3    H244717   0.252   5.522  14.200 -0.4194 -1.4393 -0.0819
 7768TIP3   OH244718   3.653   2.540   0.626 -0.2073  0.0774 -0.6368
 7768TIP3    H144719   3.725   2.506   0.573 -1.1105 -0.0509 -1.8181
 7768TIP3    H244720   3.613   2.608   0.573 -0.6970  0.4484  0.1821
 7769TIP3   OH244721   1.579   1.029   0.146  0.5023  0.2417  0.3607
 7769TIP3    H144722   1.595   1.123   0.156 -1.3339  0.3968  2.9016
 7769TIP3    H244723   1.641   0.987   0.206  1.2484 -0.1962 -0.6893
 7770TIP3   OH244724   5.370   0.909  17.058  0.2831  0.0238 -0.1677
 7770TIP3    H144725   5.448   0.915  17.004 -0.2223  3.8659 -0.7591
 7770TIP3    H244726   5.401   0.876  17.142  2.5784  1.4010 -0.3986
 7771TIP3   OH244727   1.874   4.201  15.069  0.3275 -0.2303  0.2428
 7771TIP3    H144728   1.905   4.227  14.982  1.2835 -0.7557  0.4207
 7771TIP3    H244729   1.819   4.275  15.097  0.6166  0.2790 -0.4901
 7772TIP3   OH244730   3.047   3.610   2.214 -0.5111 -0.0111 -0.4182
 7772TIP3    H144731   3.062   3.691   2.263 -1.2173  0.8090 -1.5162
 7772TIP3    H244732   3.131   3.592   2.171 -0.6600  0.7683 -1.0568
 7773TIP3   OH244733   0.330   5.689   4.176  0.2777 -0.0937  0.0080
 7773TIP3    H144734   0.395   5.655   4.114  2.0494  1.0822  1.1134
 7773TIP3    H244735   0.252   5.637   4.159  1.7227 -2.1461 -0.8683
 7774TIP3   OH244736   6.562   0.927  13.016  0.6501 -0.7248 -0.2569
 7774TIP3    H144737   6.496   0.858  13.013 -0.1134  0.0333 -1.8556
 7774TIP3    H244738   6.613   0.907  13.095  0.3658 -2.9963 -0.5719
 7775TIP3   OH244739   6.152   2.468  12.073  0.0538 -0.4787 -0.5682
 7775TIP3    H144740   6.214   2.479  12.001 -0.2901  0.1580 -0.7748
 7775TIP3    H244741   6.076   2.521  12.048 -0.2723 -0.6498  0.0310
 7776TIP3   OH244742   0.275   2.577  16.999 -0.0012 -0.3847  0.1469
 7776TIP3    H144743   0.200   2.568  16.940  0.0748  0.4191 -0.0869
 7776TIP3    H244744   0.239   2.565  17.086 -0.1134 -1.6200 -0.0458
 7777TIP3   OH244745   0.085   0.014  12.530 -0.4391 -0.4032  0.2519
 7777TIP3    H144746   0.076  -0.072  12.489  0.6906  0.4633 -1.9621
 7777TIP3    H244747   0.112   0.072  12.459 -2.4516  2.1000  1.3664
 7778TIP3   OH244748   2.144   3.231  12.095 -0.0251  0.1576 -0.2715
 7778TIP3    H144749   2.201   3.244  12.172 -1.1314  1.4789  0.3604
 7778TIP3    H244750   2.178   3.151  12.055  1.6803  0.3719  0.6097
 7779TIP3   OH244751   1.545   6.505  14.180  0.8192  0.0955  0.0389
 7779TIP3    H144752   1.582   6.555  14.253 -0.3830  0.5899  0.3365
 7779TIP3    H244753   1.477   6.562  14.144  1.2122 -0.2621 -1.3092
 7780TIP3   OH244754   1.229   1.140  12.767 -0.4420  0.2984 -0.0117
 7780TIP3    H144755   1.196   1.168  12.682 -1.0862 -2.3222 -0.7028
 7780TIP3    H244756   1.308   1.193  12.781 -1.0480  1.6888 -1.6018
 7781TIP3   OH244757   1.816   5.549  14.521 -0.4858  0.2692  0.1115
 7781TIP3    H144758   1.837   5.638  14.491 -2.1433  1.0130  1.0341
 7781TIP3    H244759   1.804   5.499  14.440 -1.2582  1.3316 -0.4617
 7782TIP3   OH244760   0.644   5.742  13.857 -0.0063 -1.1132  0.0154
 7782TIP3    H144761   0.595   5.737  13.774  2.6727  0.7217 -1.8771
 7782TIP3    H244762   0.585   5.790  13.916 -0.9592  0.0339 -1.7608
 7783TIP3   OH244763   2.812   4.028   0.898 -0.1381  0.1386  0.2532
 7783TIP3    H144764   2.813   4.083   0.819 -0.2182  0.4440  0.4605
 7783TIP3    H244765   2.801   3.939   0.865  3.2898 -0.1925 -0.3265
 7784TIP3   OH244766   6.397   0.507  17.005 -0.6009 -0.4210 -0.2268
 7784TIP3    H144767   6.442   0.558  17.073 -1.5931  0.8913 -0.5056
 7784TIP3    H244768   6.339   0.448  17.054 -0.8118  0.0381  0.0906
 7785TIP3   OH244769   5.659   2.894  14.796  0.9423 -0.6249  0.7091
 7785TIP3    H144770   5.741   2.942  14.790 -0.0254  0.9293 -0.9682
 7785TIP3    H244771   5.624   2.894  14.707 -0.8114 -1.3841  1.3436
 7786TIP3   OH244772   1.892   3.112  16.323 -0.0523 -0.5988 -0.4035
 7786TIP3    H144773   1.817   3.137  16.268  0.2999 -1.7260 -1.4476
 7786TIP3    H244774   1.880   3.161  16.404 -0.7935  0.8534 -1.3423
 7787TIP3   OH244775   6.015   2.684   2.697 -0.3582  0.4230 -0.0163
 7787TIP3    H144776   5.934   2.635   2.687  0.6111 -1.2283 -0.1946
 7787TIP3    H244777   6.048   2.660   2.784 -0.2916  1.4568  0.2567
 7788TIP3   OH244778   4.491   5.258  14.882 -0.2153 -0.3744 -0.3476
 7788TIP3    H144779   4.539   5.338  14.905 -1.1049  0.1049 -0.0968
 7788TIP3    H244780   4.498   5.202  14.959  0.4983 -0.5879 -0.5615
 7789TIP3   OH244781   0.880   2.149   1.642 -0.0378 -0.4247  0.0113
 7789TIP3    H144782   0.867   2.084   1.712 -0.1549 -0.1792  0.2201
 7789TIP3    H244783   0.962   2.123   1.600  0.4357 -0.1331  0.7338
 7790TIP3   OH244784   1.715   1.272   4.500 -0.2196  0.8930  0.5711
 7790TIP3    H144785   1.695   1.300   4.411 -2.0858 -0.4169  0.5195
 7790TIP3    H244786   1.808   1.248   4.497 -0.5219 -0.2539 -1.3445
 7791TIP3   OH244787   0.604   2.653  11.295 -0.6182 -0.3181  0.4898
 7791TIP3    H144788   0.580   2.745  11.295  0.8114  0.0779  0.3319
 7791TIP3    H244789   0.544   2.612  11.358 -1.0966  0.7529  0.7469
 7792TIP3   OH244790   0.874   6.468   1.052 -0.1226 -0.2445 -0.3497
 7792TIP3    H144791   0.894   6.538   0.990 -2.7974  2.3537  1.4620
 7792TIP3    H244792   0.944   6.474   1.117  1.6818 -1.7999 -2.0061
 7793TIP3   OH244793   1.544   6.320  15.991  1.4232 -0.0884 -0.4726
 7793TIP3    H144794   1.507   6.388  15.935  0.4404 -0.4241 -0.2481
 7793TIP3    H244795   1.585   6.258  15.930 -0.3499 -0.8764 -0.9128
 7794TIP3   OH244796   4.474   4.647   2.569  0.0228  0.0234 -0.5124
 7794TIP3    H144797   4.545   4.710   2.567  0.4210 -0.4222 -0.4824
 7794TIP3    H244798   4.396   4.698   2.545 -0.2993  1.3712  2.7827
 7795TIP3   OH244799   1.665   4.391   4.229 -0.7033  0.5590 -0.0480
 7795TIP3    H144800   1.704   4.347   4.305  0.7377  2.6729  0.5319
 7795TIP3    H244801   1.593   4.443   4.265  0.5834  2.3254  0.1143
 7796TIP3   OH244802   3.515   1.109  13.623 -0.1796 -0.0896 -0.2772
 7796TIP3    H144803   3.453   1.037  13.613 -1.6480  1.2312 -1.1961
 7796TIP3    H244804   3.588   1.085  13.565  0.0301 -1.4774  0.5104
 7797TIP3   OH244805   6.484   3.627  11.280 -0.4282  0.3520  0.2027
 7797TIP3    H144806   6.488   3.619  11.375 -0.9045 -1.1874  0.1102
 7797TIP3    H244807   6.534   3.707  11.261  3.2270 -1.4237  1.4137
 7798TIP3   OH244808   4.890   0.871  12.208 -0.2165  0.0463  0.2625
 7798TIP3    H144809   4.916   0.790  12.253  0.7980 -0.0905 -0.5465
 7798TIP3    H244810   4.929   0.864  12.121 -0.2243  1.3650  0.1385
 7799TIP3   OH244811   1.524   0.615  15.121 -0.3521 -0.4838  0.0176
 7799TIP3    H144812   1.441   0.653  15.093 -0.0835  0.2744  0.2247
 7799TIP3    H244813   1.543   0.656  15.205  0.1462 -0.7819  0.0594
 7800TIP3   OH244814   4.782   5.132   1.845 -0.2682 -0.4740 -0.6834
 7800TIP3    H144815   4.868   5.175   1.838 -0.8359  0.8337  0.0126
 7800TIP3    H244816   4.773   5.083   1.763  0.5569  0.4608 -1.3551
 7801TIP3   OH244817   5.045   4.249  11.558  0.0462  0.2418 -0.1017
 7801TIP3    H144818   5.047   4.342  11.538 -0.0802  0.1250 -0.6811
 7801TIP3    H244819   4.973   4.215  11.505  0.4808 -0.2913 -0.3591
 7802TIP3   OH244820   1.673   3.965  12.061 -0.5317  0.4291 -0.1622
 7802TIP3    H144821   1.753   4.000  12.100  0.7361 -0.1530 -2.0970
 7802TIP3    H244822   1.602   4.015  12.101  0.8947  1.9741  0.5339
 7803TIP3   OH244823   5.696   2.028   4.574  0.1362 -0.1954  0.1849
 7803TIP3    H144824   5.737   2.072   4.500 -0.1989 -0.9231 -0.4428
 7803TIP3    H244825   5.635   2.093   4.610  0.1438  0.0880 -0.3095
 7804TIP3   OH244826   0.948   4.182  13.662  0.3660 -0.1084 -0.5468
 7804TIP3    H144827   0.943   4.264  13.615  1.2735  0.0738 -0.3453
 7804TIP3    H244828   0.857   4.160  13.682  0.1348  1.0119 -0.3110
 7805TIP3   OH244829   5.597   5.587  16.215 -0.0168  0.6623  0.3391
 7805TIP3    H144830   5.692   5.580  16.215 -0.0517  0.1516  0.9075
 7805TIP3    H244831   5.577   5.634  16.134  0.7572  1.3675  0.5448
 7806TIP3   OH244832   1.032   2.207  11.419 -0.4454 -0.0545 -0.0455
 7806TIP3    H144833   0.974   2.165  11.482 -0.2060 -1.1715 -0.5390
 7806TIP3    H244834   1.050   2.294  11.456 -2.8041  0.5222 -0.1212
 7807TIP3   OH244835   0.591   2.117  14.058  0.2361  0.4369 -0.7180
 7807TIP3    H144836   0.589   2.022  14.072 -1.0948  0.4412 -0.7335
 7807TIP3    H244837   0.638   2.151  14.135  0.0024 -0.1716 -0.2942
 7808TIP3   OH244838   1.288   6.564  15.105  0.3416 -0.1496  0.3745
 7808TIP3    H144839   1.198   6.597  15.100  0.3444 -0.1600  0.2357
 7808TIP3    H244840   1.332   6.623  15.166  0.5282  0.5281 -0.4059
 7809TIP3   OH244841   5.358   0.081   2.637  0.2026  0.3056 -0.2781
 7809TIP3    H144842   5.310   0.041   2.710 -1.9191  2.5998 -0.2542
 7809TIP3    H244843   5.369   0.011   2.574  0.7772 -1.3887  1.5949
 7810TIP3   OH244844   0.665   1.167   6.134 -0.3865 -0.0830  0.1279
 7810TIP3    H144845   0.608   1.243   6.126 -0.5114 -0.3323 -1.9145
 7810TIP3    H244846   0.736   1.196   6.191 -0.8985  1.2538  0.1158
 7811TIP3   OH244847   0.997   4.424  16.870 -0.4282  0.1189 -0.2985
 7811TIP3    H144848   0.977   4.503  16.919  0.3549 -0.7006  1.4235
 7811TIP3    H244849   1.088   4.403  16.894 -0.5698 -1.2198 -0.8204
 7812TIP3   OH244850   2.250   0.986   2.850  0.4003  0.1557  0.2539
 7812TIP3    H144851   2.172   1.034   2.879 -1.3739 -1.3935 -1.6181
 7812TIP3    H244852   2.254   0.911   2.909 -0.7533 -0.8043 -0.8364
 7813TIP3   OH244853   4.747   5.367  11.398  0.1602  0.2641  0.1095
 7813TIP3    H144854   4.658   5.376  11.433 -0.2648 -1.5865 -0.4120
 7813TIP3    H244855   4.738   5.307  11.325  2.2780 -2.5361  1.9722
 7814TIP3   OH244856   5.135   3.748  14.314  0.1106 -0.4065 -0.4780
 7814TIP3    H144857   5.151   3.836  14.349 -0.7858  0.2786 -1.7079
 7814TIP3    H244858   5.222   3.712  14.298  0.5282 -0.3330  1.3799
 7815TIP3   OH244859   5.971   6.742  14.830  0.1695 -0.0752 -0.9119
 7815TIP3    H144860   5.978   6.673  14.763  0.8376 -1.8359  0.8666
 7815TIP3    H244861   6.053   6.791  14.821  0.3991 -0.4938 -1.1741
 7816TIP3   OH244862   5.578   3.297  14.731 -0.0701  0.4834 -0.0232
 7816TIP3    H144863   5.536   3.383  14.733 -0.3190  0.4195 -1.3789
 7816TIP3    H244864   5.569   3.269  14.640  3.3196  0.6877 -0.5612
 7817TIP3   OH244865   3.457   1.170   0.359  0.0739 -0.1793 -0.2969
 7817TIP3    H144866   3.502   1.216   0.430  0.7752 -0.4086 -0.5828
 7817TIP3    H244867   3.503   1.197   0.280  0.9634 -1.8915 -0.4162
 7818TIP3   OH244868   3.974   5.782  13.919 -0.0208 -0.6599 -0.7846
 7818TIP3    H144869   3.998   5.796  13.827  1.5784  0.2058 -0.2780
 7818TIP3    H244870   4.056   5.789  13.967 -0.9694  0.0652  0.8451
 7819TIP3   OH244871   4.601   6.353  14.331 -0.3187  0.0309 -0.0395
 7819TIP3    H144872   4.580   6.261  14.316 -2.3923  0.8685 -3.2358
 7819TIP3    H244873   4.536   6.383  14.394  1.3163 -0.9039  2.2515
 7820TIP3   OH244874   5.205   1.922  15.240  0.3532 -0.1335  0.1750
 7820TIP3    H144875   5.189   1.834  15.207  0.3115 -0.0414 -0.0559
 7820TIP3    H244876   5.126   1.971  15.217 -0.1464 -0.3409  1.4070
 7821TIP3   OH244877   1.752   6.662   2.429  0.0276 -0.3491 -0.2156
 7821TIP3    H144878   1.727   6.739   2.481  0.3046 -0.1388 -0.3893
 7821TIP3    H244879   1.670   6.619   2.408 -0.1112 -0.2543  0.1225
 7822TIP3   OH244880   1.291   5.004  11.932 -0.0303 -0.1761  0.2809
 7822TIP3    H144881   1.233   5.075  11.961  0.3997  0.4485 -0.3459
 7822TIP3    H244882   1.337   5.040  11.856  1.1847 -0.6517  0.7655
 7823TIP3   OH244883   2.796   0.733   4.146  0.3804 -0.2906  0.4997
 7823TIP3    H144884   2.764   0.647   4.171  0.3125 -0.8196 -1.2880
 7823TIP3    H244885   2.789   0.735   4.050  1.3649  1.3046  0.4186
 7824TIP3   OH244886   3.559   0.323  13.385  0.0396 -0.3223  0.1205
 7824TIP3    H144887   3.581   0.411  13.355  1.9050 -0.2919  1.3823
 7824TIP3    H244888   3.466   0.327  13.406  0.0243  1.2792 -0.1134
 7825TIP3   OH244889   1.883   4.369   6.293 -0.5942  0.0750 -0.5522
 7825TIP3    H144890   1.809   4.307   6.299 -0.3787 -0.5822 -3.3601
 7825TIP3    H244891   1.850   4.449   6.332 -1.8109 -1.0279  0.7917
 7826TIP3   OH244892   1.209   4.205  15.485 -0.0272  0.5709 -0.2753
 7826TIP3    H144893   1.206   4.166  15.397 -0.3149  2.1902 -1.0235
 7826TIP3    H244894   1.152   4.149  15.538 -0.6147  0.1115 -1.3578
 7827TIP3   OH244895   1.477   0.561  14.481 -0.0545  0.4275 -0.4547
 7827TIP3    H144896   1.464   0.510  14.561 -1.0399 -0.3772 -1.1165
 7827TIP3    H244897   1.568   0.591  14.487  0.7894 -1.9469 -0.3540
 7828TIP3   OH244898   4.418   6.283  13.458 -0.1881  0.1442 -1.0758
 7828TIP3    H144899   4.395   6.374  13.441  0.4364  0.1790 -1.8016
 7828TIP3    H244900   4.407   6.272  13.552 -1.8752  0.5060 -1.2080
 7829TIP3   OH244901   6.733   3.613  15.540  0.3279  0.1140  0.2653
 7829TIP3    H144902   6.749   3.705  15.520 -1.2527  0.5492  0.8548
 7829TIP3    H244903   6.638   3.605  15.543  0.4234 -1.0685  2.2743
 7830TIP3   OH244904   5.130   3.376  13.566  0.3211  0.4410  0.4052
 7830TIP3    H144905   5.170   3.453  13.526  1.3487 -0.4871 -0.4209
 7830TIP3    H244906   5.122   3.399  13.659 -1.2879  2.2926 -0.1341
 7831TIP3   OH244907   5.341   2.740  16.078 -0.1708  0.2581 -0.3726
 7831TIP3    H144908   5.270   2.686  16.112  0.0441 -0.1746 -0.5993
 7831TIP3    H244909   5.393   2.680  16.025  1.2614  0.1543  1.0465
 7832TIP3   OH244910   1.391   2.044   4.288 -0.0839  0.6141 -0.3314
 7832TIP3    H144911   1.381   1.967   4.345 -0.4073  1.0464  0.1968
 7832TIP3    H244912   1.333   2.026   4.214 -0.5172  0.5506  0.0145
 7833TIP3   OH244913   4.160   1.275  15.131  0.2519 -0.1468  0.2309
 7833TIP3    H144914   4.214   1.301  15.057 -1.4300 -3.5968 -2.4796
 7833TIP3    H244915   4.122   1.191  15.106 -2.5256 -0.3026  3.9667
 7834TIP3   OH244916   3.187   5.259   4.512  0.1300  0.9775  0.1205
 7834TIP3    H144917   3.243   5.335   4.528 -0.5387  1.4911  0.0530
 7834TIP3    H244918   3.229   5.188   4.561  1.3788  1.1051 -0.6971
 7835TIP3   OH244919   1.290   2.449   0.978  0.5107  0.1729  0.5046
 7835TIP3    H144920   1.234   2.518   0.944  0.7308 -0.4119 -1.1462
 7835TIP3    H244921   1.315   2.398   0.901  1.3130 -1.0436  1.5181
 7836TIP3   OH244922   2.066   0.693  10.197  0.1858 -0.4571 -0.6018
 7836TIP3    H144923   2.061   0.639  10.118 -1.3353  0.5823 -1.2910
 7836TIP3    H244924   2.104   0.637  10.263 -1.6570 -2.5172 -1.1746
 7837TIP3   OH244925   5.728   5.127   5.439  0.4049  0.3033  0.4892
 7837TIP3    H144926   5.652   5.177   5.469 -0.0968  0.4125 -0.8713
 7837TIP3    H244927   5.801   5.159   5.491  0.1375  2.5747 -0.4050
 7838TIP3   OH244928   6.300   2.738  15.664 -0.0078  0.1376  0.2370
 7838TIP3    H144929   6.337   2.673  15.723  0.2614  0.6397  0.6292
 7838TIP3    H244930   6.205   2.724  15.670  0.0656 -0.4559  0.0377
 7839TIP3   OH244931   1.123   5.101   0.655 -0.4725 -0.3697  0.4763
 7839TIP3    H144932   1.085   5.094   0.743 -0.9643  0.7158  0.3566
 7839TIP3    H244933   1.218   5.098   0.670 -0.5395  0.3396  1.0914
 7840TIP3   OH244934   0.581   2.234  16.999 -0.7308 -0.1079  0.1740
 7840TIP3    H144935   0.643   2.161  17.005  0.5058  0.9891  1.5589
 7840TIP3    H244936   0.525   2.212  16.925  2.0107 -0.6581 -1.8823
 7841TIP3   OH244937   4.770   6.694   4.510  0.3223  0.2461  0.4159
 7841TIP3    H144938   4.762   6.719   4.418 -1.3296  0.4402  0.5839
 7841TIP3    H244939   4.719   6.759   4.558  1.1410  0.1331  1.4783
 7842TIP3   OH244940   1.485   2.301   1.971 -0.0047  0.0267 -0.0107
 7842TIP3    H144941   1.576   2.325   1.955  0.0132  0.1591  0.2898
 7842TIP3    H244942   1.486   2.206   1.977 -0.2586 -0.2004 -2.4323
 7843TIP3   OH244943   4.071   3.828   4.636  0.0263 -0.4476 -0.7562
 7843TIP3    H144944   4.106   3.891   4.573 -0.0189 -0.6407 -0.9741
 7843TIP3    H244945   4.100   3.861   4.721 -1.4488  0.8360 -0.7151
 7844TIP3   OH244946   1.400   0.035   3.771 -0.8039 -0.2252 -0.0188
 7844TIP3    H144947   1.484   0.061   3.733 -1.9218  2.3612 -0.9616
 7844TIP3    H244948   1.416   0.032   3.866  0.7777 -1.6707 -0.3039
 7845TIP3   OH244949   4.447   6.497  17.093  0.1442 -0.0148  0.1993
 7845TIP3    H144950   4.442   6.489  17.189  0.9409 -1.7182  0.1389
 7845TIP3    H244951   4.411   6.584  17.075 -2.2571 -0.5455  1.8385
 7846TIP3   OH244952   2.130   1.193  11.928 -0.1653  0.3368  0.0584
 7846TIP3    H144953   2.209   1.145  11.901 -0.9351 -1.8342  1.4420
 7846TIP3    H244954   2.161   1.255  11.994  0.9025  2.1175 -1.9890
 7847TIP3   OH244955   3.230   3.094   5.084 -0.2753  0.5567 -0.1882
 7847TIP3    H144956   3.251   3.008   5.047  0.9714  0.4134  0.8032
 7847TIP3    H244957   3.139   3.108   5.060 -0.2304 -0.6259 -1.1702
 7848TIP3   OH244958   3.909   3.896   2.528  0.2407  0.2041  0.3607
 7848TIP3    H144959   3.848   3.961   2.563  1.1571  1.2032  0.1579
 7848TIP3    H244960   3.995   3.939   2.531  0.4903  0.0696 -2.3223
 7849TIP3   OH244961   2.979   3.842   6.246 -0.1014  0.6669 -0.4540
 7849TIP3    H144962   2.984   3.937   6.258 -1.3438  0.7058 -0.1046
 7849TIP3    H244963   2.918   3.813   6.314 -0.7665 -0.2008 -1.4033
 7850TIP3   OH244964   6.699   2.688   0.071  0.6128 -0.5606  0.0794
 7850TIP3    H144965   6.715   2.695  -0.023  0.7481 -0.3540  0.1182
 7850TIP3    H244966   6.703   2.778   0.103  1.1931 -0.6960  0.3896
 7851TIP3   OH244967   3.734   4.984  17.043  0.4469 -0.4893 -0.1665
 7851TIP3    H144968   3.819   4.941  17.037  0.3248 -1.4581  2.9993
 7851TIP3    H244969   3.721   5.024  16.957  1.6173 -4.7902 -2.6246
 7852TIP3   OH244970   3.792   1.673   0.080  0.5692 -0.2765  0.1345
 7852TIP3    H144971   3.870   1.633   0.121 -0.4403 -0.1846  2.2669
 7852TIP3    H244972   3.720   1.646   0.136 -0.3307  3.6986  1.1574
 7853TIP3   OH244973   5.481   2.290   2.519 -0.1141  0.4323  0.2259
 7853TIP3    H144974   5.567   2.303   2.478  0.7243  1.3697  2.1536
 7853TIP3    H244975   5.501   2.263   2.609 -1.8765 -1.2831  0.1895
 7854TIP3   OH244976   0.642   1.428  14.296  0.6087 -0.1686  0.1421
 7854TIP3    H144977   0.557   1.464  14.323 -0.6319 -1.0438 -2.3327
 7854TIP3    H244978   0.640   1.430  14.200  3.1848 -0.7289  0.0080
 7855TIP3   OH244979   1.711   5.015   3.248  0.6483  0.3214 -0.1669
 7855TIP3    H144980   1.638   5.044   3.302  0.8900  1.0800 -0.2299
 7855TIP3    H244981   1.686   4.927   3.218 -0.1601  0.5049 -0.0548
 7856TIP3   OH244982   4.894   4.077   0.598  0.1367 -0.1485  0.4056
 7856TIP3    H144983   4.873   4.017   0.670 -0.7303  0.3836  0.6042
 7856TIP3    H244984   4.920   4.158   0.642 -2.1082  0.7735  0.1612
 7857TIP3   OH244985   4.883   3.556   4.994 -0.0353 -0.4785  0.2449
 7857TIP3    H144986   4.920   3.548   4.906 -0.0745  1.6872 -0.0136
 7857TIP3    H244987   4.868   3.465   5.021  0.9436 -1.2415 -1.5505
 7858TIP3   OH244988   4.202   3.023   3.846 -0.0516  0.4421 -0.4797
 7858TIP3    H144989   4.196   3.106   3.799 -0.3565  0.6474 -0.0808
 7858TIP3    H244990   4.205   2.957   3.777  2.1843  0.8716 -0.8733
 7859TIP3   OH244991   4.590   3.377  15.218 -0.2265  0.0390  0.7910
 7859TIP3    H144992   4.557   3.333  15.139 -0.2785 -1.3014  1.5382
 7859TIP3    H244993   4.675   3.337  15.234  0.5291  1.4496  0.5258
 7860TIP3   OH244994   6.395   0.247  10.424 -0.9295 -0.7080 -0.4867
 7860TIP3    H144995   6.446   0.214  10.498  0.0387  0.4540 -0.5921
 7860TIP3    H244996   6.345   0.172  10.393  0.8024 -1.9361 -0.4149
 7861TIP3   OH244997   3.544   4.995   0.146  0.7591  0.0349 -0.4567
 7861TIP3    H144998   3.619   4.998   0.086  0.6825  1.2533 -0.5232
 7861TIP3    H244999   3.472   5.034   0.097  0.3344 -0.2108 -0.0404
 7862TIP3   OH245000   5.519   3.586   3.872 -0.0657  0.6910 -0.4172
 7862TIP3    H145001   5.472   3.527   3.930 -0.4856  1.0921 -0.3468
 7862TIP3    H245002   5.548   3.658   3.928  1.9903 -0.2828 -0.1315
 7863TIP3   OH245003   4.205   5.315  12.462 -0.3792  0.3027  0.2038
 7863TIP3    H145004   4.144   5.269  12.520 -1.0083  0.5091 -0.2716
 7863TIP3    H245005   4.213   5.258  12.385  0.8315 -0.2017  0.6846
 7864TIP3   OH245006   1.491   3.618  15.386 -0.4050  0.2807  0.2867
 7864TIP3    H145007   1.579   3.650  15.407 -0.3366 -0.6266  1.4806
 7864TIP3    H245008   1.433   3.668  15.443 -0.1504 -2.7579  3.5577
 7865TIP3   OH245009   0.124   3.340   5.074  0.0371 -0.1660 -0.1916
 7865TIP3    H145010   0.103   3.427   5.041  0.1467  0.5127  1.4232
 7865TIP3    H245011   0.220   3.339   5.080  0.1628 -1.0689 -1.8744
 7866TIP3   OH245012   1.890   2.526   3.438  0.2373  0.0675  0.0184
 7866TIP3    H145013   1.922   2.578   3.364 -1.2856 -0.1040 -0.8122
 7866TIP3    H245014   1.875   2.591   3.507 -0.1212  0.5212 -0.4722
 7867TIP3   OH245015   4.212   1.193   4.270  0.3350 -0.3691  0.2328
 7867TIP3    H145016   4.257   1.140   4.205 -0.1763 -2.3884  1.4453
 7867TIP3    H245017   4.139   1.233   4.221  1.8767  0.8952 -1.1446
 7868TIP3   OH245018   1.394   6.421   5.141  0.2852 -0.2115 -0.1668
 7868TIP3    H145019   1.402   6.333   5.177  0.9979 -0.5108 -1.0125
 7868TIP3    H245020   1.391   6.408   5.046 -1.5924  0.5448 -0.2704
 7869TIP3   OH245021   0.240   5.705  15.877 -0.0751  0.4657 -0.0439
 7869TIP3    H145022   0.318   5.668  15.919 -0.2011  0.1876 -0.0525
 7869TIP3    H245023   0.231   5.792  15.915  0.0508  0.3727  0.2000
 7870TIP3   OH245024   6.113   0.689  13.297 -0.1315 -0.0145  0.1005
 7870TIP3    H145025   6.123   0.665  13.390  1.1234 -2.1897 -0.5209
 7870TIP3    H245026   6.046   0.629  13.265  0.6646 -0.4683 -0.7588
 7871TIP3   OH245027   1.542   5.352  13.130  0.1731  0.2211  0.9332
 7871TIP3    H145028   1.538   5.385  13.040  1.0635 -3.3534 -0.5841
 7871TIP3    H245029   1.635   5.350  13.151 -0.0072  0.6320  1.8362
 7872TIP3   OH245030   5.495   1.937  11.129 -0.5678  0.6993 -0.4296
 7872TIP3    H145031   5.404   1.916  11.109 -0.5017 -1.9843  1.5154
 7872TIP3    H245032   5.545   1.867  11.088  0.8587  2.8172 -2.5894
 7873TIP3   OH245033   5.406   2.444   1.690 -0.0770 -0.1996 -0.2329
 7873TIP3    H145034   5.451   2.486   1.763  1.0195  0.0484 -1.0297
 7873TIP3    H245035   5.351   2.377   1.731 -0.9638  1.1912  0.9674
 7874TIP3   OH245036   0.875   5.598  16.379  0.2185  0.1904  0.3766
 7874TIP3    H145037   0.919   5.601  16.294 -2.4413  0.2184 -1.1079
 7874TIP3    H245038   0.793   5.646  16.366 -0.0174  0.7648  3.1760
 7875TIP3   OH245039   6.188   5.847   2.189 -0.0329  0.1784  0.0568
 7875TIP3    H145040   6.100   5.876   2.163 -0.2456 -0.4594  0.0542
 7875TIP3    H245041   6.211   5.903   2.263 -0.5225  0.2232  0.1788
 7876TIP3   OH245042   1.852   1.246  13.599 -0.7534 -0.0910  0.7922
 7876TIP3    H145043   1.853   1.338  13.623 -0.5868 -0.2577  1.4416
 7876TIP3    H245044   1.943   1.217  13.611 -0.5975 -0.1170 -0.3140
 7877TIP3   OH245045   5.112   2.881   0.108  0.6872 -0.5801 -0.3921
 7877TIP3    H145046   5.108   2.876   0.204 -0.2350 -3.0579 -0.4856
 7877TIP3    H245047   5.158   2.801   0.083  1.0269  0.1034 -2.0320
 7878TIP3   OH245048   3.701   0.285  16.101  0.5849 -0.5822 -0.1888
 7878TIP3    H145049   3.639   0.332  16.157  2.2935 -0.2756  1.5593
 7878TIP3    H245050   3.676   0.193  16.109 -0.7799 -0.3121 -1.0389
 7879TIP3   OH245051   1.833   3.275   4.555 -0.2548  0.2974  0.4509
 7879TIP3    H145052   1.813   3.239   4.469  1.4208 -0.5099  0.3525
 7879TIP3    H245053   1.757   3.252   4.609 -2.1986  2.4400 -1.1844
 7880TIP3   OH245054   5.706   2.316   4.395  0.4828  0.0800  0.1896
 7880TIP3    H145055   5.751   2.367   4.462  0.4123  0.9162 -0.3930
 7880TIP3    H245056   5.777   2.273   4.347  0.8268  2.3962 -1.5445
 7881TIP3   OH245057   3.803   1.007   1.782  0.2355  0.2689 -0.1683
 7881TIP3    H145058   3.805   0.956   1.863  1.7238  1.5155  0.6255
 7881TIP3    H245059   3.854   0.954   1.720 -1.1769 -0.8429 -0.4337
 7882TIP3   OH245060   1.130   2.918  14.583 -0.0131 -0.8986  0.2567
 7882TIP3    H145061   1.077   2.963  14.516 -0.3342 -0.4647  0.7974
 7882TIP3    H245062   1.206   2.975  14.595 -0.2344 -0.6829  0.6672
 7883TIP3   OH245063   3.618   3.769  12.392 -0.6593  0.0431 -0.2435
 7883TIP3    H145064   3.659   3.851  12.419 -0.2139 -0.6911  1.4489
 7883TIP3    H245065   3.530   3.794  12.363 -0.4008  1.1481 -0.1085
 7884TIP3   OH245066   0.721   0.689   2.716  0.2376  0.1973 -0.1605
 7884TIP3    H145067   0.769   0.671   2.635  0.8951 -0.8491  0.4356
 7884TIP3    H245068   0.709   0.603   2.756 -0.9946  0.5909  0.3501
 7885TIP3   OH245069   3.649   2.207  12.305  0.0274  0.0415 -0.1093
 7885TIP3    H145070   3.681   2.123  12.274  1.3338  0.0830  1.0642
 7885TIP3    H245071   3.689   2.271  12.246 -0.4157 -0.0982 -0.5718
 7886TIP3   OH245072   1.330   4.922  15.055 -0.3569  0.0669  0.0100
 7886TIP3    H145073   1.425   4.927  15.070 -0.3697 -1.0772  0.5476
 7886TIP3    H245074   1.310   5.000  15.004  1.0134 -0.0870 -0.8152
 7887TIP3   OH245075   4.356   5.495  10.516 -0.1612  0.0594 -0.1359
 7887TIP3    H145076   4.305   5.426  10.558  0.1768 -0.5022 -0.6287
 7887TIP3    H245077   4.385   5.551  10.588  0.1651 -0.7194  0.3465
 7888TIP3   OH245078   0.285   6.705  13.330  0.0427  0.5108  0.0679
 7888TIP3    H145079   0.210   6.669  13.282  0.5432 -2.1341  1.0705
 7888TIP3    H245080   0.249   6.775  13.384 -1.5750 -0.2419 -0.0041
 7889TIP3   OH245081   2.097   0.669  11.214 -0.2308 -0.0632  0.2394
 7889TIP3    H145082   2.178   0.651  11.261  1.1957  0.7794 -1.7301
 7889TIP3    H245083   2.045   0.722  11.274  1.3825  0.7672  0.9622
 7890TIP3   OH245084   1.972   1.569  15.973 -0.0074 -0.4208 -0.5089
 7890TIP3    H145085   2.003   1.630  16.040 -0.3539  0.0203 -0.7468
 7890TIP3    H245086   1.894   1.611  15.936  0.1610 -0.6735 -1.1682
 7891TIP3   OH245087   5.129   2.683   1.901 -0.0630  0.1808 -0.4694
 7891TIP3    H145088   5.119   2.618   1.831 -2.5830  0.3286 -0.3551
 7891TIP3    H245089   5.215   2.722   1.885  0.3791 -1.3019 -2.1472
 7892TIP3   OH245090   5.999   5.335   0.497 -0.0506  0.3699  0.1863
 7892TIP3    H145091   5.927   5.288   0.455  1.1421  0.2932 -1.9018
 7892TIP3    H245092   5.991   5.425   0.466 -0.0931  0.7113  1.1451
 7893TIP3   OH245093   3.553   4.495   1.417 -0.4413  0.5327  0.2742
 7893TIP3    H145094   3.479   4.439   1.441  0.0271 -0.2636 -0.1118
 7893TIP3    H245095   3.514   4.565   1.365 -1.2825  1.5448  2.1405
 7894TIP3   OH245096   3.156   0.899  15.339  0.4168 -0.1399 -0.3080
 7894TIP3    H145097   3.145   0.983  15.384 -1.0585 -0.5789  0.2209
 7894TIP3    H245098   3.171   0.922  15.248  1.4424  0.7189  0.0613
 7895TIP3   OH245099   3.114   2.446   1.091 -0.3605  0.7459  0.6710
 7895TIP3    H145100   3.030   2.402   1.088 -0.0539  0.1417  0.7242
 7895TIP3    H245101   3.104   2.514   1.157 -1.4913  2.1590 -0.8515
 7896TIP3   OH245102   2.751   0.147   3.620  0.4708  0.2183 -0.1225
 7896TIP3    H145103   2.821   0.146   3.685  0.8634 -0.1233 -0.5397
 7896TIP3    H245104   2.794   0.174   3.539 -0.0043  0.6018 -0.2526
 7897TIP3   OH245105   3.930   2.201  12.474  0.2473 -0.3360  0.2605
 7897TIP3    H145106   3.844   2.165  12.453 -0.8209  1.1978  1.7132
 7897TIP3    H245107   3.950   2.260  12.402 -0.5929  0.3497  0.5743
 7898TIP3   OH245108   6.296   0.456  16.198 -0.1220  0.3181  0.6412
 7898TIP3    H145109   6.320   0.536  16.151 -1.9110  0.0388 -0.8846
 7898TIP3    H245110   6.201   0.451  16.188 -0.0879 -1.8088  1.0099
 7899TIP3   OH245111   1.881   6.730   2.796  0.0759  0.3950 -0.1216
 7899TIP3    H145112   1.895   6.670   2.723 -0.5966  0.8467 -0.6397
 7899TIP3    H245113   1.803   6.697   2.840  1.2502 -0.6714  1.2435
 7900TIP3   OH245114   2.884   0.403   1.981  0.0410 -0.4278  0.6328
 7900TIP3    H145115   2.821   0.466   2.014  0.9722  0.9335 -0.0889
 7900TIP3    H245116   2.944   0.387   2.054 -0.3075 -0.6416  0.8756
 7901TIP3   OH245117   4.665   2.807  15.003  0.1503  0.1435 -0.6902
 7901TIP3    H145118   4.735   2.872  14.990  0.6946 -0.4457 -0.7430
 7901TIP3    H245119   4.696   2.752  15.075 -0.0050 -0.4583 -1.0757
 7902TIP3   OH245120   4.228   2.766   1.863 -0.4323  0.1703 -0.2041
 7902TIP3    H145121   4.235   2.679   1.825 -0.0297 -0.1073  0.4913
 7902TIP3    H245122   4.317   2.802   1.856 -0.6493  0.6300 -0.7165
 7903TIP3   OH245123   1.928   2.970   3.297 -0.5635 -0.1042 -0.5479
 7903TIP3    H145124   1.868   2.974   3.222  1.0837 -0.5720 -1.9478
 7903TIP3    H245125   1.954   3.061   3.312  1.4857 -0.2444 -2.6367
 7904TIP3   OH245126   1.529   5.390   0.361 -0.7089 -0.1307  0.8150
 7904TIP3    H145127   1.472   5.433   0.297  0.9765  1.4182  0.2942
 7904TIP3    H245128   1.509   5.297   0.351 -0.5521  0.0506 -1.9615
 7905TIP3   OH245129   1.319   0.608   0.855 -0.2282 -0.7911  0.3257
 7905TIP3    H145130   1.392   0.669   0.852  0.3197 -1.2079  3.0636
 7905TIP3    H245131   1.260   0.644   0.922 -1.5657 -1.5111 -0.4152
 7906TIP3   OH245132   3.184   3.431  13.116 -0.1541 -0.7985  0.2576
 7906TIP3    H145133   3.116   3.439  13.048  0.5392 -0.1404 -0.3701
 7906TIP3    H245134   3.265   3.418  13.068  0.6146  1.3932  0.8744
 7907TIP3   OH245135   2.694   5.975   4.206 -0.0781 -0.3692 -0.4709
 7907TIP3    H145136   2.603   6.005   4.201  0.5876  1.8520 -0.3970
 7907TIP3    H245137   2.731   6.023   4.280  1.0504 -1.5574 -0.2373
 7908TIP3   OH245138   4.037   6.587  16.644 -0.1157 -0.3054  0.4922
 7908TIP3    H145139   4.073   6.676  16.651 -1.2829  0.1538  0.8231
 7908TIP3    H245140   4.034   6.570  16.550 -0.2051  0.1361  0.4135
 7909TIP3   OH245141   4.345   1.394  12.082  0.3177 -0.0464 -0.0029
 7909TIP3    H145142   4.353   1.483  12.047 -1.3154  0.0127 -0.3116
 7909TIP3    H245143   4.332   1.339  12.005  2.0279 -0.6732  0.1329
 7910TIP3   OH245144   2.213   4.929  11.615 -0.3900 -0.2248 -0.1095
 7910TIP3    H145145   2.174   5.017  11.619  0.8945  0.3447  0.4827
 7910TIP3    H245146   2.236   4.908  11.705 -0.3383 -1.0192 -0.2978
 7911TIP3   OH245147   2.218   0.667   1.505 -0.3428 -0.3237 -0.3029
 7911TIP3    H145148   2.176   0.679   1.419  0.3967 -0.7108 -0.7317
 7911TIP3    H245149   2.149   0.684   1.568 -0.8227  0.3017 -0.9750
 7912TIP3   OH245150   4.554   3.270  12.234 -0.5307 -0.6109 -0.5785
 7912TIP3    H145151   4.568   3.254  12.141  1.1198 -2.9341 -0.0389
 7912TIP3    H245152   4.635   3.310  12.264 -0.9912 -0.0198 -0.0957
 7913TIP3   OH245153   1.072   2.761   3.637  0.1867 -0.6766 -0.5297
 7913TIP3    H145154   1.081   2.783   3.730 -2.1405 -3.3590  0.4783
 7913TIP3    H245155   1.135   2.691   3.623  1.7993  0.8904 -1.5451
 7914TIP3   OH245156   4.739   5.257  16.645  0.2727 -0.0887 -0.0760
 7914TIP3    H145157   4.726   5.196  16.573 -0.5940 -0.4329  0.3556
 7914TIP3    H245158   4.674   5.231  16.710 -1.8100  2.7821 -0.8245
 7915TIP3   OH245159   0.358   0.436  12.068 -0.4955  0.4563  0.2487
 7915TIP3    H145160   0.347   0.526  12.037 -1.6882  0.6906  1.2590
 7915TIP3    H245161   0.379   0.445  12.161 -0.6538 -0.3131  0.3663
 7916TIP3   OH245162   2.591   0.770  14.312  0.2212  0.2613 -0.1999
 7916TIP3    H145163   2.660   0.780  14.246  0.4373 -1.5238 -0.2734
 7916TIP3    H245164   2.515   0.740  14.263 -0.7392  2.4093 -0.1504
 7917TIP3   OH245165   1.294   2.610  11.259 -0.1130 -0.1032  0.1535
 7917TIP3    H145166   1.353   2.657  11.201  1.3773  1.0308  2.4423
 7917TIP3    H245167   1.276   2.671  11.330  0.4262 -2.3207  2.3368
 7918TIP3   OH245168   2.195   1.100   5.999  0.2404  0.8179  0.7780
 7918TIP3    H145169   2.132   1.113   6.070 -0.5929  0.2793  0.1455
 7918TIP3    H245170   2.222   1.008   6.008  0.5539  0.9033  0.7292
 7919TIP3   OH245171   1.976   6.622   1.727  0.4910  0.1245 -0.1124
 7919TIP3    H145172   2.034   6.653   1.657  0.0209  0.0583 -0.5349
 7919TIP3    H245173   2.035   6.578   1.789  0.6747 -1.8263 -1.5743
 7920TIP3   OH245174   4.103   1.189   6.588 -0.3978 -0.2486 -0.5125
 7920TIP3    H145175   4.184   1.149   6.555  0.0654  0.1808  0.0726
 7920TIP3    H245176   4.034   1.128   6.562  0.5318 -3.2854  3.1885
 7921TIP3   OH245177   3.764   4.863   0.765 -0.2177  0.1292 -0.7252
 7921TIP3    H145178   3.680   4.910   0.765 -0.7219 -0.7256 -1.9042
 7921TIP3    H245179   3.826   4.926   0.802 -1.3703  0.7697  0.2024
 7922TIP3   OH245180   3.244   5.293  17.073  0.7566 -0.9111 -0.0558
 7922TIP3    H145181   3.321   5.301  17.016  1.2338  0.3541  0.7151
 7922TIP3    H245182   3.255   5.363  17.137  1.0238 -3.1216  2.5284
 7923TIP3   OH245183   4.069   3.139  12.881 -0.1364  0.3001 -0.3029
 7923TIP3    H145184   4.080   3.112  12.790  1.2228  2.0509 -0.7392
 7923TIP3    H245185   3.976   3.126  12.900 -0.4044 -0.2553 -1.8912
 7924TIP3   OH245186   3.202   4.395   1.941 -0.3046  0.6588 -0.1150
 7924TIP3    H145187   3.154   4.383   1.859  0.9567 -0.3776 -0.7476
 7924TIP3    H245188   3.291   4.366   1.921  0.3567  1.6257  1.2734
 7925TIP3   OH245189   0.386   3.701   3.785 -0.4458 -0.4403 -0.4178
 7925TIP3    H145190   0.420   3.666   3.703  0.5599 -0.6047  0.0563
 7925TIP3    H245191   0.457   3.687   3.848 -0.9503  0.2830  0.3247
 7926TIP3   OH245192   5.684   5.040  13.824  0.0177  0.3495 -0.1377
 7926TIP3    H145193   5.640   5.002  13.748 -0.6570 -0.1025  0.4652
 7926TIP3    H245194   5.659   5.132  13.823 -1.8760 -0.1055  0.8056
 7927TIP3   OH245195   0.017   5.174  11.666  0.4550  0.6339 -0.5295
 7927TIP3    H145196  -0.065   5.207  11.629  0.4738  2.6895  1.0716
 7927TIP3    H245197   0.043   5.103  11.607 -1.8676  0.6700 -1.7231
 7928TIP3   OH245198   3.302   5.552  14.255 -0.1497  0.5479  0.4061
 7928TIP3    H145199   3.333   5.602  14.180 -0.9128 -0.8864 -0.9059
 7928TIP3    H245200   3.226   5.600  14.287 -0.0093  0.9882  0.0853
 7929TIP3   OH245201   0.878   5.010  12.116 -0.0888  0.0793 -0.0424
 7929TIP3    H145202   0.897   5.032  12.024  0.2210  2.1025  0.4610
 7929TIP3    H245203   0.787   4.981  12.115 -0.6326  1.6941 -0.7850
 7930TIP3   OH245204   0.936   1.446  11.788 -0.8763  0.2655 -0.2608
 7930TIP3    H145205   1.025   1.430  11.821 -0.4291  0.2048 -1.4418
 7930TIP3    H245206   0.948   1.458  11.694 -2.1938 -0.2844 -0.5158
 7931TIP3   OH245207   0.882   3.717  15.969 -0.2850 -0.1931 -0.1004
 7931TIP3    H145208   0.969   3.690  15.940  0.1454  3.1084 -2.3365
 7931TIP3    H245209   0.890   3.722  16.065  1.2535 -2.0401 -0.0705
 7932TIP3   OH245210   4.204   3.514   3.874 -0.2176  0.2033 -0.4283
 7932TIP3    H145211   4.265   3.454   3.917 -0.5315  0.0489 -0.1973
 7932TIP3    H245212   4.124   3.508   3.926  0.1561  1.8214  0.4140
 7933TIP3   OH245213   1.219   5.839  12.083 -0.2487 -0.2057  0.1057
 7933TIP3    H145214   1.278   5.832  12.157 -0.2828  0.4656  0.2043
 7933TIP3    H245215   1.234   5.927  12.049 -0.6492 -0.3013 -0.3282
 7934TIP3   OH245216   3.617   0.508  15.256  0.4720  0.3238 -0.3438
 7934TIP3    H145217   3.547   0.538  15.198 -0.6531  1.1532  1.3873
 7934TIP3    H245218   3.663   0.587  15.282  0.1064  0.1319  0.9546
 7935TIP3   OH245219   0.264   0.935   5.636  0.1995  0.5592  0.1700
 7935TIP3    H145220   0.168   0.938   5.640  0.2214  0.0609  2.1049
 7935TIP3    H245221   0.292   0.951   5.726  1.8084 -3.1153  0.5126
 7936TIP3   OH245222   5.368   3.066  11.819  0.0039  0.2712 -0.0163
 7936TIP3    H145223   5.375   3.027  11.733  1.0465 -2.0255  1.0232
 7936TIP3    H245224   5.436   3.022  11.871 -2.1815 -0.2957  2.6147
 7937TIP3   OH245225   0.963   5.071   2.654 -0.0234  0.0602  0.4083
 7937TIP3    H145226   0.911   4.992   2.645  0.1704  0.0502 -0.8622
 7937TIP3    H245227   1.031   5.049   2.718  0.4313 -1.0335 -0.4271
 7938TIP3   OH245228   2.602   3.518  14.486 -0.7628 -0.4546 -0.3661
 7938TIP3    H145229   2.521   3.495  14.442 -1.6836  0.6155  0.7105
 7938TIP3    H245230   2.612   3.453  14.555 -2.0006  0.7778  1.0268
 7939TIP3   OH245231   6.334   2.341   4.717  0.1846 -0.4326 -0.5342
 7939TIP3    H145232   6.350   2.311   4.628  0.0856  0.6767 -0.9393
 7939TIP3    H245233   6.348   2.263   4.771  0.8239 -0.9849 -1.4545
 7940TIP3   OH245234   0.169   0.462  16.567  0.1546 -0.6693  0.1524
 7940TIP3    H145235   0.131   0.549  16.577  0.9199 -0.2117 -0.7898
 7940TIP3    H245236   0.263   0.478  16.559  0.5922 -1.7596  2.3527
 7941TIP3   OH245237   4.614   2.451  15.983  0.2923  0.0645  0.1046
 7941TIP3    H145238   4.527   2.425  15.953  0.0319  0.5699  0.4190
 7941TIP3    H245239   4.674   2.398  15.931 -0.2352 -1.4608  0.9754
 7942TIP3   OH245240   0.388   3.789   6.449 -0.1380 -0.0577  0.4437
 7942TIP3    H145241   0.470   3.752   6.480  0.0292  0.4528  0.6230
 7942TIP3    H245242   0.365   3.736   6.373  1.0745  0.6455 -0.4587
 7943TIP3   OH245243   2.842   6.121  11.717  0.4099 -0.2551  0.3958
 7943TIP3    H145244   2.892   6.157  11.644  0.2874  0.5252  0.6897
 7943TIP3    H245245   2.903   6.060  11.760  0.1999 -1.3934 -0.8551
 7944TIP3   OH245246   0.506   2.857   6.323 -0.4599 -0.2653 -0.1550
 7944TIP3    H145247   0.433   2.901   6.367 -1.9888 -2.2031 -0.5780
 7944TIP3    H245248   0.578   2.861   6.385 -0.6818  2.2537  0.0282
 7945TIP3   OH245249   2.932   2.991  15.385 -0.3542  0.7502 -0.4306
 7945TIP3    H145250   2.845   3.016  15.354  0.5375  2.4570 -1.7597
 7945TIP3    H245251   2.988   3.065  15.361  1.5443 -0.4705  0.0020
 7946TIP3   OH245252   5.253   4.099   5.996  0.4230  0.4697  0.0195
 7946TIP3    H145253   5.171   4.107   6.046  1.7318 -1.6111  2.7739
 7946TIP3    H245254   5.228   4.053   5.916 -0.9887 -1.0522  1.2723
 7947TIP3   OH245255   5.988   6.298   3.729  0.4371 -0.0632 -0.1279
 7947TIP3    H145256   5.906   6.340   3.702  0.5284  0.7222  0.7593
 7947TIP3    H245257   5.981   6.208   3.697 -0.9960 -0.1515  0.3678
 7948TIP3   OH245258   4.877   0.407   3.440 -0.3450  0.6643 -0.1522
 7948TIP3    H145259   4.968   0.434   3.423 -0.2198  0.4157  0.1170
 7948TIP3    H245260   4.839   0.396   3.353  0.2221 -0.3416 -0.2912
 7949TIP3   OH245261   0.963   2.204  16.867  0.3518 -0.7334  0.5831
 7949TIP3    H145262   1.055   2.184  16.887  0.6040 -1.5626 -1.1986
 7949TIP3    H245263   0.963   2.295  16.840  0.9785 -1.1959 -1.0752
 7950TIP3   OH245264   5.929   3.432  12.941 -0.3019 -0.4659 -0.0192
 7950TIP3    H145265   5.942   3.509  12.996 -4.6695  1.1310 -0.7564
 7950TIP3    H245266   5.883   3.370  12.997 -1.1613 -0.4807 -0.7143
 7951TIP3   OH245267   5.588   0.034  14.037 -0.0050 -0.0430  0.0664
 7951TIP3    H145268   5.515   0.014  13.979 -0.3458 -0.8204  0.7500
 7951TIP3    H245269   5.655  -0.030  14.014  2.3876  3.3547 -3.7562
 7952TIP3   OH245270   4.120   0.355  14.528  0.2421 -0.3450  0.5873
 7952TIP3    H145271   4.134   0.325  14.438  2.7942 -0.7350  1.0306
 7952TIP3    H245272   4.153   0.445  14.528 -2.6608  0.8195  0.4749
 7953TIP3   OH245273   4.229   2.073  16.318  0.5323  0.0906  0.0841
 7953TIP3    H145274   4.225   2.017  16.395  0.6265  1.4073  1.0891
 7953TIP3    H245275   4.227   2.013  16.244  0.1485 -1.1973  1.1032
 7954TIP3   OH245276   2.932   0.151  10.912 -0.0462  0.1526  0.1620
 7954TIP3    H145277   3.005   0.212  10.905  1.3003 -1.0594  2.4011
 7954TIP3    H245278   2.962   0.073  10.866  0.2246 -0.4389  1.3060
 7955TIP3   OH245279   4.506   1.217  15.126 -0.3248  0.0977 -0.0975
 7955TIP3    H145280   4.522   1.297  15.176 -0.3698 -0.0606  0.1794
 7955TIP3    H245281   4.474   1.154  15.192 -1.5187  0.2329 -0.5155
 7956TIP3   OH245282   3.860   5.399   2.899  0.2686 -0.2891  0.2637
 7956TIP3    H145283   3.942   5.429   2.858  1.5716 -1.8477  1.5826
 7956TIP3    H245284   3.848   5.458   2.974  1.5034 -1.4408  1.4275
 7957TIP3   OH245285   6.209   2.966   4.672  0.2650  0.0335 -0.2896
 7957TIP3    H145286   6.237   3.055   4.652  0.5991  0.0715  0.3343
 7957TIP3    H245287   6.115   2.974   4.690  0.1572  0.1468 -0.9033
 7958TIP3   OH245288   6.418   6.586  14.299 -0.5436 -0.3723 -0.3444
 7958TIP3    H145289   6.457   6.564  14.383  1.2967 -3.4040 -1.7964
 7958TIP3    H245290   6.351   6.519  14.285 -0.6036 -0.1235 -1.3745
 7959TIP3   OH245291   5.389   0.618   0.870  0.6120 -0.0139  0.0950
 7959TIP3    H145292   5.435   0.694   0.906  1.9302 -0.8577  0.2784
 7959TIP3    H245293   5.395   0.552   0.939  0.5828 -0.6893 -0.5393
 7960TIP3   OH245294   3.692   6.615  12.716  0.7714  0.3382  0.0637
 7960TIP3    H145295   3.598   6.617  12.731  0.9009  0.7584  0.8532
 7960TIP3    H245296   3.708   6.528  12.679  0.0455  0.3623 -0.3189
 7961TIP3   OH245297   0.915   5.169  15.200  0.1368 -0.0237 -0.2411
 7961TIP3    H145298   0.912   5.230  15.126  0.2218 -1.2972 -1.3386
 7961TIP3    H245299   0.930   5.083  15.159  4.9870 -0.2867  1.4521
 7962TIP3   OH245300   4.509   0.557  16.500  0.5584  0.2149 -0.1020
 7962TIP3    H145301   4.424   0.547  16.458  0.0401  1.5161  0.5790
 7962TIP3    H245302   4.545   0.637  16.463 -0.4034  2.0452  2.6196
 7963TIP3   OH245303   6.330   5.875   1.826 -0.1879  0.4540 -0.3303
 7963TIP3    H145304   6.349   5.835   1.910 -0.4766  0.2824 -0.3471
 7963TIP3    H245305   6.389   5.950   1.821  0.0577  0.2770 -0.1171
 7964TIP3   OH245306   6.716   1.925  10.542  0.2210 -0.7515 -0.1891
 7964TIP3    H145307   6.779   1.856  10.518  1.4899  0.3563 -0.1811
 7964TIP3    H245308   6.693   1.966  10.459 -0.9333 -1.4702 -0.2537
 7965TIP3   OH245309   2.322   0.258   5.367 -0.0253  0.0067  0.2827
 7965TIP3    H145310   2.293   0.211   5.445 -0.3484 -1.7232 -0.8237
 7965TIP3    H245311   2.242   0.289   5.326  0.0550 -0.1872 -0.0219
 7966TIP3   OH245312   1.197   1.583   4.348 -0.5370  0.3533  0.2327
 7966TIP3    H145313   1.186   1.511   4.285 -0.9776 -0.5020  1.2550
 7966TIP3    H245314   1.210   1.539   4.432 -0.6065  1.4758  0.8461
 7967TIP3   OH245315   0.911   3.766   3.884 -0.6246  0.6474 -0.1226
 7967TIP3    H145316   1.005   3.754   3.868 -0.8957 -1.1837 -0.6735
 7967TIP3    H245317   0.869   3.702   3.826 -2.1493  0.5436  1.0177
 7968TIP3   OH245318   2.316   1.169  13.712 -0.1954 -0.0621  0.8104
 7968TIP3    H145319   2.349   1.231  13.777 -0.5287  0.5952  0.3540
 7968TIP3    H245320   2.307   1.087  13.761  3.2689 -0.6606  0.7283
 7969TIP3   OH245321   2.350   4.518  17.085  0.8920 -0.3005  0.6023
 7969TIP3    H145322   2.287   4.557  17.025  0.5500  4.1935  3.4850
 7969TIP3    H245323   2.436   4.543  17.049  0.8599 -0.8374  0.1263
 7970TIP3   OH245324   0.651   1.524   1.965 -0.4486 -0.2238 -0.4278
 7970TIP3    H145325   0.614   1.556   2.047 -0.0697 -0.1627 -0.2769
 7970TIP3    H245326   0.679   1.603   1.919  0.1664 -0.3093 -0.2104
 7971TIP3   OH245327   0.899   1.902   1.791 -0.3902 -0.4552 -0.0094
 7971TIP3    H145328   0.872   1.960   1.861  0.3057 -1.9593  1.5794
 7971TIP3    H245329   0.833   1.833   1.788 -0.0321 -0.7986 -0.3212
 7972TIP3   OH245330   6.403   5.681  13.797  0.5254  0.0703  0.1699
 7972TIP3    H145331   6.382   5.600  13.843  2.2629 -0.0765  0.7670
 7972TIP3    H245332   6.477   5.659  13.740  2.1192  1.5605  1.5388
 7973TIP3   OH245333   1.616   0.788  14.848 -0.3115  0.3726 -0.3092
 7973TIP3    H145334   1.603   0.843  14.771 -0.1713 -0.9636 -1.3186
 7973TIP3    H245335   1.567   0.832  14.917 -0.1802  1.7654 -1.0626
 7974TIP3   OH245336   3.886   0.637   5.283  0.4384  0.7013 -0.4126
 7974TIP3    H145337   3.971   0.627   5.325 -0.0758  1.1616  0.7853
 7974TIP3    H245338   3.868   0.551   5.245  1.4268  0.5991 -0.6833
 7975TIP3   OH245339   1.832   4.036   0.614 -0.0861 -0.7229 -0.3120
 7975TIP3    H145340   1.836   4.052   0.708 -1.6144  0.0233 -0.3419
 7975TIP3    H245341   1.868   4.116   0.574 -1.3439 -0.1599 -0.3656
 7976TIP3   OH245342   2.734   3.078   4.221  0.0809 -0.3251 -0.4368
 7976TIP3    H145343   2.700   3.104   4.306  1.5847 -0.5553  0.2651
 7976TIP3    H245344   2.675   3.009   4.191 -0.5176 -0.1673  0.3580
 7977TIP3   OH245345   4.012   2.212   2.069 -0.3507 -0.0703 -0.0989
 7977TIP3    H145346   3.924   2.250   2.065 -0.3342  0.2063  1.6278
 7977TIP3    H245347   4.015   2.152   1.994 -1.2034  1.5444 -1.5169
 7978TIP3   OH245348   5.007   5.654   1.680 -0.0603  0.0398 -0.1592
 7978TIP3    H145349   5.020   5.746   1.655  0.5995 -0.0324 -0.0787
 7978TIP3    H245350   4.915   5.650   1.705  0.3499  1.1311  1.7215
 7979TIP3   OH245351   1.109   4.862  12.526  0.0250  0.0596 -0.4566
 7979TIP3    H145352   1.070   4.781  12.493 -1.2232  0.3152  0.2970
 7979TIP3    H245353   1.152   4.835  12.608  0.5457 -0.0374 -0.7627
 7980TIP3   OH245354   6.645   5.748  11.293 -0.0084  0.3296  0.1196
 7980TIP3    H145355   6.707   5.785  11.230  1.0209 -1.1721  0.1982
 7980TIP3    H245356   6.588   5.822  11.316  2.0500  1.9179  0.4298
 7981TIP3   OH245357   0.535   6.560  14.054  0.1954  0.3849 -0.4883
 7981TIP3    H145358   0.513   6.579  14.145  3.4368  2.2631  0.0545
 7981TIP3    H245359   0.552   6.466  14.053 -1.1923  0.0893  0.4767
 7982TIP3   OH245360   6.502   4.413   5.217 -0.4414  0.3612  0.3687
 7982TIP3    H145361   6.576   4.457   5.175 -1.7883  0.4970 -1.9677
 7982TIP3    H245362   6.515   4.320   5.198 -0.8408  0.3830 -0.0287
 7983TIP3   OH245363   6.313   3.615   5.118  0.1267  0.1039 -0.9154
 7983TIP3    H145364   6.257   3.651   5.049 -0.4981  1.4020  0.2158
 7983TIP3    H245365   6.293   3.668   5.195  2.0876 -0.1403 -0.1719
 7984TIP3   OH245366   2.567   1.542  14.121 -0.0315 -0.0095 -0.0428
 7984TIP3    H145367   2.558   1.526  14.214  0.6668 -2.3886 -0.3191
 7984TIP3    H245368   2.534   1.631  14.108 -3.4413 -0.8364  1.9211
 7985TIP3   OH245369   4.136   0.495  12.943  0.4006  0.4774 -0.3840
 7985TIP3    H145370   4.156   0.466  12.854 -0.2333  0.4847 -0.5321
 7985TIP3    H245371   4.176   0.429  12.999  0.2447  0.1219 -0.6865
 7986TIP3   OH245372   5.897   4.187  12.312  0.5428 -0.0374 -0.1060
 7986TIP3    H145373   5.808   4.189  12.277  0.6362  2.4745 -0.3381
 7986TIP3    H245374   5.950   4.151  12.240 -0.1936 -1.2654 -0.0663
 7987TIP3   OH245375   3.691   2.322   3.753 -0.1607  0.0730 -0.0364
 7987TIP3    H145376   3.664   2.408   3.721  1.2481  0.1221 -1.1909
 7987TIP3    H245377   3.748   2.340   3.828 -0.3545  0.1158  0.1009
 7988TIP3   OH245378   6.615   6.442   3.213  0.5198 -0.3373  0.5071
 7988TIP3    H145379   6.600   6.510   3.148  0.4531 -0.5778  0.2678
 7988TIP3    H245380   6.529   6.426   3.252  0.4184 -0.7055  0.1409
 7989TIP3   OH245381   5.354   2.980   0.357  0.5985 -0.4067  0.1013
 7989TIP3    H145382   5.340   3.072   0.336 -0.7354 -0.2192  1.6422
 7989TIP3    H245383   5.267   2.941   0.356  1.0844 -1.5451 -0.0003
 7990TIP3   OH245384   1.653   3.687  16.863  0.5340  0.7068 -0.1414
 7990TIP3    H145385   1.669   3.780  16.844 -2.2825  1.3241  0.0098
 7990TIP3    H245386   1.615   3.653  16.783  1.4120 -0.3258 -0.1406
 7991TIP3   OH245387   3.796   5.842  12.511  0.4954  0.0477 -0.1957
 7991TIP3    H145388   3.873   5.820  12.460  1.1271 -0.4070  0.9138
 7991TIP3    H245389   3.806   5.793  12.593 -0.6866  0.4176  0.2050
 7992TIP3   OH245390   5.627   4.840  16.433 -0.6779  0.1269 -0.1604
 7992TIP3    H145391   5.662   4.929  16.441 -0.5913  0.1682 -0.8817
 7992TIP3    H245392   5.700   4.788  16.400 -1.0446  0.0354 -0.8556
 7993TIP3   OH245393   0.934   1.869   6.288 -0.5074 -0.3299  0.5495
 7993TIP3    H145394   0.962   1.826   6.369 -0.2767  0.1490  0.7268
 7993TIP3    H245395   0.839   1.859   6.287 -0.6025  0.4734  1.3436
 7994TIP3   OH245396   5.363   3.668  11.603 -0.2592  0.6488 -0.2921
 7994TIP3    H145397   5.314   3.648  11.683  0.2343 -0.3234 -0.2168
 7994TIP3    H245398   5.321   3.747  11.568 -0.9759  0.6357  0.5127
 7995TIP3   OH245399   2.339   4.004  13.263  0.1034 -0.2285  0.0530
 7995TIP3    H145400   2.273   3.983  13.197 -1.3929  0.9713  1.1183
 7995TIP3    H245401   2.381   3.920  13.283 -2.9021 -1.5675  1.2457
 7996TIP3   OH245402   0.844   5.922  14.321  0.2148  0.2629  0.2307
 7996TIP3    H145403   0.857   6.017  14.325 -0.9538  0.5369 -1.3938
 7996TIP3    H245404   0.858   5.900  14.229  0.7040 -1.1923  0.6342
 7997TIP3   OH245405   4.888   3.822  14.515  0.1139  0.8480 -0.1905
 7997TIP3    H145406   4.941   3.893  14.478  1.0943  0.9527  1.3052
 7997TIP3    H245407   4.805   3.864  14.538 -0.3138  0.8924 -1.7069
 7998TIP3   OH245408   0.309   1.538  12.957  0.9023  0.2468  0.7187
 7998TIP3    H145409   0.239   1.577  13.009  0.8876 -1.9778  2.5519
 7998TIP3    H245410   0.264   1.478  12.898  1.1605 -0.9390  1.6701
 7999TIP3   OH245411   0.062   5.561  14.648  0.1452  0.1365  0.1626
 7999TIP3    H145412  -0.016   5.560  14.592  0.8710  0.4225 -0.8710
 7999TIP3    H245413   0.133   5.587  14.590  0.8906  0.6288  1.2652
 8000TIP3   OH245414   4.703   6.167  12.495  0.3595  0.3011 -0.3541
 8000TIP3    H145415   4.610   6.145  12.490  0.2164  0.8813 -0.3446
 8000TIP3    H245416   4.748   6.083  12.488 -0.1891 -0.1154  0.9542
 8001TIP3   OH245417   3.545   4.399   4.378  0.0445 -0.1898 -0.2724
 8001TIP3    H145418   3.491   4.442   4.444  1.1288 -0.6373  0.9298
 8001TIP3    H245419   3.539   4.306   4.398  0.3589 -0.3355 -0.8357
 8002TIP3   OH245420   4.284   1.426  11.653  0.1114  0.7303 -0.3466
 8002TIP3    H145421   4.323   1.511  11.669 -1.4539  1.3088  0.6032
 8002TIP3    H245422   4.222   1.440  11.581  0.1415  0.3097 -0.4590
 8003TIP3   OH245423   3.821   1.180  14.372  0.4463 -0.1004 -0.0379
 8003TIP3    H145424   3.855   1.113  14.432  0.6095 -0.4400 -0.5029
 8003TIP3    H245425   3.806   1.133  14.290  2.4016  0.8185 -0.9672
 8004TIP3   OH245426   0.011   4.917   1.825  0.5216  0.3470 -0.3354
 8004TIP3    H145427   0.081   4.973   1.858  0.6249  1.4757 -2.3107
 8004TIP3    H245428   0.055   4.835   1.802  0.5104 -0.3240  1.7550
 8005TIP3   OH245429   6.475   2.515   1.525 -0.5572 -0.1299 -0.1194
 8005TIP3    H145430   6.489   2.527   1.619  0.1855 -0.4659 -0.1806
 8005TIP3    H245431   6.388   2.476   1.519 -1.1475  1.0818  0.3462
 8006TIP3   OH245432   0.493   1.682  12.635 -0.4940 -0.2410 -0.1490
 8006TIP3    H145433   0.583   1.708  12.615 -0.8103  0.1585 -1.0869
 8006TIP3    H245434   0.492   1.587  12.623  0.0181 -0.3694  0.7468
 8007TIP3   OH245435   4.579   4.903   3.125  0.0989 -0.0644 -0.1141
 8007TIP3    H145436   4.561   4.836   3.191 -2.2285  0.5767 -0.0050
 8007TIP3    H245437   4.647   4.958   3.164 -1.1989  0.2868  1.8138
 8008TIP3   OH245438   0.563   4.787  15.969  0.6293 -0.4249  0.0900
 8008TIP3    H145439   0.557   4.720  15.901 -1.4335  0.0075 -0.2124
 8008TIP3    H245440   0.475   4.792  16.007  1.0692  1.1564  1.0348
 8009TIP3   OH245441   4.803   3.297  14.584 -0.5502 -0.4265 -0.5606
 8009TIP3    H145442   4.873   3.363  14.578 -0.6348 -0.3633 -0.9180
 8009TIP3    H245443   4.843   3.224  14.631 -0.4144 -0.1727 -0.2765
 8010TIP3   OH245444   2.383   0.656  12.384  0.6297  0.1442 -0.2851
 8010TIP3    H145445   2.330   0.576  12.390  0.1617  0.4493 -0.3422
 8010TIP3    H245446   2.450   0.635  12.318  1.4251 -0.7191  0.7590
 8011TIP3   OH245447   4.117   1.222  16.000 -0.4623 -0.0266 -0.0324
 8011TIP3    H145448   4.080   1.138  15.971 -0.1225 -0.0164 -0.5024
 8011TIP3    H245449   4.123   1.274  15.920  2.5921 -0.7958 -0.4140
 8012TIP3   OH245450   6.505   0.855  15.748 -0.3088 -0.5187 -0.3624
 8012TIP3    H145451   6.456   0.925  15.704 -2.3066 -1.3510  0.4555
 8012TIP3    H245452   6.505   0.880  15.840 -1.6418 -1.8759  0.0454
 8013TIP3   OH245453   2.249   4.266   2.031  0.7069  0.4730 -0.1118
 8013TIP3    H145454   2.307   4.309   1.968  0.2350  0.8413 -0.2940
 8013TIP3    H245455   2.308   4.237   2.101  1.2711 -0.1691 -0.8314
 8014TIP3   OH245456   1.173   5.936   0.421 -0.4639 -0.0509 -0.1366
 8014TIP3    H145457   1.091   5.963   0.379 -0.8246  1.5152  1.4409
 8014TIP3    H245458   1.173   5.840   0.413 -2.7207 -0.1485  0.2489
 8015TIP3   OH245459   4.847   0.164  12.945  0.1248 -0.5620  0.4217
 8015TIP3    H145460   4.887   0.163  12.858 -0.7947 -0.3779 -0.0150
 8015TIP3    H245461   4.918   0.139  13.004  0.2239 -2.9194 -0.6051
 8016TIP3   OH245462   2.806   3.843  13.492  0.8054  0.3143  0.0290
 8016TIP3    H145463   2.847   3.795  13.564  4.5486  2.1593 -0.6084
 8016TIP3    H245464   2.843   3.931  13.497 -0.5655  1.1916 -2.7996
 8017TIP3   OH245465   6.027   3.643  14.711 -0.0414 -0.2018 -0.1531
 8017TIP3    H145466   5.962   3.583  14.675 -2.2669  2.1628 -0.4064
 8017TIP3    H245467   6.108   3.593  14.714 -1.9185 -3.4431  0.5011
 8018TIP3   OH245468   4.126   1.815  15.468  0.2041 -0.2068  0.2084
 8018TIP3    H145469   4.089   1.781  15.550  0.2487  0.7181  0.6252
 8018TIP3    H245470   4.052   1.814  15.407 -0.9516  2.7555  1.3655
 8019TIP3   OH245471   3.868   4.392  17.037  0.1014 -0.1401  0.6879
 8019TIP3    H145472   3.945   4.441  17.065  1.1357 -0.8689 -0.7165
 8019TIP3    H245473   3.901   4.304  17.018 -1.6274 -1.3547  2.7856
 8020TIP3   OH245474   0.625   4.014   5.410  0.1463 -0.0998 -0.0859
 8020TIP3    H145475   0.533   4.038   5.408  0.1357 -0.1909 -1.2592
 8020TIP3    H245476   0.659   4.054   5.490 -0.5805  1.1956 -0.4043
 8021TIP3   OH245477   3.425   1.800  17.073 -0.1866 -0.6216  0.2594
 8021TIP3    H145478   3.336   1.811  17.106 -0.6627  0.6296 -1.3351
 8021TIP3    H245479   3.447   1.709  17.096 -2.0762 -1.1439  0.2054
 8022TIP3   OH245480   0.645   0.637   4.887  0.3029  0.0895 -0.2686
 8022TIP3    H145481   0.687   0.691   4.954  0.2505  1.5418 -1.3492
 8022TIP3    H245482   0.712   0.628   4.818 -0.4709  0.7887 -1.1375
 8023TIP3   OH245483   2.376   2.189  10.331  0.5170  0.2811 -0.4596
 8023TIP3    H145484   2.406   2.105  10.298  0.4335  0.0974 -0.0811
 8023TIP3    H245485   2.455   2.241  10.343  0.4136  1.2882 -3.3482
 8024TIP3   OH245486   1.552   2.746   2.386 -1.0581 -0.7435  0.3055
 8024TIP3    H145487   1.645   2.747   2.409 -0.4717 -0.3008 -1.8530
 8024TIP3    H245488   1.507   2.775   2.465  0.8779  1.9765  0.5220
 8025TIP3   OH245489   3.405   4.627  16.838  0.2616 -0.2649 -0.1265
 8025TIP3    H145490   3.313   4.651  16.856  0.4682  0.0156  0.5963
 8025TIP3    H245491   3.446   4.623  16.924  1.1884  0.6736 -0.4924
 8026TIP3   OH245492   0.379   4.322   5.473  0.0730 -0.1788  0.0037
 8026TIP3    H145493   0.363   4.232   5.445  0.2106 -0.1555 -0.1505
 8026TIP3    H245494   0.300   4.346   5.522 -0.2940 -0.1250 -0.6039
 8027TIP3   OH245495   4.024   4.385   1.085 -0.4478  0.0179  0.1866
 8027TIP3    H145496   4.085   4.345   1.146 -1.1501 -0.9708  0.2598
 8027TIP3    H245497   4.074   4.394   1.003 -0.0808 -0.3739  0.3686
 8028TIP3   OH245498   6.689   3.683   5.838  0.3452  0.0687  0.0006
 8028TIP3    H145499   6.642   3.616   5.790 -0.0552 -1.3461  2.2023
 8028TIP3    H245500   6.620   3.730   5.886  0.9020 -0.1890  1.0853
 8029TIP3   OH245501   5.867   0.929   6.190 -0.1985  0.3460 -0.2604
 8029TIP3    H145502   5.951   0.920   6.144 -1.1627  0.9586 -2.2517
 8029TIP3    H245503   5.821   0.848   6.170 -0.0596 -0.0257  0.9023
 8030TIP3   OH245504   1.412   0.262  12.198 -0.0005 -0.0152 -0.7126
 8030TIP3    H145505   1.421   0.195  12.130  1.2680 -0.2034 -0.3854
 8030TIP3    H245506   1.351   0.326  12.161  1.8686  0.7400 -2.7171
 8031TIP3   OH245507   5.369   0.564  16.715 -0.0008  0.0277 -0.2322
 8031TIP3    H145508   5.287   0.600  16.683 -0.7637  1.9884  3.4197
 8031TIP3    H245509   5.416   0.639  16.751  2.0917 -1.4921  0.3970
 8032TIP3   OH245510   4.127   2.493  14.613 -0.0328 -0.1004 -0.5490
 8032TIP3    H145511   4.080   2.571  14.583  0.6005  0.4358 -0.1686
 8032TIP3    H245512   4.110   2.489  14.707 -1.2691 -1.2741 -0.7778
 8033TIP3   OH245513   2.587   2.288  12.771 -0.1623  0.0319 -0.5126
 8033TIP3    H145514   2.565   2.328  12.855 -0.5789 -1.1114 -0.0651
 8033TIP3    H245515   2.678   2.260  12.781 -1.2527 -3.5033  0.9960
 8034TIP3   OH245516   1.336   5.531   2.157  0.2653  0.0590 -0.0331
 8034TIP3    H145517   1.251   5.565   2.184  0.5366  0.2863  0.5360
 8034TIP3    H245518   1.377   5.501   2.238  1.2851  1.1823 -0.1095
 8035TIP3   OH245519   3.532   1.159   5.510  0.2574 -0.1887 -0.0925
 8035TIP3    H145520   3.547   1.249   5.483  0.6730  0.0148  0.7717
 8035TIP3    H245521   3.437   1.148   5.507  0.2265  0.1820 -0.5006
 8036TIP3   OH245522   4.960   3.509  15.668 -0.2695 -0.3002  0.5540
 8036TIP3    H145523   4.886   3.563  15.696  0.7381  0.5684  1.6446
 8036TIP3    H245524   4.935   3.478  15.581 -1.2725  1.1919  0.2660
 8037TIP3   OH245525   2.888   3.676  12.304  0.1122 -0.7520 -0.4952
 8037TIP3    H145526   2.835   3.709  12.377  0.7708  1.8011 -1.0902
 8037TIP3    H245527   2.826   3.630  12.248 -1.3112  1.1750 -0.5959
 8038TIP3   OH245528   4.572   3.049  11.474  0.3185  0.4397  0.3710
 8038TIP3    H145529   4.581   3.129  11.423  1.7540 -0.7460 -1.3957
 8038TIP3    H245530   4.564   2.979  11.408  2.6016 -1.2167  1.6814
 8039TIP3   OH245531   5.852   1.110   5.587  0.4538  0.7135  0.5488
 8039TIP3    H145532   5.921   1.043   5.578  0.6205  0.7128  1.6411
 8039TIP3    H245533   5.897   1.193   5.572  0.8278  0.7517  1.8081
 8040TIP3   OH245534   4.803   6.342  11.068  0.1768 -0.3404 -0.3766
 8040TIP3    H145535   4.795   6.404  11.140  0.9985 -0.1895 -0.4161
 8040TIP3    H245536   4.751   6.380  10.997 -0.5032 -0.4137  0.0747
 8041TIP3   OH245537   1.372   5.737   0.299  0.6381 -0.3462 -0.1673
 8041TIP3    H145538   1.340   5.747   0.209 -0.7133  1.8590  0.5111
 8041TIP3    H245539   1.311   5.674   0.339 -0.3487  0.6408 -0.0810
 8042TIP3   OH245540   0.249   4.170  11.538  0.1305  0.2146 -0.0168
 8042TIP3    H145541   0.288   4.229  11.603 -0.9128  1.2209 -0.2551
 8042TIP3    H245542   0.258   4.083  11.576  0.2420  0.6977  1.1279
 8043TIP3   OH245543   0.752   0.710   4.198  0.0811  0.0090 -0.0809
 8043TIP3    H145544   0.710   0.634   4.238 -0.0763  1.1382  2.1148
 8043TIP3    H245545   0.679   0.766   4.172  0.1779  0.3435  0.3406
 8044TIP3   OH245546   6.453   0.270   4.377  0.1976 -0.0245 -0.3663
 8044TIP3    H145547   6.379   0.210   4.385  0.3343 -0.3658 -1.4318
 8044TIP3    H245548   6.469   0.301   4.466 -2.3081  1.3830 -0.3160
 8045TIP3   OH245549   5.852   4.333  14.900  0.2548 -0.3365  0.8283
 8045TIP3    H145550   5.888   4.350  14.813 -0.6251 -2.1865  0.0529
 8045TIP3    H245551   5.905   4.386  14.959  1.2788  0.4706 -0.7585
 8046TIP3   OH245552   3.357   0.510   0.363  0.1998  0.4756 -0.1431
 8046TIP3    H145553   3.282   0.455   0.342 -0.6080  1.0607  1.0684
 8046TIP3    H245554   3.362   0.574   0.292 -2.1960  2.1620  1.0538
 8047TIP3   OH245555   2.460   1.597   0.778  0.8038  0.3427  0.2639
 8047TIP3    H145556   2.419   1.655   0.713 -2.7503 -3.6741 -1.6449
 8047TIP3    H245557   2.410   1.610   0.858  0.8739  0.7948  0.2331
 8048TIP3   OH245558   1.894   4.548   3.279 -0.6609 -0.3142 -0.0795
 8048TIP3    H145559   1.987   4.569   3.285 -0.5818 -0.5970 -0.2873
 8048TIP3    H245560   1.885   4.463   3.324 -0.9322  0.0271  0.5295
 8049TIP3   OH245561   2.250   0.964  13.881  0.2559  0.6150 -0.1201
 8049TIP3    H145562   2.243   0.871  13.903  1.9783  0.7360  1.1811
 8049TIP3    H245563   2.165   1.001  13.906 -0.1072 -0.4362  0.2901
 8050TIP3   OH245564   1.810   6.431   2.847 -0.3442  0.4536  0.2472
 8050TIP3    H145565   1.744   6.497   2.868  1.2143  2.0157  0.4519
 8050TIP3    H245566   1.820   6.380   2.928 -1.7072 -0.2290  0.0204
 8051TIP3   OH245567   1.969   6.678  10.675 -0.2028 -0.0630 -0.6657
 8051TIP3    H145568   1.914   6.731  10.618  0.7265  1.1841 -0.4478
 8051TIP3    H245569   1.926   6.592  10.677 -3.0801  1.2832  0.8248
 8052TIP3   OH245570   0.447   2.727  13.280 -0.2095 -0.4459  0.0179
 8052TIP3    H145571   0.447   2.642  13.324  0.1918 -0.1158  0.6786
 8052TIP3    H245572   0.416   2.709  13.192 -2.3295 -0.9546  0.7988
 8053TIP3   OH245573   6.560   6.091   4.115 -0.3649  0.0064  0.2615
 8053TIP3    H145574   6.589   6.047   4.195 -2.3546  0.1320  1.0985
 8053TIP3    H245575   6.577   6.184   4.131  2.4236 -0.2035 -0.9028
 8054TIP3   OH245576   1.738   0.900   2.941  0.6520  0.1255  0.3473
 8054TIP3    H145577   1.731   0.962   3.014 -2.5814  0.1486  0.1431
 8054TIP3    H245578   1.779   0.950   2.871 -0.1383  1.4436  0.7960
 8055TIP3   OH245579   3.882   1.830   1.669 -0.2961 -1.1136 -0.1352
 8055TIP3    H145580   3.952   1.770   1.643  0.2375 -0.6386  0.1851
 8055TIP3    H245581   3.826   1.778   1.727  2.1272 -0.3910  3.1097
 8056TIP3   OH245582   0.019   5.141   1.019 -0.1326  0.3519  0.2298
 8056TIP3    H145583  -0.037   5.152   0.942  0.9413  2.1633 -0.3594
 8056TIP3    H245584  -0.010   5.210   1.080  0.4464  0.3212  0.5436
 8057TIP3   OH245585   1.186   6.073  14.463 -0.1756  0.3228  0.7156
 8057TIP3    H145586   1.227   6.120  14.391  1.5940 -0.3935  1.2007
 8057TIP3    H245587   1.255   6.015  14.496 -1.4592 -0.6088  1.8840
 8058TIP3   OH245588   0.355   2.051  15.387 -0.1533  0.4199  0.0646
 8058TIP3    H145589   0.342   2.109  15.462  1.0833  1.4117 -0.4667
 8058TIP3    H245590   0.446   2.063  15.362 -0.4583 -0.1309 -1.4119
 8059TIP3   OH245591   5.920   0.041   0.395 -0.9972  0.4339  0.1248
 8059TIP3    H145592   6.003   0.077   0.425 -0.0937 -0.6202 -1.0036
 8059TIP3    H245593   5.881   0.110   0.341  0.6521 -0.0986 -1.9009
 8060TIP3   OH245594   5.369   3.625   6.091 -0.2633 -0.1583  0.0911
 8060TIP3    H145595   5.434   3.677   6.136 -1.3169  0.0775  1.4202
 8060TIP3    H245596   5.290   3.679   6.091 -0.8116 -0.9296 -0.3395
 8061TIP3   OH245597   2.791   0.069  11.880  0.7791 -0.4034 -0.3874
 8061TIP3    H145598   2.789   0.056  11.785 -0.6240  0.0210 -0.4411
 8061TIP3    H245599   2.783   0.164  11.891 -2.7577 -0.6298  0.1582
 8062TIP3   OH245600   0.086   0.029   2.836 -0.4331  0.1490  0.1354
 8062TIP3    H145601   0.020   0.097   2.819  0.0883  0.7626  0.5100
 8062TIP3    H245602   0.155   0.045   2.772  1.0451  1.8139  1.9873
 8063TIP3   OH245603   0.442   0.791   4.376 -0.0387 -0.3658  0.3322
 8063TIP3    H145604   0.401   0.707   4.352  0.2739 -0.9735  1.8274
 8063TIP3    H245605   0.368   0.849   4.394 -0.2541 -0.8886  1.1486
 8064TIP3   OH245606   5.066   4.081   4.468  1.0100 -0.7905 -0.3173
 8064TIP3    H145607   4.996   4.030   4.509  0.8892 -1.5984 -1.4840
 8064TIP3    H245608   5.086   4.150   4.532  2.1848 -3.0938  2.0155
 8065TIP3   OH245609   6.679   4.375  11.936  0.0785 -0.1803  0.4107
 8065TIP3    H145610   6.667   4.373  11.841 -0.3938  2.4693  0.3401
 8065TIP3    H245611   6.770   4.403  11.948 -0.0881  0.2397  0.7233
 8066TIP3   OH245612   3.496   0.948   3.356 -0.0721  0.0720  0.2799
 8066TIP3    H145613   3.403   0.971   3.367 -0.0975  0.4064 -0.5888
 8066TIP3    H245614   3.542   1.032   3.365 -0.0251  0.2283 -1.2773
 8067TIP3   OH245615   6.198   6.418   3.559 -0.7252  0.1625  0.5065
 8067TIP3    H145616   6.128   6.366   3.599 -0.4386  0.2625  1.1486
 8067TIP3    H245617   6.236   6.467   3.632 -0.3956  0.5827  0.0566
 8068TIP3   OH245618   2.560   1.614   2.180  0.1421  0.0751  0.4506
 8068TIP3    H145619   2.515   1.545   2.131  0.5746 -0.1457  0.3572
 8068TIP3    H245620   2.511   1.693   2.161  0.6474  0.1083 -0.8266
 8069TIP3   OH245621   0.660   4.390  13.162 -0.1272  0.2590 -0.4691
 8069TIP3    H145622   0.661   4.430  13.249 -1.4816  0.5095 -0.5472
 8069TIP3    H245623   0.576   4.343  13.158  0.3255 -0.5125 -1.3084
 8070TIP3   OH245624   0.098   0.847  13.559  0.1856  0.3983 -0.0889
 8070TIP3    H145625   0.124   0.909  13.491 -0.1735  1.1244  0.4169
 8070TIP3    H245626   0.008   0.872  13.581  0.1896 -0.0289  0.4313
 8071TIP3   OH245627   1.859   0.037  14.679 -0.2064 -0.2679  0.4669
 8071TIP3    H145628   1.809   0.118  14.666  0.9191  0.2304 -0.8912
 8071TIP3    H245629   1.792  -0.029  14.696 -1.2582  0.6234 -0.0744
 8072TIP3   OH245630   4.497   6.222  11.801  0.6675  0.1333 -0.1414
 8072TIP3    H145631   4.471   6.304  11.758 -0.7286  0.5302  1.3714
 8072TIP3    H245632   4.415   6.184  11.832  1.4777 -0.9225  0.8075
 8073TIP3   OH245633   3.911   0.241  12.569 -0.1094 -0.2347  0.6820
 8073TIP3    H145634   3.855   0.266  12.642 -0.8414  0.4809 -0.1041
 8073TIP3    H245635   3.998   0.274  12.593 -0.0034 -1.3088  1.8831
 8074TIP3   OH245636   2.780   1.095  16.921 -0.0269  0.4381  0.2722
 8074TIP3    H145637   2.744   1.027  16.979  0.6092  0.6568  0.9328
 8074TIP3    H245638   2.752   1.177  16.960  2.8817  0.7247  2.0436
 8075TIP3   OH245639   1.078   5.822  14.843 -0.7192  0.0679  0.8642
 8075TIP3    H145640   0.984   5.835  14.826 -0.2910  1.5050 -0.7081
 8075TIP3    H245641   1.101   5.893  14.902 -0.0927  1.5478 -1.0415
 8076TIP3   OH245642   5.653   6.086  13.977  0.0265 -0.2190  0.0552
 8076TIP3    H145643   5.609   6.030  13.914  1.5726 -0.1944 -1.1177
 8076TIP3    H245644   5.663   6.032  14.055  0.9556 -1.3962 -0.8443
 8077TIP3   OH245645   5.067   0.427  12.019 -0.4899 -0.1614 -0.2781
 8077TIP3    H145646   5.077   0.520  12.040  1.1482 -0.2643 -0.4485
 8077TIP3    H245647   5.153   0.400  11.986 -1.7535 -1.0279 -3.1669
 8078TIP3   OH245648   0.844   5.515   5.820  0.0554  0.7675  0.3536
 8078TIP3    H145649   0.812   5.428   5.844 -0.8341  1.4405  1.6922
 8078TIP3    H245650   0.778   5.549   5.760  0.6673  0.3457 -0.5918
 8079TIP3   OH245651   2.977   4.775  13.316  0.0746 -0.1751  0.2940
 8079TIP3    H145652   2.887   4.796  13.291 -0.1856  0.8764  1.9323
 8079TIP3    H245653   3.031   4.829  13.258 -0.3548 -0.4067 -0.3317
 8080TIP3   OH245654   3.582   1.456  15.293 -0.1968  0.0562 -0.3025
 8080TIP3    H145655   3.522   1.487  15.361 -0.2723  1.2101 -0.8782
 8080TIP3    H245656   3.577   1.522  15.224  1.5633  0.0535 -0.4732
 8081TIP3   OH245657   2.105   6.082   2.654 -0.1700 -0.1645 -0.0988
 8081TIP3    H145658   2.120   6.023   2.580  2.2720  0.3275 -0.1041
 8081TIP3    H245659   2.083   6.024   2.727  0.0286 -0.9037 -0.6097
 8082TIP3   OH245660   0.196   4.694   5.310 -0.1243  0.3017 -0.4700
 8082TIP3    H145661   0.189   4.598   5.310  1.2497  0.1771 -1.7528
 8082TIP3    H245662   0.176   4.719   5.400 -1.5939 -1.0893 -0.3591
 8083TIP3   OH245663   0.760   6.122  10.682 -0.3575 -0.2614 -0.4326
 8083TIP3    H145664   0.735   6.136  10.591 -0.7166  2.8447  0.0405
 8083TIP3    H245665   0.688   6.071  10.720 -1.3266  0.3960 -1.3464
 8084TIP3   OH245666   2.729   3.814  15.255  0.0962  0.1838  0.1003
 8084TIP3    H145667   2.731   3.907  15.231  0.7173  0.3548  0.8030
 8084TIP3    H245668   2.661   3.808  15.322  0.1043  0.1336  0.1040
 8085TIP3   OH245669   3.756   3.911  13.033 -0.3455  0.0593  0.0138
 8085TIP3    H145670   3.785   3.854  12.961  0.9054  0.0109  0.5405
 8085TIP3    H245671   3.806   3.882  13.109 -0.5605  1.0908  0.5686
 8086TIP3   OH245672   6.147   2.528  15.187  0.3578  0.2257  0.5312
 8086TIP3    H145673   6.197   2.527  15.269  0.8553  0.2254  0.2257
 8086TIP3    H245674   6.201   2.576  15.126 -0.6766  1.5584  0.6139
 8087TIP3   OH245675   3.830   1.923  14.067  1.0060 -0.4723  0.0451
 8087TIP3    H145676   3.784   1.840  14.060  1.3013 -0.6435  0.0791
 8087TIP3    H245677   3.862   1.925  14.157  0.9983 -0.3220  0.0452
 8088TIP3   OH245678   3.745   4.823  11.364  0.6053  0.3881 -0.0905
 8088TIP3    H145679   3.677   4.771  11.407 -0.2889  1.0247 -0.6851
 8088TIP3    H245680   3.815   4.761  11.344  0.8347 -0.0224  1.7960
 8089TIP3   OH245681   1.104   2.419   5.825  0.0186  0.5768  0.2365
 8089TIP3    H145682   1.095   2.508   5.859 -0.0585  1.5541 -2.1348
 8089TIP3    H245683   1.140   2.431   5.737  0.6810 -1.8011  0.1250
 8090TIP3   OH245684   5.094   2.113   3.890 -0.5089  0.2290 -0.0370
 8090TIP3    H145685   5.102   2.206   3.871  1.6499  0.0228 -0.3170
 8090TIP3    H245686   5.112   2.106   3.984 -2.1833  0.2203  0.3226
 8091TIP3   OH245687   6.172   3.686   2.334  0.5345 -0.4697 -0.4346
 8091TIP3    H145688   6.255   3.680   2.287  1.3515  0.6345  0.8236
 8091TIP3    H245689   6.196   3.681   2.426 -0.9486 -1.5637 -0.0573
 8092TIP3   OH245690   3.324   2.597   4.304  0.0833  0.2415 -0.2207
 8092TIP3    H145691   3.290   2.684   4.282 -0.0955 -0.0234 -1.0102
 8092TIP3    H245692   3.249   2.538   4.296  0.6114 -0.2904 -1.6588
 8093TIP3   OH245693   6.535   4.899   2.161 -0.3322  0.2264 -0.0822
 8093TIP3    H145694   6.554   4.985   2.123 -1.7401  1.4804  1.8591
 8093TIP3    H245695   6.608   4.844   2.132  0.1326  1.7898 -2.1670
 8094TIP3   OH245696   0.425   1.234  12.152 -0.3225  0.3231  0.2434
 8094TIP3    H145697   0.471   1.171  12.207 -1.0078 -0.5778 -0.1901
 8094TIP3    H245698   0.333   1.213  12.163 -0.6749  2.2411  1.2645
 8095TIP3   OH245699   3.016   3.429   6.318 -0.3416 -0.4532  0.1764
 8095TIP3    H145700   2.939   3.382   6.286 -0.8870 -1.3132  2.5810
 8095TIP3    H245701   2.984   3.515   6.344  0.1450  0.3304 -1.6325
 8096TIP3   OH245702   5.877   5.467  13.006  0.0739 -0.2064 -0.2255
 8096TIP3    H145703   5.806   5.509  13.053  0.3903 -1.5695  1.5877
 8096TIP3    H245704   5.849   5.376  12.997  0.7638 -0.3381 -1.2182
 8097TIP3   OH245705   3.989   2.123   0.287 -0.3113  0.4439  0.3543
 8097TIP3    H145706   4.043   2.068   0.231  0.0393 -0.3454  1.4154
 8097TIP3    H245707   3.907   2.074   0.297 -0.7344  1.0269 -0.2193
 8098TIP3   OH245708   2.887   6.740   0.170 -0.0193 -0.8800  0.0777
 8098TIP3    H145709   2.963   6.694   0.206 -0.1954  1.0354  3.3293
 8098TIP3    H245710   2.925   6.814   0.123  0.2126  0.1595  1.8220
 8099TIP3   OH245711   2.280   3.640  12.900  0.9560  0.2291 -0.2780
 8099TIP3    H145712   2.187   3.629  12.881  0.7799  1.2175 -0.0586
 8099TIP3    H245713   2.304   3.563  12.952 -0.1532  0.7472  1.0699
 8100TIP3   OH245714   0.774   3.134   0.614 -0.4436  0.3916 -0.3713
 8100TIP3    H145715   0.709   3.135   0.683 -3.2801 -1.7080 -2.7372
 8100TIP3    H245716   0.745   3.200   0.551  2.3256  2.5895  0.4282
 8101TIP3   OH245717   3.480   3.453  14.843 -0.5222  0.0922  0.4789
 8101TIP3    H145718   3.417   3.436  14.773 -0.8288  0.5257  0.6459
 8101TIP3    H245719   3.433   3.508  14.906 -1.1224 -2.2999  2.3033
 8102TIP3   OH245720   4.682   4.504  15.350  0.2689  0.9145  0.6337
 8102TIP3    H145721   4.610   4.521  15.411 -1.1405  0.3436 -0.7820
 8102TIP3    H245722   4.665   4.562  15.276  0.0026 -0.7560 -0.6721
 8103TIP3   OH245723   6.742   1.128   3.342  0.1158 -0.1322 -0.1273
 8103TIP3    H145724   6.774   1.067   3.275 -0.2955 -0.3774 -0.1011
 8103TIP3    H245725   6.654   1.096   3.364  0.0907  0.1846  0.2384
 8104TIP3   OH245726   4.610   6.209   0.410 -0.2257  0.7814  0.5939
 8104TIP3    H145727   4.685   6.203   0.468  0.1636  0.4497  0.0642
 8104TIP3    H245728   4.647   6.217   0.322 -0.8059  1.3816  0.3959
 8105TIP3   OH245729   2.744   1.636  16.133 -0.0509 -0.8302  0.0270
 8105TIP3    H145730   2.711   1.613  16.046  1.9130 -2.0453 -0.4638
 8105TIP3    H245731   2.838   1.623  16.127  0.1650 -0.7512  2.2953
 8106TIP3   OH245732   5.480   0.899   5.652 -0.4093  0.2449 -0.6903
 8106TIP3    H145733   5.405   0.936   5.698 -0.3342 -1.6561  1.0858
 8106TIP3    H245734   5.481   0.806   5.676  2.1272  0.0599 -1.1566
 8107TIP3   OH245735   1.395   5.087   0.663  0.0783 -0.0692 -0.0044
 8107TIP3    H145736   1.433   5.094   0.575  0.8140 -0.5298  0.2708
 8107TIP3    H245737   1.455   5.136   0.719 -0.6296  0.5999  0.1783
 8108TIP3   OH245738   1.873   3.430   1.960 -0.1378  0.2370  0.3199
 8108TIP3    H145739   1.916   3.505   2.000  0.6387  0.1885 -0.3905
 8108TIP3    H245740   1.781   3.454   1.956 -0.2267  0.2635  2.0486
 8109TIP3   OH245741   5.111   0.029  13.321 -0.4842 -0.1885  0.4495
 8109TIP3    H145742   5.097   0.124  13.331 -1.4508 -0.2261 -0.4319
 8109TIP3    H245743   5.087  -0.007  13.406 -0.7864  0.2962  0.5796
 8110TIP3   OH245744   2.371   4.844  14.749  0.6639 -0.8061  0.0766
 8110TIP3    H145745   2.302   4.777  14.753  0.7825 -0.8716  1.2630
 8110TIP3    H245746   2.387   4.867  14.840  0.1591  1.3467 -0.3289
 8111TIP3   OH245747   6.450   4.636  11.742  0.6676 -0.7060 -0.2268
 8111TIP3    H145748   6.456   4.604  11.832  0.2232 -0.6933 -0.1935
 8111TIP3    H245749   6.516   4.706  11.738  1.5568 -1.5251 -0.2705
 8112TIP3   OH245750   0.685   1.700  12.104  0.0571 -0.0949 -0.1157
 8112TIP3    H145751   0.643   1.649  12.034 -0.9737  0.4091  0.1285
 8112TIP3    H245752   0.762   1.648  12.127 -0.5585 -1.1674 -0.4001
 8113TIP3   OH245753   1.772   4.209  10.620  0.0225 -0.7834  0.3182
 8113TIP3    H145754   1.710   4.154  10.572 -0.4583  0.5716 -0.6704
 8113TIP3    H245755   1.727   4.293  10.630  0.7580 -0.5207  1.7488
 8114TIP3   OH245756   1.553   5.444  12.887 -0.1382 -0.1586 -0.2187
 8114TIP3    H145757   1.457   5.441  12.878 -0.0389 -1.7307 -1.0988
 8114TIP3    H245758   1.585   5.470  12.801  0.2453 -0.3880 -0.1483
 8115TIP3   OH245759   2.307   0.596  15.236  0.7888  0.2836 -0.1559
 8115TIP3    H145760   2.325   0.676  15.187 -2.1628 -0.5091 -2.9276
 8115TIP3    H245761   2.364   0.530  15.197  1.1808  0.4329  0.1596
 8116TIP3   OH245762   6.662   1.177  12.306 -0.4183 -0.2851  0.2880
 8116TIP3    H145763   6.740   1.151  12.257 -0.3324  0.1144  0.2079
 8116TIP3    H245764   6.631   1.256  12.261 -1.9415 -1.4602 -0.8332
 8117TIP3   OH245765   3.890   0.747  15.400  0.0182  0.6973  0.7035
 8117TIP3    H145766   3.986   0.740  15.400  0.0745  1.3174  0.4342
 8117TIP3    H245767   3.864   0.716  15.313 -0.1304 -0.5609  1.1824
 8118TIP3   OH245768   4.075   5.949   4.254  0.0752 -0.2017 -0.2327
 8118TIP3    H145769   4.062   5.927   4.346  0.4540 -1.6690 -0.4929
 8118TIP3    H245770   4.161   5.992   4.252  0.7582 -1.4961 -0.0588
 8119TIP3   OH245771   6.638   5.142   3.074 -0.1804 -0.5010  0.1982
 8119TIP3    H145772   6.646   5.228   3.033  1.6952 -0.6156  0.2419
 8119TIP3    H245773   6.544   5.131   3.088 -0.5728  0.9781 -0.9814
 8120TIP3   OH245774   6.536   4.883   5.828 -0.5738 -0.2573  0.3489
 8120TIP3    H145775   6.557   4.870   5.920  1.0183 -0.0551  0.0417
 8120TIP3    H245776   6.617   4.861   5.781 -1.0688  0.5156 -0.9297
 8121TIP3   OH245777   4.856   1.480  10.628  0.6568 -0.1239  0.1058
 8121TIP3    H145778   4.934   1.534  10.617  0.5987  0.5492  2.3872
 8121TIP3    H245779   4.783   1.536  10.605  0.5857  0.9338  2.6096
 8122TIP3   OH245780   0.581   4.316  14.788 -0.2039  0.3835  0.4663
 8122TIP3    H145781   0.579   4.306  14.692 -0.8089  2.6807  0.1698
 8122TIP3    H245782   0.494   4.289  14.816  0.2628 -1.1410  0.4955
 8123TIP3   OH245783   1.311   4.091  13.884  0.2768 -0.2251 -0.1397
 8123TIP3    H145784   1.343   4.155  13.946  1.4135 -2.6615  1.9619
 8123TIP3    H245785   1.389   4.057  13.841 -0.1691 -0.9568 -0.4091
 8124TIP3   OH245786   4.310   5.571   6.681  0.0579  0.0903  0.5304
 8124TIP3    H145787   4.331   5.526   6.600  0.5740  0.1640  0.6222
 8124TIP3    H245788   4.244   5.636   6.656  0.6178  0.4914  0.0620
 8125TIP3   OH245789   3.854   4.145  14.465  0.5164  0.2973  0.5693
 8125TIP3    H145790   3.803   4.069  14.494  1.1089 -0.6390 -0.7229
 8125TIP3    H245791   3.795   4.194  14.409  1.3176 -1.5375 -2.0974
 8126TIP3   OH245792   2.859   3.274  16.864 -0.1012  0.5091  0.2705
 8126TIP3    H145793   2.942   3.268  16.816  0.7680  0.5560  1.7098
 8126TIP3    H245794   2.859   3.362  16.901  0.4322 -0.3012  2.3533
 8127TIP3   OH245795   2.416   6.274  12.176 -0.5829 -0.3859 -0.3338
 8127TIP3    H145796   2.386   6.344  12.118  0.3213 -0.2171 -0.6062
 8127TIP3    H245797   2.462   6.213  12.118  0.7722  0.0312  0.2725
 8128TIP3   OH245798   4.040   1.960   3.481 -0.2590  0.3430 -0.1972
 8128TIP3    H145799   3.974   2.010   3.432 -1.1496  1.9865  2.4964
 8128TIP3    H245800   4.112   2.022   3.493  1.1215 -0.8981 -1.6011
 8129TIP3   OH245801   2.882   5.683   1.625 -0.4938  0.2945  0.2690
 8129TIP3    H145802   2.948   5.661   1.690 -0.2989  0.5487  0.1593
 8129TIP3    H245803   2.920   5.655   1.541 -0.3453  0.8183  0.1568
 8130TIP3   OH245804   4.022   2.157  15.169  0.2305 -0.1169  0.0810
 8130TIP3    H145805   4.078   2.135  15.244  0.7862  0.8757 -0.0145
 8130TIP3    H245806   3.934   2.163  15.205  0.3901 -0.3328  0.5120
 8131TIP3   OH245807   2.151   6.281   1.429 -0.3015 -0.1576  0.5419
 8131TIP3    H145808   2.088   6.277   1.357  0.0131 -0.1237  0.2570
 8131TIP3    H245809   2.100   6.261   1.507 -0.5566 -0.7005  0.2479
 8132TIP3   OH245810   1.344   4.895  11.333 -0.4423  0.2790 -0.1583
 8132TIP3    H145811   1.408   4.883  11.262  0.5263  1.0992  0.5482
 8132TIP3    H245812   1.304   4.809  11.343 -1.0583  0.2906 -2.1073
 8133TIP3   OH245813   3.619   6.762   0.402  0.3589 -0.1663  0.1608
 8133TIP3    H145814   3.668   6.842   0.383  0.0082  0.1710  0.6652
 8133TIP3    H245815   3.638   6.743   0.494  0.8303 -0.9444 -0.0814
 8134TIP3   OH245816   5.702   0.748  11.386  0.1674 -0.4420  0.3241
 8134TIP3    H145817   5.746   0.710  11.462  0.5486 -0.7407 -0.0474
 8134TIP3    H245818   5.688   0.675  11.326  0.1374 -0.1544 -0.0254
 8135TIP3   OH245819   4.402   0.323   2.591 -0.4306 -0.4453 -0.1030
 8135TIP3    H145820   4.399   0.322   2.495 -0.1990  1.1497 -0.1555
 8135TIP3    H245821   4.484   0.368   2.612 -1.5661  1.3316  0.7913
 8136TIP3   OH245822   3.402   2.290  11.727 -0.4665 -0.1011 -0.3180
 8136TIP3    H145823   3.342   2.309  11.799  0.8425  0.1596  0.7475
 8136TIP3    H245824   3.415   2.195  11.732 -1.6222 -0.3245 -1.2511
 8137TIP3   OH245825   0.685   4.153  16.855 -0.0836 -0.2703 -0.0205
 8137TIP3    H145826   0.622   4.202  16.803  0.5965 -0.6694 -1.2625
 8137TIP3    H245827   0.721   4.088  16.794  1.5923  0.0203  0.6210
 8138TIP3   OH245828   0.295   1.298   5.530  0.2702  0.1495 -0.1251
 8138TIP3    H145829   0.348   1.269   5.604 -0.5176 -0.0974  0.3554
 8138TIP3    H245830   0.274   1.218   5.482 -1.1924 -0.0208  0.7257
 8139TIP3   OH245831   2.779   3.649   3.083 -0.5865 -0.3031  0.6023
 8139TIP3    H145832   2.866   3.685   3.104 -2.2073  2.8940  2.6137
 8139TIP3    H245833   2.746   3.706   3.014 -1.5510 -0.7724  0.6694
 8140TIP3   OH245834   0.249   4.669   2.066  0.3305 -0.0318  0.3481
 8140TIP3    H145835   0.200   4.635   2.141 -0.8017  2.1558  0.6900
 8140TIP3    H245836   0.249   4.764   2.078  0.2909  0.3911 -2.3184
 8141TIP3   OH245837   3.773   3.151  12.936  0.6004 -0.2126 -0.0520
 8141TIP3    H145838   3.695   3.147  12.881  0.2823 -0.5362  0.4210
 8141TIP3    H245839   3.756   3.223  12.997  0.6401 -0.3333  0.1013
 8142TIP3   OH245840   0.733   2.691   2.974 -0.5857 -0.4933  0.4153
 8142TIP3    H145841   0.773   2.770   3.012 -1.2823  0.1177 -0.0914
 8142TIP3    H245842   0.763   2.620   3.031 -0.4374  0.2092  1.2494
 8143TIP3   OH245843   2.204   2.611   5.198 -0.2240  0.5701  0.0671
 8143TIP3    H145844   2.250   2.693   5.218  0.2118 -0.5353  4.7742
 8143TIP3    H245845   2.120   2.619   5.243 -1.9950 -0.1333 -2.7977
 8144TIP3   OH245846   6.786   5.222  13.190 -0.0576 -0.0055 -0.0617
 8144TIP3    H145847   6.746   5.164  13.125 -0.4586 -0.0235  0.1940
 8144TIP3    H245848   6.717   5.286  13.211  0.0853  0.0345  0.3017
 8145TIP3   OH245849   2.175   6.578  16.264 -0.1572  0.4349 -0.0258
 8145TIP3    H145850   2.179   6.580  16.168  0.1788  0.9071 -0.0086
 8145TIP3    H245851   2.264   6.558  16.291  0.4313  3.0536  0.2305
 8146TIP3   OH245852   3.086   3.613   1.161 -0.3610  0.2288 -0.3585
 8146TIP3    H145853   2.997   3.613   1.194 -0.1365  0.0592  0.2588
 8146TIP3    H245854   3.140   3.640   1.236  0.2567 -1.0892 -0.2939
 8147TIP3   OH245855   6.350   1.544   5.624 -0.2341 -0.0465 -0.5575
 8147TIP3    H145856   6.314   1.619   5.577  0.8739  0.6580 -0.3206
 8147TIP3    H245857   6.314   1.467   5.579 -1.8186  0.5983 -0.4713
 8148TIP3   OH245858   6.707   1.048   0.871 -0.5547 -0.0734  0.3052
 8148TIP3    H145859   6.712   1.140   0.845 -1.0089  0.3156  1.4921
 8148TIP3    H245860   6.638   1.010   0.816 -1.4978  0.7135  0.9198
 8149TIP3   OH245861   3.802   4.988  11.659 -0.5284 -0.5629 -0.2136
 8149TIP3    H145862   3.757   4.905  11.641 -2.2841  0.3997 -0.5430
 8149TIP3    H245863   3.731   5.052  11.664  0.7446  0.8337  0.6008
 8150TIP3   OH245864   2.689   1.785  15.513  0.1986 -0.2302 -0.8265
 8150TIP3    H145865   2.625   1.856  15.502  1.2894  1.1321  0.9782
 8150TIP3    H245866   2.731   1.804  15.597  1.9276 -1.9352 -1.2399
 8151TIP3   OH245867   6.399   2.931  14.020 -0.0686 -0.1855 -0.3162
 8151TIP3    H145868   6.355   2.879  13.952  0.8586 -1.8305  0.3077
 8151TIP3    H245869   6.338   2.932  14.093 -0.2349 -0.0930 -0.4553
 8152TIP3   OH245870   6.546   2.537  16.356 -0.0783  0.4834 -0.2740
 8152TIP3    H145871   6.616   2.524  16.292 -0.4264  0.0520 -0.5759
 8152TIP3    H245872   6.483   2.593  16.312 -0.6113 -0.3102 -0.5479
 8153TIP3   OH245873   1.856   0.639   1.826  0.1811  1.0102 -0.5749
 8153TIP3    H145874   1.902   0.696   1.765 -0.2243  0.8815 -1.0036
 8153TIP3    H245875   1.767   0.632   1.792  0.2756 -0.0517 -0.6587
 8154TIP3   OH245876   3.560   0.888   4.139  0.3638 -0.1377  0.0827
 8154TIP3    H145877   3.593   0.969   4.178  0.8183 -0.1334 -0.2976
 8154TIP3    H245878   3.618   0.820   4.173  1.1716 -0.0564 -1.0446
 8155TIP3   OH245879   1.703   5.127  11.564  0.3460  0.2758 -0.2968
 8155TIP3    H145880   1.686   5.187  11.491  0.1746  0.7847  0.1607
 8155TIP3    H245881   1.795   5.143  11.588  0.1039  0.8411  0.2658
 8156TIP3   OH245882   3.576   1.110   4.539 -0.3219 -0.1997  0.4079
 8156TIP3    H145883   3.540   1.173   4.476 -0.3786 -0.8364 -0.2024
 8156TIP3    H245884   3.507   1.046   4.551  1.0073 -2.2254 -1.8465
 8157TIP3   OH245885   1.131   2.677   0.530  0.2896 -0.0280 -0.1232
 8157TIP3    H145886   1.105   2.622   0.604  1.9906 -0.5284  0.1347
 8157TIP3    H245887   1.143   2.615   0.457  2.5938 -0.1161  0.2688
 8158TIP3   OH245888   3.785   0.352  13.190  0.1257  0.6712 -0.5074
 8158TIP3    H145889   3.712   0.303  13.227 -0.8781  2.7844  0.4405
 8158TIP3    H245890   3.840   0.285  13.148 -1.9695 -1.0451 -0.6594
 8159TIP3   OH245891   4.400   3.925  14.153  0.2512  0.4377 -0.2300
 8159TIP3    H145892   4.345   3.861  14.198  0.8658  0.3427  0.4041
 8159TIP3    H245893   4.340   3.994  14.127 -0.0151  0.9256  1.5238
 8160TIP3   OH245894   5.102   6.072   4.010  0.1245 -0.0359 -0.0137
 8160TIP3    H145895   5.130   6.047   3.922  1.9221  0.3588  0.3952
 8160TIP3    H245896   5.109   5.992   4.061 -0.1406 -0.0835 -0.0509
 8161TIP3   OH245897   1.925   5.316  16.993  0.6301  0.0811  0.0431
 8161TIP3    H145898   1.869   5.383  17.032  1.1017 -0.0138  0.9100
 8161TIP3    H245899   1.876   5.234  17.004  0.3652  0.1796 -0.3820
 8162TIP3   OH245900   3.541   3.565   2.396  0.3939 -0.2057  0.4860
 8162TIP3    H145901   3.552   3.659   2.383 -0.1715 -0.1339  0.5425
 8162TIP3    H245902   3.584   3.548   2.480  1.8783 -0.2676 -0.2552
 8163TIP3   OH245903   0.626   5.036  16.466  0.4692  0.3730  0.3470
 8163TIP3    H145904   0.684   5.064  16.537  0.2820  0.0162  0.6412
 8163TIP3    H245905   0.576   5.114  16.443  1.3130  0.7834 -0.1525
 8164TIP3   OH245906   5.604   2.220  14.049 -0.0396  0.1340 -0.0008
 8164TIP3    H145907   5.630   2.140  14.003  3.1807  0.0056  1.7648
 8164TIP3    H245908   5.633   2.291  13.992  0.0743  0.0180 -0.0876
 8165TIP3   OH245909   2.126   2.387   1.460 -0.0739  0.0354  0.0043
 8165TIP3    H145910   2.170   2.355   1.380 -0.6226 -0.6160 -0.0514
 8165TIP3    H245911   2.071   2.459   1.429  0.7950  0.7341  0.0436
 8166TIP3   OH245912   2.304   1.882   0.159 -0.2711  0.1372 -0.0819
 8166TIP3    H145913   2.288   1.915   0.247 -0.9612 -0.0306 -0.1336
 8166TIP3    H245914   2.358   1.804   0.172 -2.4927 -1.4341  0.4469
 8167TIP3   OH245915   5.579   4.021  16.977 -0.2345  0.2788 -0.7058
 8167TIP3    H145916   5.572   4.051  16.886 -0.6559  1.8848 -0.1878
 8167TIP3    H245917   5.645   4.079  17.016  0.7008 -1.0639 -0.2307
 8168TIP3   OH245918   3.233   4.997   0.810 -0.3706  0.1190  0.1192
 8168TIP3    H145919   3.253   5.012   0.718  1.3722 -0.4709  0.3684
 8168TIP3    H245920   3.219   4.902   0.816 -0.1426  0.1085  0.5141
 8169TIP3   OH245921   0.919   2.916  16.861  0.2730  0.2428  0.0369
 8169TIP3    H145922   0.865   2.938  16.937 -0.1588 -1.0064  0.1140
 8169TIP3    H245923   0.905   2.988  16.800  0.1109  0.9429  0.8684
 8170TIP3   OH245924   0.153   5.497   2.020 -0.1784  0.1058  0.0646
 8170TIP3    H145925   0.178   5.464   1.933 -1.4931  1.1981 -0.7693
 8170TIP3    H245926   0.079   5.556   2.003 -1.0611 -0.3605  2.0362
 8171TIP3   OH245927   3.497   1.555  11.718 -0.2850  0.2233  0.2449
 8171TIP3    H145928   3.586   1.589  11.712 -0.4337  0.4830 -0.5904
 8171TIP3    H245929   3.508   1.465  11.750  0.2073  0.5556  1.0160
 8172TIP3   OH245930   6.628   6.446  13.531  0.2851 -1.1982  0.2285
 8172TIP3    H145931   6.710   6.402  13.552 -0.4715 -2.2061  1.1567
 8172TIP3    H245932   6.562   6.401  13.584 -0.5302  1.1012  1.2955
 8173TIP3   OH245933   1.700   5.043  13.071  0.3598 -0.6856  0.5209
 8173TIP3    H145934   1.787   5.010  13.093  0.8500  0.8930  1.1134
 8173TIP3    H245935   1.716   5.119  13.016 -0.6357 -0.1704  0.9131
 8174TIP3   OH245936   2.872   3.900  12.707 -0.3015  0.7377 -0.1865
 8174TIP3    H145937   2.808   3.952  12.756 -0.3503 -0.3359  0.9258
 8174TIP3    H245938   2.957   3.925  12.745 -0.2895  0.3343  0.0599
 8175TIP3   OH245939   1.606   5.550  16.928  0.2037 -0.0701  0.7577
 8175TIP3    H145940   1.684   5.597  16.955  0.2868  0.0874  0.2632
 8175TIP3    H245941   1.605   5.558  16.832  0.3980 -1.3673  0.6361
 8176TIP3   OH245942   6.098   1.170  16.116  0.5145  0.0803 -0.2112
 8176TIP3    H145943   6.169   1.227  16.085  2.6769 -1.2281  1.9715
 8176TIP3    H245944   6.134   1.082  16.112 -1.7545 -0.8822 -0.8673
 8177TIP3   OH245945   6.292   1.298  15.978 -0.2424 -0.1261  0.1421
 8177TIP3    H145946   6.280   1.234  15.908 -0.6758  0.7340 -0.5914
 8177TIP3    H245947   6.330   1.374  15.934 -0.7795  0.5256  0.7793
 8178TIP3   OH245948   5.554   1.722  17.074  0.1690  0.1875  0.3218
 8178TIP3    H145949   5.550   1.669  16.994 -2.3414  1.0809 -0.2175
 8178TIP3    H245950   5.550   1.658  17.145 -2.3926 -0.4534 -0.3176
 8179TIP3   OH245951   1.616   2.170  14.811 -0.2010 -0.0778 -0.0137
 8179TIP3    H145952   1.614   2.084  14.851 -0.1899  0.0846  0.3366
 8179TIP3    H245953   1.636   2.153  14.718 -0.8133 -0.4913 -0.0726
 8180TIP3   OH245954   5.854   2.871  11.779 -0.1252  0.2822  0.0698
 8180TIP3    H145955   5.805   2.864  11.696 -1.1621 -1.0477  0.7630
 8180TIP3    H245956   5.818   2.802  11.834  0.4409  1.2360  1.7043
 8181TIP3   OH245957   2.022   5.762   0.091 -0.3395 -0.5665  0.5289
 8181TIP3    H145958   1.927   5.769   0.104 -0.2202 -0.6703  1.6167
 8181TIP3    H245959   2.059   5.807   0.167  0.5127  1.0308 -0.7823
 8182TIP3   OH245960   6.727   4.265  17.010  0.3347  0.3509  0.6378
 8182TIP3    H145961   6.690   4.269  17.098  1.7298 -0.3353  1.2765
 8182TIP3    H245962   6.810   4.219  17.020 -0.8122 -2.4461 -1.5045
 8183TIP3   OH245963   0.491   2.475   3.332 -0.0378 -0.2728  0.2971
 8183TIP3    H145964   0.535   2.499   3.414  1.4440 -1.9103  0.0379
 8183TIP3    H245965   0.398   2.483   3.352  0.2719  2.3409  1.1662
 8184TIP3   OH245966   0.842   3.789  13.719  0.2227 -0.3734 -0.5772
 8184TIP3    H145967   0.892   3.800  13.639  0.1881  0.3432 -0.5078
 8184TIP3    H245968   0.892   3.837  13.785 -0.1464 -0.3043 -0.3437
 8185TIP3   OH245969   2.035   3.879   3.608 -0.3452 -0.1016 -0.1711
 8185TIP3    H145970   2.077   3.862   3.524  1.6986 -0.0013  0.7669
 8185TIP3    H245971   2.018   3.973   3.607 -1.4763 -0.2985 -0.9437
 8186TIP3   OH245972   6.196   0.803   3.122  0.6597 -0.0764 -0.7854
 8186TIP3    H145973   6.207   0.898   3.111  0.1785 -0.3294 -4.2854
 8186TIP3    H245974   6.285   0.769   3.128  0.9013  0.4364 -1.3925
 8187TIP3   OH245975   1.116   4.743  15.827  0.2103  0.0277  0.3035
 8187TIP3    H145976   1.082   4.796  15.755  2.7558  3.6285  1.4680
 8187TIP3    H245977   1.038   4.713  15.874 -1.4116  0.3850 -1.9943
 8188TIP3   OH245978   3.010   0.914   0.269 -0.3175  0.5374 -0.0971
 8188TIP3    H145979   3.084   0.881   0.321 -1.9313 -2.4255  0.5593
 8188TIP3    H245980   2.954   0.958   0.333  0.2269  1.6240 -0.3543
 8189TIP3   OH245981   2.624   2.469  11.245 -0.3131  0.1853 -0.2849
 8189TIP3    H145982   2.674   2.404  11.293 -0.8055 -1.8408 -2.3392
 8189TIP3    H245983   2.687   2.538  11.225  0.0751  0.7379  2.4605
 8190TIP3   OH245984   0.368   4.062  10.513  0.0287 -0.2648 -0.5715
 8190TIP3    H145985   0.449   4.110  10.496 -0.3478 -0.0330 -1.8424
 8190TIP3    H245986   0.397   3.979  10.552  0.7747  0.3832  0.2779
 8191TIP3   OH245987   1.850   5.073   0.055  0.5777  0.3293 -0.4502
 8191TIP3    H145988   1.778   5.017   0.026  0.5969 -0.5094  0.9926
 8191TIP3    H245989   1.928   5.032   0.019  0.5559 -0.3818  0.2846
 8192TIP3   OH245990   4.577   5.906  15.348  0.1507 -0.3638 -0.0524
 8192TIP3    H145991   4.504   5.887  15.408 -0.1908 -2.9269 -1.1193
 8192TIP3    H245992   4.611   5.990  15.377 -1.7449 -0.1962  1.9724
 8193TIP3   OH245993   3.246   1.141   5.792  0.1076  0.0437  0.2707
 8193TIP3    H145994   3.280   1.102   5.873  0.9639 -0.8894 -0.5058
 8193TIP3    H245995   3.216   1.066   5.741 -0.2908  0.6101 -0.3390
 8194TIP3   OH245996   3.657   0.555  15.793 -0.6770  0.0943  0.6124
 8194TIP3    H145997   3.693   0.589  15.711  0.4248 -1.1013  0.5664
 8194TIP3    H245998   3.729   0.563  15.856 -1.1337 -0.0637  1.1612
 8195TIP3   OH245999   2.613   6.048   5.535 -0.4111  0.2592  0.5666
 8195TIP3    H146000   2.549   5.984   5.503 -1.1630  1.2286  0.0932
 8195TIP3    H246001   2.585   6.068   5.625 -0.8872  0.8106  0.3007
 8196TIP3   OH246002   5.976   1.041  12.314 -0.6946  0.2359 -0.2521
 8196TIP3    H146003   5.900   1.035  12.256 -0.3150  0.9283 -0.8437
 8196TIP3    H246004   6.050   1.020  12.257 -0.2107  1.9590 -0.3028
 8197TIP3   OH246005   5.495   3.069   4.137  0.2163  0.5410  0.2596
 8197TIP3    H146006   5.537   3.057   4.052  2.4721 -3.0683  1.6253
 8197TIP3    H246007   5.407   3.033   4.125  0.6043 -0.1882 -0.5259
 8198TIP3   OH246008   3.970   1.621  13.854 -0.4661  0.1940 -0.0031
 8198TIP3    H146009   3.966   1.602  13.947  1.6406  0.5376  0.2000
 8198TIP3    H246010   3.992   1.714  13.849 -2.2062  0.6190 -0.9056
 8199TIP3   OH246011   5.713   2.956   1.416 -0.1816 -0.6984  0.0707
 8199TIP3    H146012   5.645   2.923   1.357 -0.3435 -1.6109  0.7423
 8199TIP3    H246013   5.782   2.890   1.413 -0.1035 -0.6606  0.7328
 8200TIP3   OH246014   6.346   1.135  13.647 -0.3523  0.1333  0.2101
 8200TIP3    H146015   6.273   1.073  13.648 -1.9153  1.8967 -0.3284
 8200TIP3    H246016   6.398   1.109  13.570 -1.4487 -0.0233 -0.5007
 8201TIP3   OH246017   1.195   4.968   4.666  0.0858 -0.1032 -0.3505
 8201TIP3    H146018   1.259   4.907   4.629  0.0779 -0.0064 -0.5209
 8201TIP3    H246019   1.155   5.010   4.590  0.2177  0.2461 -0.2266
 8202TIP3   OH246020   1.413   1.002  15.584  0.1271  0.2741  0.2082
 8202TIP3    H146021   1.421   0.927  15.644  1.7848  0.3531  0.1178
 8202TIP3    H246022   1.330   1.043  15.609 -0.5850 -1.3023  0.5757
 8203TIP3   OH246023   3.342   2.184  15.129  0.6485 -0.7280 -0.5094
 8203TIP3    H146024   3.418   2.127  15.144 -1.0604 -2.9345  0.2244
 8203TIP3    H246025   3.297   2.144  15.055  0.2377  0.6583 -1.0399
 8204TIP3   OH246026   5.393   6.739  12.982 -0.0504 -0.3924  0.6736
 8204TIP3    H146027   5.485   6.763  12.987  0.2288 -1.1451 -0.5095
 8204TIP3    H246028   5.372   6.707  13.069  0.1397  1.9995  1.6746
 8205TIP3   OH246029   3.647   6.079  11.042  0.2386  0.3748  0.2901
 8205TIP3    H146030   3.693   6.157  11.011 -0.5438  0.9853  0.6324
 8205TIP3    H246031   3.563   6.112  11.074 -0.4521 -0.7143 -0.3298
 8206TIP3   OH246032   0.828   1.705   3.476  0.1095 -0.9349  1.2054
 8206TIP3    H146033   0.787   1.646   3.412 -0.4363 -1.2697  1.8509
 8206TIP3    H246034   0.779   1.690   3.557  0.8563 -0.5913  1.7313
 8207TIP3   OH246035   6.106   3.299  16.954 -0.0283  0.0201  0.2908
 8207TIP3    H146036   6.087   3.283  17.047  1.7813  0.5967  0.7959
 8207TIP3    H246037   6.201   3.309  16.950 -0.2252  1.8994 -1.3294
 8208TIP3   OH246038   0.937   4.966   5.543 -0.2520 -0.1309  0.2317
 8208TIP3    H146039   0.903   5.048   5.507 -0.2908 -0.7296 -1.1500
 8208TIP3    H246040   0.918   4.901   5.476  2.0187 -0.8228  0.2066
 8209TIP3   OH246041   1.189   5.046  16.096 -0.0384  0.1959  0.7655
 8209TIP3    H146042   1.156   4.982  16.159  0.0798 -0.1851  0.4492
 8209TIP3    H246043   1.284   5.039  16.103  0.0003  1.3039  1.6920
 8210TIP3   OH246044   6.016   6.102   2.525  0.2915  0.4504  0.1697
 8210TIP3    H146045   5.951   6.129   2.461  0.4089  1.1363  0.3276
 8210TIP3    H246046   5.966   6.061   2.596  0.0324  0.9924  0.2993
 8211TIP3   OH246047   3.088   4.716   1.443 -0.2435 -0.1554  0.4097
 8211TIP3    H146048   3.090   4.812   1.440  1.3044 -0.1685  0.0522
 8211TIP3    H246049   2.997   4.693   1.424 -0.9295  1.2590  1.7488
 8212TIP3   OH246050   2.464   3.526   3.917  0.0051 -0.0096 -0.5533
 8212TIP3    H146051   2.413   3.566   3.988  0.3428  0.7222 -0.7068
 8212TIP3    H246052   2.536   3.481   3.961  0.4659  0.8142 -0.4447
 8213TIP3   OH246053   5.950   6.362  12.684  0.0178  0.0588 -0.4490
 8213TIP3    H146054   5.882   6.410  12.637  0.1402 -0.2593 -0.9633
 8213TIP3    H246055   5.907   6.329  12.762 -0.0794  0.9660 -0.1130
 8214TIP3   OH246056   5.040   2.057  11.484 -0.5958 -0.0350  0.0173
 8214TIP3    H146057   5.092   2.031  11.408 -0.0007  0.0893  0.3689
 8214TIP3    H246058   5.105   2.087  11.548 -1.1077  0.1601  0.4572
 8215TIP3   OH246059   5.073   2.848  12.794  0.0409  0.0123  0.6333
 8215TIP3    H146060   5.155   2.897  12.805  2.0667 -2.5609 -1.4880
 8215TIP3    H246061   5.031   2.889  12.719 -0.6745  1.3351  1.7186
 8216TIP3   OH246062   0.606   6.416   0.393 -0.0263  0.6092  0.2485
 8216TIP3    H146063   0.647   6.471   0.460 -0.5419  1.1788  0.1024
 8216TIP3    H246064   0.636   6.327   0.414  1.6450  1.0491 -0.1096
 8217TIP3   OH246065   6.656   3.979   0.036 -1.1601  0.0741 -0.3214
 8217TIP3    H146066   6.700   3.942  -0.041  0.5018  1.0635  0.0869
 8217TIP3    H246067   6.608   3.906   0.074  0.3174 -1.1472 -0.6984
 8218TIP3   OH246068   0.307   5.980   0.868  0.3362  0.3748  0.2921
 8218TIP3    H146069   0.276   6.066   0.840 -0.7071  0.0529  0.3920
 8218TIP3    H246070   0.361   5.949   0.795 -0.3185  0.5935 -0.2961
 8219TIP3   OH246071   5.136   2.456   0.827  0.0528 -0.7141 -0.1310
 8219TIP3    H146072   5.103   2.487   0.742  0.4988 -1.3994 -0.5588
 8219TIP3    H246073   5.197   2.386   0.805  1.0076 -0.1687  0.7087
 8220TIP3   OH246074   6.526   3.060   5.891  0.7795 -0.3581  0.2646
 8220TIP3    H146075   6.476   3.035   5.969 -2.1809  2.3647 -0.5670
 8220TIP3    H246076   6.556   3.149   5.909 -0.7602  0.6896 -1.9402
 8221TIP3   OH246077   2.885   1.956   4.926 -0.9066  0.4286 -0.4178
 8221TIP3    H146078   2.904   1.927   4.837 -1.9402 -3.1380  0.3455
 8221TIP3    H246079   2.971   1.962   4.968 -0.4631  1.3880 -1.4426
 8222TIP3   OH246080   2.981   3.077  11.450 -0.3626 -0.0318  0.0760
 8222TIP3    H146081   3.019   3.095  11.365 -1.4492 -0.3123 -0.4847
 8222TIP3    H246082   3.013   3.147  11.507 -0.8875  1.0616 -0.9471
 8223TIP3   OH246083   0.431   0.169  11.435 -0.2713  0.0903 -0.2195
 8223TIP3    H146084   0.388   0.099  11.485 -0.8664  0.8611  0.3824
 8223TIP3    H246085   0.358   0.224  11.405  0.2609  1.2117  0.4890
 8224TIP3   OH246086   3.922   5.742  15.926  0.1557 -0.5073 -0.3851
 8224TIP3    H146087   3.853   5.722  15.862 -0.3450  2.3133 -0.8615
 8224TIP3    H246088   4.001   5.754  15.873  0.3417 -0.7451 -0.1645
 8225TIP3   OH246089   4.610   3.622   0.896 -0.4612  0.1369 -0.1382
 8225TIP3    H146090   4.582   3.709   0.866  0.3575 -0.1104 -1.7304
 8225TIP3    H246091   4.681   3.598   0.837 -1.6136 -2.2382 -0.6928
 8226TIP3   OH246092   1.263   6.791   0.312  0.2371 -0.1953  0.1991
 8226TIP3    H146093   1.275   6.697   0.303  1.6597  0.0495 -0.6553
 8226TIP3    H246094   1.173   6.807   0.283  0.3633 -1.1413 -0.7444
 8227TIP3   OH246095   5.924   0.194  12.478 -0.5329 -0.4181 -0.2380
 8227TIP3    H146096   5.944   0.101  12.480 -0.2019 -0.3958 -1.4418
 8227TIP3    H246097   6.008   0.237  12.464 -0.8708 -0.0678 -1.3836
 8228TIP3   OH246098   2.720   4.548  13.917 -0.6736  0.0436  0.4777
 8228TIP3    H146099   2.705   4.643  13.923 -1.3775 -0.1317  1.7647
 8228TIP3    H246100   2.778   4.528  13.991 -1.1158 -0.6360  0.6489
 8229TIP3   OH246101   4.611   3.158  14.838  0.5189 -0.3966 -0.0646
 8229TIP3    H146102   4.633   3.077  14.792  0.6386 -1.0068  1.0396
 8229TIP3    H246103   4.552   3.131  14.908 -0.2552  0.6242 -0.2898
 8230TIP3   OH246104   2.355   4.697   4.971  0.1239 -0.5359 -0.2780
 8230TIP3    H146105   2.404   4.644   5.034  1.2715 -1.2423 -1.7153
 8230TIP3    H246106   2.287   4.740   5.024 -0.5590 -3.0253  1.0111
 8231TIP3   OH246107   0.778   5.204  13.681 -0.2579 -0.4132 -1.1480
 8231TIP3    H146108   0.813   5.154  13.754  0.2801 -0.0197 -1.1329
 8231TIP3    H246109   0.703   5.251  13.718  0.3057  0.1670 -0.7138
 8232TIP3   OH246110   3.078   4.354   4.112  0.0146  0.0249 -0.5675
 8232TIP3    H146111   3.002   4.392   4.157  0.5890  0.7261 -0.1778
 8232TIP3    H246112   3.153   4.385   4.162  0.6391  0.4084 -1.7280
 8233TIP3   OH246113   4.125   6.495  13.910  0.1261  0.5881 -0.3367
 8233TIP3    H146114   4.088   6.572  13.867  0.5476  1.0715  0.1475
 8233TIP3    H246115   4.214   6.522  13.934 -0.3363  0.6096  1.5069
 8234TIP3   OH246116   1.013   5.917  13.795 -0.1344  0.1804  0.6642
 8234TIP3    H146117   1.006   5.900  13.701  0.0689  0.3114  0.6231
 8234TIP3    H246118   1.057   5.839  13.830 -2.7709 -1.1978  1.1172
 8235TIP3   OH246119   1.814   1.809   0.597  0.0365  0.1837  0.7886
 8235TIP3    H146120   1.875   1.819   0.524 -0.1990  0.8882  0.6784
 8235TIP3    H246121   1.778   1.721   0.586 -0.7307  0.6239 -0.5409
 8236TIP3   OH246122   0.059   1.610  15.068  0.0846 -0.5243 -0.1241
 8236TIP3    H146123   0.081   1.545  15.135 -0.5765  1.2350  1.9054
 8236TIP3    H246124   0.011   1.678  15.115  0.2452  1.1771 -2.2593
 8237TIP3   OH246125   6.585   3.130  14.109  0.2284 -0.0288  0.7158
 8237TIP3    H146126   6.511   3.079  14.076  0.4622 -0.7804  1.3280
 8237TIP3    H246127   6.548   3.216  14.126 -0.4900 -0.3704  0.9330
 8238TIP3   OH246128   5.574   1.248   2.551 -0.7578 -0.3216  0.6195
 8238TIP3    H146129   5.518   1.276   2.624 -1.1050  1.5285 -0.2755
 8238TIP3    H246130   5.514   1.204   2.490 -0.8375 -0.1937  0.6048
 8239TIP3   OH246131   6.573   0.340   0.371  0.4028  0.3214 -0.0428
 8239TIP3    H146132   6.520   0.286   0.313  0.9200 -1.0015  0.6825
 8239TIP3    H246133   6.533   0.330   0.457  1.4255 -0.1976  0.3939
 8240TIP3   OH246134   0.622   3.219   5.465  0.2669 -0.0566 -0.1239
 8240TIP3    H146135   0.709   3.179   5.461 -0.8133 -2.6613  0.4252
 8240TIP3    H246136   0.594   3.224   5.373  0.8174  0.3974 -0.2720
 8241TIP3   OH246137   0.241   6.240   0.846 -0.3033  0.1081 -0.0884
 8241TIP3    H146138   0.266   6.323   0.806 -1.5905  1.0213  0.9351
 8241TIP3    H246139   0.308   6.224   0.913 -0.1282  0.3863 -0.1949
 8242TIP3   OH246140   5.187   0.925   0.342 -0.6608 -0.0425  0.1040
 8242TIP3    H146141   5.172   0.836   0.310 -2.2816  0.4176 -0.5035
 8242TIP3    H246142   5.144   0.927   0.428 -0.0992 -0.0088  0.3909
 8243TIP3   OH246143   2.434   4.027  13.845 -0.4126 -0.3390 -0.6360
 8243TIP3    H146144   2.478   3.981  13.774  0.9052 -0.9184  0.5238
 8243TIP3    H246145   2.413   4.113  13.808  1.0872 -0.2906 -1.4434
 8244TIP3   OH246146   3.366   5.705  14.030  0.1355 -0.0921 -0.0259
 8244TIP3    H146147   3.410   5.638  13.978 -2.7322 -0.6328 -2.0117
 8244TIP3    H246148   3.289   5.729  13.978 -2.2974  0.2721  3.3784
 8245TIP3   OH246149   5.463   1.107  13.136 -0.1977 -0.7928  0.5793
 8245TIP3    H146150   5.382   1.079  13.180 -1.3029  1.1635 -0.0952
 8245TIP3    H246151   5.446   1.093  13.043 -1.2201  2.8038  0.0961
 8246TIP3   OH246152   5.703   4.885   1.203  0.0400  0.2436  0.1748
 8246TIP3    H146153   5.647   4.958   1.228 -1.6549 -0.8453 -0.2062
 8246TIP3    H246154   5.675   4.863   1.114 -1.4158 -2.4963  1.1905
 8247TIP3   OH246155   0.514   0.973   5.496 -0.1296  0.6660 -0.0432
 8247TIP3    H146156   0.575   0.951   5.566 -0.0751 -2.4369 -0.9251
 8247TIP3    H246157   0.430   0.984   5.540 -0.7306 -4.0957  0.4649
 8248TIP3   OH246158   0.962   1.023   1.436  0.0648  0.1477 -0.5841
 8248TIP3    H146159   0.979   0.970   1.513  2.8703  0.9461 -0.5555
 8248TIP3    H246160   0.953   1.112   1.469 -2.3423  0.0882 -0.8759
 8249TIP3   OH246161   3.147   5.464  10.634 -0.1152  0.5137  0.1526
 8249TIP3    H146162   3.145   5.375  10.668 -1.3386  0.6738  0.5498
 8249TIP3    H246163   3.233   5.472  10.591  0.5069 -0.4392  1.1795
 8250TIP3   OH246164   2.738   2.587  12.113  0.2889 -0.3683 -0.6722
 8250TIP3    H146165   2.800   2.526  12.075  1.3339 -0.1713  0.6234
 8250TIP3    H246166   2.764   2.673  12.079  1.4122 -0.1522  0.6308
 8251TIP3   OH246167   1.974   6.237   2.381 -0.6500 -0.5310 -0.1649
 8251TIP3    H146168   2.067   6.249   2.398 -0.7030  1.2304 -0.8673
 8251TIP3    H246169   1.937   6.215   2.466  0.3444 -0.8364  0.2027
 8252TIP3   OH246170   0.299   0.143  12.071 -0.5717 -0.4815 -0.3758
 8252TIP3    H146171   0.340   0.229  12.086 -1.1196 -0.3401  0.3637
 8252TIP3    H246172   0.341   0.110  11.992  1.3407 -0.5550  0.6081
 8253TIP3   OH246173   4.834   5.760  13.111 -0.0852  0.1342  0.0636
 8253TIP3    H146174   4.790   5.757  13.197  0.5339 -0.6536  0.3621
 8253TIP3    H246175   4.793   5.689  13.061 -0.8054  0.9190 -0.4806
 8254TIP3   OH246176   4.520   4.384  14.605 -0.1562 -0.1817  0.0876
 8254TIP3    H146177   4.473   4.460  14.572 -0.1603  0.1299  0.7972
 8254TIP3    H246178   4.541   4.333  14.526 -0.5863  0.2965 -0.3469
 8255TIP3   OH246179   2.027   3.075   0.215  0.2750 -0.1446  0.2125
 8255TIP3    H146180   2.102   3.130   0.236  0.2299 -0.2200  0.5694
 8255TIP3    H246181   2.017   3.017   0.291 -1.2456  1.0664  0.9963
 8256TIP3   OH246182   0.240   5.939  10.869  0.1162  0.2822  0.0619
 8256TIP3    H146183   0.254   5.882  10.794 -0.1540 -0.9060  0.8795
 8256TIP3    H246184   0.146   5.954  10.870  0.0962  0.1580  0.2398
 8257TIP3   OH246185   6.273   6.102  13.199  0.5993 -0.4583  0.1364
 8257TIP3    H146186   6.314   6.096  13.285  0.2261 -2.2266  0.2270
 8257TIP3    H246187   6.317   6.034  13.147  1.8064  1.4605 -1.5371
 8258TIP3   OH246188   6.266   3.923  13.331 -0.3191  0.3480 -0.7273
 8258TIP3    H146189   6.300   3.906  13.243  0.9490 -1.3344  0.0407
 8258TIP3    H246190   6.326   3.876  13.390 -1.9181  0.2919  0.9446
 8259TIP3   OH246191   6.531   1.677  12.763  0.4175  0.3459 -0.0535
 8259TIP3    H146192   6.558   1.585  12.767  2.4974  0.7935 -1.6178
 8259TIP3    H246193   6.588   1.715  12.695  0.1527  2.9658  1.0845
 8260TIP3   OH246194   3.589   6.594   5.504  0.2019  0.4496 -0.7752
 8260TIP3    H146195   3.539   6.607   5.423  0.2432  1.2959 -0.6694
 8260TIP3    H246196   3.536   6.531   5.554 -0.7343  1.2681 -0.6996
 8261TIP3   OH246197   6.561   4.117   6.382 -0.0484  0.4800 -0.4222
 8261TIP3    H146198   6.592   4.071   6.461 -0.2807 -1.9559 -1.6520
 8261TIP3    H246199   6.472   4.142   6.403  0.4959  1.5503  0.7400
 8262TIP3   OH246200   4.493   0.373   2.329  0.5348 -0.3642  0.4464
 8262TIP3    H146201   4.457   0.326   2.254  1.6137 -2.8129  1.3538
 8262TIP3    H246202   4.540   0.447   2.290  1.7158 -1.9929 -1.4120
 8263TIP3   OH246203   1.949   4.654   0.480 -0.0832  0.2391 -0.3448
 8263TIP3    H146204   1.970   4.744   0.502  2.8556  0.0391 -1.7590
 8263TIP3    H246205   1.992   4.602   0.548 -1.5724 -0.1297  0.3400
 8264TIP3   OH246206   1.159   6.467   1.112 -0.2276  0.0359  0.2291
 8264TIP3    H146207   1.175   6.375   1.134 -1.1000 -0.0153  0.6827
 8264TIP3    H246208   1.208   6.481   1.031 -0.5414 -0.9868 -0.1554
 8265TIP3   OH246209   4.356   4.228   5.812  0.0558 -0.1668 -0.2539
 8265TIP3    H146210   4.278   4.240   5.867 -0.0503 -1.4133 -0.1034
 8265TIP3    H246211   4.379   4.136   5.824  0.8059 -0.1248 -1.2990
 8266TIP3   OH246212   4.934   0.686   5.121 -0.2428 -0.2445  0.4192
 8266TIP3    H146213   4.841   0.661   5.117  0.0602 -1.5801  0.9663
 8266TIP3    H246214   4.960   0.697   5.030 -0.5584 -1.4862  0.1539
 8267TIP3   OH246215   3.917   5.840  15.036  0.2271 -0.1915 -0.0436
 8267TIP3    H146216   3.860   5.869  14.965  0.1067  1.3706  0.6616
 8267TIP3    H246217   3.958   5.919  15.068  0.7464 -0.9481  1.2429
 8268TIP3   OH246218   5.068   0.644   0.430  0.4361  0.1118  0.2778
 8268TIP3    H146219   5.098   0.574   0.489 -0.0294 -1.1588 -0.9332
 8268TIP3    H246220   5.083   0.609   0.342  0.1847  1.5592 -0.3637
 8269TIP3   OH246221   3.200   2.707   1.495  0.1685  0.1863 -0.0319
 8269TIP3    H146222   3.189   2.787   1.545 -1.4542 -0.9811  1.5995
 8269TIP3    H246223   3.260   2.654   1.548  1.4168  0.3696 -1.2085
 8270TIP3   OH246224   2.692   4.294  12.945 -0.1978 -0.0828  0.2233
 8270TIP3    H146225   2.681   4.362  12.878  1.1569  1.3128  1.3429
 8270TIP3    H246226   2.787   4.287  12.955 -0.3767  0.5134  2.7585
 8271TIP3   OH246227   6.433   4.504  16.477  0.1807  0.1831  0.3139
 8271TIP3    H146228   6.482   4.459  16.546 -0.3470  0.1803  0.6863
 8271TIP3    H246229   6.341   4.490  16.499 -0.0508  2.5928  1.2254
 8272TIP3   OH246230   6.269   4.162  13.467 -0.5975  0.0837 -0.1232
 8272TIP3    H146231   6.251   4.079  13.425  0.0457 -1.2701  2.0821
 8272TIP3    H246232   6.365   4.164  13.474 -0.6964  0.0517  1.5613
 8273TIP3   OH246233   6.073   6.120  15.508  0.3297 -0.1335 -0.1651
 8273TIP3    H146234   6.169   6.110  15.507  0.4910  1.0948 -1.7405
 8273TIP3    H246235   6.050   6.133  15.416 -1.4476 -1.0188  0.1261
 8274TIP3   OH246236   5.040   0.083  10.437 -0.0093  0.3520  0.2989
 8274TIP3    H146237   4.963   0.053  10.388  0.3885  2.8481 -2.1006
 8274TIP3    H246238   5.114   0.039  10.394  0.2427  1.6244 -0.6191
 8275TIP3   OH246239   3.774   3.813  14.160  0.8210 -0.0651 -0.2390
 8275TIP3    H146240   3.691   3.857  14.180  0.4134 -1.2609  0.8341
 8275TIP3    H246241   3.773   3.800  14.066 -0.2304 -0.1073 -0.2279
 8276TIP3   OH246242   3.749   0.481  13.775  0.3631 -0.2972  0.1965
 8276TIP3    H146243   3.780   0.496  13.685  0.6308  1.5728  0.5700
 8276TIP3    H246244   3.681   0.414  13.766  0.6450 -0.4093 -1.3508
 8277TIP3   OH246245   4.816   0.727   3.692  0.0152 -0.0613  0.4018
 8277TIP3    H146246   4.887   0.690   3.640  1.1776  0.7707  1.3620
 8277TIP3    H246247   4.755   0.762   3.627  1.2085  0.5388 -0.4220
 8278TIP3   OH246248   3.535   2.191  10.701  0.3509  0.5174  0.4264
 8278TIP3    H146249   3.580   2.180  10.617  2.3885  3.0396  1.0554
 8278TIP3    H246250   3.456   2.241  10.680  1.2496  1.8202  0.0725
 8279TIP3   OH246251   5.840   3.583   1.426  0.1404 -0.2948  0.1965
 8279TIP3    H146252   5.882   3.666   1.449  0.3969 -0.0700 -1.0184
 8279TIP3    H246253   5.824   3.540   1.510 -1.7616  1.8132  1.0075
 8280TIP3   OH246254   4.335   1.424   4.385  0.1670  0.1782  0.3733
 8280TIP3    H146255   4.294   1.350   4.340 -0.0408  0.8968 -0.6465
 8280TIP3    H246256   4.421   1.392   4.412  1.5650  0.5438 -3.1174
 8281TIP3   OH246257   2.225   2.807   0.003  0.4311 -0.6209 -0.3355
 8281TIP3    H146258   2.138   2.816   0.043 -0.3094  0.2228 -2.0381
 8281TIP3    H246259   2.240   2.891  -0.040  2.4438 -0.4861  0.5408
 8282TIP3   OH246260   4.933   2.468  11.862 -0.3295  0.2275 -0.1500
 8282TIP3    H146261   4.965   2.436  11.778  0.8432  1.3304 -0.1446
 8282TIP3    H246262   5.012   2.484  11.913 -1.0020  0.3780  0.8680
 8283TIP3   OH246263   6.173   2.599   0.873  0.0222 -1.0475 -0.0145
 8283TIP3    H146264   6.161   2.693   0.860 -0.9745 -0.9741  1.1732
 8283TIP3    H246265   6.249   2.576   0.820  0.9927  0.6532  0.5614
 8284TIP3   OH246266   0.944   2.764  12.523 -0.2497  0.7714 -0.4681
 8284TIP3    H146267   0.919   2.766  12.616 -2.8933 -1.8781 -0.9665
 8284TIP3    H246268   0.863   2.786  12.476  0.4681 -0.0494 -2.1569
 8285TIP3   OH246269   1.007   4.733  12.959  0.2408 -0.7317  0.5235
 8285TIP3    H146270   0.983   4.664  13.020  0.0101 -1.9215 -0.8504
 8285TIP3    H246271   1.092   4.764  12.990  0.0785 -1.2324  1.4953
 8286TIP3   OH246272   3.612   3.819   4.815 -0.0365  0.3619  0.2624
 8286TIP3    H146273   3.541   3.795   4.875  0.0644  0.8852  0.5982
 8286TIP3    H246274   3.574   3.887   4.760 -0.2923 -0.4791 -0.6250
 8287TIP3   OH246275   5.524   4.770  14.303  0.1988 -0.0478 -0.1528
 8287TIP3    H146276   5.463   4.826  14.255  1.6847 -0.2293 -2.4506
 8287TIP3    H246277   5.500   4.681  14.276  0.3143 -0.2430  0.3810
 8288TIP3   OH246278   4.770   2.230   3.152 -0.1662 -0.7956 -0.0595
 8288TIP3    H146279   4.807   2.287   3.085 -2.2991  0.6321 -0.1312
 8288TIP3    H246280   4.843   2.209   3.209  0.6285  2.9182  0.5766
 8289TIP3   OH246281   5.949   5.244   0.943  0.4148 -0.1146 -0.3438
 8289TIP3    H146282   5.893   5.230   1.019  0.0582 -2.5564 -0.9650
 8289TIP3    H246283   6.008   5.315   0.969  1.2945 -1.7986  2.8249
 8290TIP3   OH246284   6.534   4.167  15.011 -0.3339 -0.1310 -0.1594
 8290TIP3    H146285   6.592   4.162  15.087  0.0603  1.2080 -0.3533
 8290TIP3    H246286   6.454   4.205  15.045 -0.7721 -1.0691 -0.0971
 8291TIP3   OH246287   6.605   3.026  12.359 -0.7412 -0.1800  0.0689
 8291TIP3    H146288   6.568   3.113  12.346 -0.3215 -0.0677 -0.3814
 8291TIP3    H246289   6.580   2.977  12.281  0.5138  0.0556 -0.4953
 8292TIP3   OH246290   0.598   3.000  13.266  0.1475  0.4001 -0.1980
 8292TIP3    H146291   0.608   2.905  13.255  1.6212  0.3548  1.2313
 8292TIP3    H246292   0.661   3.024  13.334  0.0395  2.4710 -0.7499
 8293TIP3   OH246293   3.415   5.017  11.819  1.0026  0.2111 -0.1033
 8293TIP3    H146294   3.462   4.941  11.854  1.4216  0.6741  0.3454
 8293TIP3    H246295   3.324   4.987  11.811  1.1813 -0.3644 -0.0027
 8294TIP3   OH246296   0.858   4.599   0.223  0.3036 -0.2282  0.2330
 8294TIP3    H146297   0.772   4.578   0.186  1.4193 -0.7985 -2.2220
 8294TIP3    H246298   0.901   4.514   0.234  0.9749  0.1262  0.3830
 8295TIP3   OH246299   3.821   1.574  12.175  0.8105  0.8949  0.8651
 8295TIP3    H146300   3.785   1.487  12.163 -1.4497  1.9422 -0.5931
 8295TIP3    H246301   3.895   1.561  12.235  1.8504 -2.2874 -0.8636
 8296TIP3   OH246302   5.300   4.804  16.268 -0.0598 -0.5237 -0.0854
 8296TIP3    H146303   5.302   4.773  16.177  0.8193  0.2436 -0.3431
 8296TIP3    H246304   5.283   4.898  16.261  4.0699  0.4442  0.2179
 8297TIP3   OH246305   5.775   0.577  16.722 -0.3214  0.0882 -0.3822
 8297TIP3    H146306   5.715   0.631  16.773 -0.9073 -1.0874  0.2085
 8297TIP3    H246307   5.821   0.524  16.788 -0.9073 -1.2672 -1.0337
 8298TIP3   OH246308   1.195   4.622   2.271  0.0582 -0.3534 -0.1476
 8298TIP3    H146309   1.178   4.716   2.264  5.1855  1.0171  1.6129
 8298TIP3    H246310   1.239   4.599   2.190 -0.3545 -1.0487 -0.1819
 8299TIP3   OH246311   3.019   1.370   4.814  0.1566  0.1610  0.3794
 8299TIP3    H146312   3.051   1.347   4.727  0.2113  0.0493  0.4293
 8299TIP3    H246313   2.928   1.340   4.814 -0.6008  2.2906 -0.4894
 8300TIP3   OH246314   3.211   0.046   4.853  0.1019 -0.1145 -0.2825
 8300TIP3    H146315   3.152   0.038   4.778  2.0252  0.6854 -1.9501
 8300TIP3    H246316   3.254  -0.039   4.860  0.7076  0.1447 -0.7888
 8301TIP3   OH246317   1.886   2.094   2.594 -0.8704 -0.1112 -0.0901
 8301TIP3    H146318   1.905   2.187   2.585 -1.3662 -0.1049 -1.2486
 8301TIP3    H246319   1.886   2.078   2.689  1.4921  0.5531  0.0812
 8302TIP3   OH246320   3.958   5.675  16.203 -0.3226  0.5581  0.6988
 8302TIP3    H146321   3.941   5.693  16.110 -1.1362  0.9077  0.9013
 8302TIP3    H246322   3.976   5.761  16.240  1.3386  0.2735  0.6270
 8303TIP3   OH246323   6.438   2.134   2.381 -0.1385  0.1383 -0.0477
 8303TIP3    H146324   6.520   2.104   2.342  0.7065  2.2712 -0.0705
 8303TIP3    H246325   6.441   2.105   2.472 -0.9222 -2.6123 -0.8109
 8304TIP3   OH246326   1.846   2.503  16.678 -0.2640  0.0336 -0.4643
 8304TIP3    H146327   1.821   2.587  16.716 -0.9860 -0.3233 -0.1221
 8304TIP3    H246328   1.767   2.450  16.684  0.3343 -0.8482 -0.1889
 8305TIP3   OH246329   4.370   6.639   1.690  0.2173  0.1045 -0.0640
 8305TIP3    H146330   4.443   6.653   1.631 -0.8882  0.1752 -1.4518
 8305TIP3    H246331   4.403   6.666   1.776  1.8051  0.1193 -0.6484
 8306TIP3   OH246332   2.015   5.344  12.120  0.2880 -0.4481  0.1701
 8306TIP3    H146333   2.025   5.436  12.144  2.4063 -0.5982  0.0543
 8306TIP3    H246334   1.935   5.316  12.164 -0.1650  1.3303  0.5542
 8307TIP3   OH246335   3.066   4.255  16.079 -0.1291  0.4342 -0.9125
 8307TIP3    H146336   3.047   4.209  15.998 -0.1978 -0.1674 -0.5598
 8307TIP3    H246337   2.981   4.287  16.109 -0.4464 -1.1844  0.0174
 8308TIP3   OH246338   4.268   3.126   2.085  0.0309  0.1990  0.0379
 8308TIP3    H146339   4.343   3.107   2.028 -1.0694 -1.5350 -0.9022
 8308TIP3    H246340   4.201   3.063   2.059 -0.3855 -1.0730  3.6018
 8309TIP3   OH246341   6.011   1.053  15.631  0.1384 -0.0339  0.0432
 8309TIP3    H146342   6.073   1.123  15.651 -0.5401  0.8263 -0.7620
 8309TIP3    H246343   6.063   0.989  15.583  0.4002  0.7474 -0.7506
 8310TIP3   OH246344   3.102   2.875   4.916  0.0269 -0.1705 -0.2316
 8310TIP3    H146345   3.107   2.850   4.824  0.7254 -1.7601  0.2040
 8310TIP3    H246346   3.076   2.795   4.961  0.3185  0.4187  1.0247
 8311TIP3   OH246347   4.111   2.088  15.409  0.8352 -0.4285  0.3009
 8311TIP3    H146348   4.143   2.127  15.490 -0.8261  0.6452  0.4808
 8311TIP3    H246349   4.076   2.003  15.435  1.5317 -0.6673  0.4678
 8312TIP3   OH246350   6.042   3.548  13.244  0.5919  0.3627  0.2967
 8312TIP3    H146351   6.123   3.501  13.225  0.4440 -1.0305  2.6127
 8312TIP3    H246352   6.052   3.575  13.336 -1.0031  1.3996  0.1968
 8313TIP3   OH246353   1.073   3.305   0.403 -0.0046 -0.1072 -0.1602
 8313TIP3    H146354   1.065   3.390   0.360 -0.4597 -0.0089  0.1125
 8313TIP3    H246355   1.054   3.241   0.333 -2.1034  0.0871  0.1730
 8314TIP3   OH246356   4.243   2.286   5.001 -0.0969 -0.6642 -0.3731
 8314TIP3    H146357   4.320   2.293   5.056 -1.0617  0.8216  0.8634
 8314TIP3    H246358   4.277   2.263   4.914  1.7906  0.5995 -0.0160
 8315TIP3   OH246359   6.646   0.603  13.656  0.0887  0.0585  0.2458
 8315TIP3    H146360   6.697   0.636  13.731 -2.4746  0.2998  2.0003
 8315TIP3    H246361   6.604   0.680  13.620  1.0235 -0.1152 -1.2832
 8316TIP3   OH246362   5.170   3.532   5.535 -0.1625  0.7166  0.1899
 8316TIP3    H146363   5.205   3.609   5.578 -0.7060  1.0624  0.0186
 8316TIP3    H246364   5.114   3.491   5.600 -0.1697  0.6718  0.1560
 8317TIP3   OH246365   5.311   4.593   3.981  0.2478  0.6201 -0.1912
 8317TIP3    H146366   5.390   4.552   4.018  1.0676  3.0440  0.9003
 8317TIP3    H246367   5.330   4.599   3.887  0.9345  0.3181 -0.0809
 8318TIP3   OH246368   6.329   1.156  16.593  0.2052  0.1406  0.1462
 8318TIP3    H146369   6.380   1.076  16.597  0.2185  0.1894  1.9299
 8318TIP3    H246370   6.238   1.127  16.590  0.2037  0.0246  0.9353
 8319TIP3   OH246371   0.420   0.351   2.558 -0.2110  0.8160 -0.0192
 8319TIP3    H146372   0.507   0.328   2.589  0.1455 -0.9839 -2.1213
 8319TIP3    H246373   0.435   0.415   2.488 -0.3395 -0.8647 -1.6775
 8320TIP3   OH246374   6.547   4.313  12.154 -0.5323  0.4574 -0.3113
 8320TIP3    H146375   6.591   4.336  12.072 -0.6483  0.3617 -0.4010
 8320TIP3    H246376   6.578   4.379  12.217  0.1680  0.0589 -0.2329
 8321TIP3   OH246377   1.950   0.301   2.573 -0.3265  0.0184 -0.2438
 8321TIP3    H146378   1.994   0.222   2.605 -0.1697  0.4724  0.6808
 8321TIP3    H246379   1.931   0.282   2.481 -0.4620 -1.1650  0.0203
 8322TIP3   OH246380   3.880   5.490  12.319  0.7615 -0.0595  0.2358
 8322TIP3    H146381   3.918   5.578  12.319 -0.0420  0.3162  1.2389
 8322TIP3    H246382   3.792   5.502  12.281  0.3075 -0.2480  1.1944
 8323TIP3   OH246383   2.983   6.252  12.812 -0.1762 -0.0068 -0.0074
 8323TIP3    H146384   2.906   6.302  12.783 -0.0752  0.0445 -0.1861
 8323TIP3    H246385   3.030   6.313  12.870 -0.5159 -0.1985  0.4813
 8324TIP3   OH246386   1.496   3.805  12.836 -0.0570  0.0568  0.6581
 8324TIP3    H146387   1.502   3.857  12.756  1.1882  1.3796  1.5587
 8324TIP3    H246388   1.582   3.763  12.844 -0.9647 -2.0711  0.0641
 8325TIP3   OH246389   0.667   3.840   3.644 -0.2599  0.9995 -0.0308
 8325TIP3    H146390   0.659   3.746   3.654  0.0671  1.0557  0.8579
 8325TIP3    H246391   0.657   3.875   3.733  1.8210  1.6441  0.0067
 8326TIP3   OH246392   3.153   3.536  16.787 -0.6099  0.3252 -0.3046
 8326TIP3    H146393   3.144   3.596  16.713  1.6580 -0.0053 -0.9088
 8326TIP3    H246394   3.127   3.451  16.753 -1.3892  0.4914 -0.1541
 8327TIP3   OH246395   0.236   3.513  16.846 -0.7448 -0.2379 -0.2660
 8327TIP3    H146396   0.243   3.523  16.751 -2.6670 -1.6391 -0.6192
 8327TIP3    H246397   0.198   3.426  16.858 -0.6592 -0.0256  1.7782
 8328TIP3   OH246398   1.370   5.591  16.725 -0.3167 -0.2026  0.2368
 8328TIP3    H146399   1.390   5.685  16.723  0.0301 -0.2782  0.0869
 8328TIP3    H246400   1.390   5.563  16.814 -2.3387  0.2708  0.8986
 8329TIP3   OH246401   6.797   6.308   1.294  0.2374 -0.4247  0.1604
 8329TIP3    H146402   6.831   6.257   1.367 -1.3108  1.3392  2.2390
 8329TIP3    H246403   6.705   6.282   1.288  0.0600  0.3114 -0.4028
 8330TIP3   OH246404   6.642   3.938  13.635 -0.1495  0.8209  0.2745
 8330TIP3    H146405   6.728   3.968  13.664  0.0068  0.8635 -0.2242
 8330TIP3    H246406   6.621   3.992  13.559  0.4174 -0.7033 -1.0295
 8331TIP3   OH246407   3.838   0.217   3.214 -0.3987  0.2313 -0.3295
 8331TIP3    H146408   3.815   0.227   3.122  2.3222  1.2920 -0.9674
 8331TIP3    H246409   3.907   0.281   3.229 -0.6383 -0.0241  2.4346
 8332TIP3   OH246410   4.432   5.779   5.193 -0.9046 -0.1612  0.1274
 8332TIP3    H146411   4.484   5.732   5.258 -0.4757  0.6629  0.3985
 8332TIP3    H246412   4.422   5.867   5.230 -1.9239 -0.1129 -0.2316
 8333TIP3   OH246413   5.351   3.421   0.930  0.0054  0.4986 -0.3057
 8333TIP3    H146414   5.281   3.464   0.978  0.0289  0.9286 -0.6527
 8333TIP3    H246415   5.383   3.487   0.868 -0.0584 -0.0530 -0.9444
 8334TIP3   OH246416   6.152   5.090  15.232 -0.0039 -0.8612  0.0460
 8334TIP3    H146417   6.215   5.023  15.259 -0.0819 -1.7815 -1.8676
 8334TIP3    H246418   6.066   5.053  15.253  0.0174 -0.2739  1.2337
 8335TIP3   OH246419   4.887   4.595  14.073 -0.3711 -0.0275 -0.2519
 8335TIP3    H146420   4.950   4.663  14.097  0.7608 -0.2290 -2.4666
 8335TIP3    H246421   4.927   4.513  14.101 -0.3987 -0.0349 -0.2329
 8336TIP3   OH246422   3.543   4.713   5.808 -0.3175 -0.0773  0.6549
 8336TIP3    H146423   3.638   4.712   5.824 -0.1204  0.9320 -0.2962
 8336TIP3    H246424   3.514   4.624   5.828  1.6406 -1.9619 -3.7002
 8337TIP3   OH246425   4.224   5.156   2.306 -0.4888  0.2361 -0.1502
 8337TIP3    H146426   4.234   5.144   2.211 -1.0120 -2.3770  0.0389
 8337TIP3    H246427   4.162   5.088   2.332  0.2348  0.3819  2.1976
 8338TIP3   OH246428   3.895   2.570  11.948 -0.2640 -0.0975 -0.4755
 8338TIP3    H146429   3.860   2.503  11.889 -1.1157 -0.9086  0.8857
 8338TIP3    H246430   3.862   2.545  12.034  0.6824  1.2240  0.3065
 8339TIP3   OH246431   4.353   2.106  15.005  0.2644  0.1077  0.1979
 8339TIP3    H146432   4.403   2.171  15.053 -0.2676 -0.5006  1.6330
 8339TIP3    H246433   4.280   2.155  14.966  0.3664  0.5150  0.5199
 8340TIP3   OH246434   3.884   4.436  15.655 -0.3986  0.3440 -0.2131
 8340TIP3    H146435   3.870   4.409  15.564 -0.2185  0.8129 -0.3829
 8340TIP3    H246436   3.864   4.529  15.656  1.3417  0.7488 -0.1738
 8341TIP3   OH246437   4.129   6.022   5.625  0.4793 -0.5337 -0.5752
 8341TIP3    H146438   4.133   5.958   5.696  1.3416 -1.7322 -1.6740
 8341TIP3    H246439   4.054   5.995   5.573 -0.1649  0.3608 -0.1504
 8342TIP3   OH246440   6.662   5.848   1.774  0.5884  0.6383 -0.2332
 8342TIP3    H146441   6.635   5.906   1.846  0.7421 -0.1955  0.5049
 8342TIP3    H246442   6.609   5.878   1.699  0.5596  1.6350  0.1671
 8343TIP3   OH246443   3.106   1.417  15.296 -0.3029  0.0646  0.2459
 8343TIP3    H146444   3.017   1.453  15.293  0.4972  2.0484 -1.1137
 8343TIP3    H246445   3.160   1.487  15.332  0.8011 -0.9555  0.6502
 8344TIP3   OH246446   3.667   6.423  13.786  0.0307  0.1101  0.1093
 8344TIP3    H146447   3.577   6.406  13.815 -0.0887  0.9295  0.2403
 8344TIP3    H246448   3.671   6.386  13.697 -0.0748 -0.9872  0.5492
 8345TIP3   OH246449   1.283   0.101  13.779 -0.3452 -0.0884 -0.0432
 8345TIP3    H146450   1.348   0.170  13.767 -1.3261  0.7532 -0.7141
 8345TIP3    H246451   1.301   0.039  13.709 -0.8913  0.6657 -0.8699
 8346TIP3   OH246452   1.923   1.638  14.562  0.0412  0.0294 -0.2855
 8346TIP3    H146453   1.940   1.646  14.656 -1.5511  0.0774  0.0273
 8346TIP3    H246454   1.852   1.701  14.545 -0.6804 -0.9998 -1.2346
 8347TIP3   OH246455   1.112   5.383   5.016 -0.6475  0.1034  0.1489
 8347TIP3    H146456   1.200   5.360   5.044 -0.5394  0.0248 -0.2597
 8347TIP3    H246457   1.074   5.300   4.985 -0.2775  0.4565 -1.2717
 8348TIP3   OH246458   5.727   3.186  14.118  0.1702  0.1964  0.2688
 8348TIP3    H146459   5.697   3.144  14.199 -0.9940  0.5015  0.0081
 8348TIP3    H246460   5.664   3.159  14.052  1.4759 -0.5792 -0.7084
 8349TIP3   OH246461   3.539   5.784   1.432 -0.6635  0.3395  0.1041
 8349TIP3    H146462   3.560   5.868   1.391 -0.5682  0.6816  0.8331
 8349TIP3    H246463   3.624   5.743   1.446 -0.3612  1.6231  2.8422
 8350TIP3   OH246464   4.899   2.411  16.161 -0.1515 -0.1993 -0.1981
 8350TIP3    H146465   4.833   2.409  16.092  0.1455 -0.2935 -0.4805
 8350TIP3    H246466   4.953   2.333  16.145 -1.0463 -1.1413  1.0943
 8351TIP3   OH246467   6.700   4.804  13.638  0.3739 -0.0018 -0.0829
 8351TIP3    H146468   6.771   4.764  13.587  0.9860  1.4342 -0.4116
 8351TIP3    H246469   6.740   4.824  13.723  0.4048  0.8626 -0.2880
 8352TIP3   OH246470   5.947   3.884   6.168  0.6107  0.2257 -0.5824
 8352TIP3    H146471   5.969   3.807   6.221 -0.2565 -0.0063 -0.5489
 8352TIP3    H246472   5.997   3.955   6.208  1.0396 -0.2181 -0.3113
 8353TIP3   OH246473   1.838   0.683  14.722 -0.0385  0.8691  0.6667
 8353TIP3    H146474   1.911   0.743  14.734  0.2875  0.5416  0.3520
 8353TIP3    H246475   1.761   0.732  14.753 -0.0778  2.1458 -1.2715
 8354TIP3   OH246476   4.948   6.489   5.182  0.6003 -0.1112 -0.2652
 8354TIP3    H146477   4.936   6.482   5.088 -0.8624 -2.9346  0.0395
 8354TIP3    H246478   4.863   6.467   5.220  1.0844  1.1499  1.7589
 8355TIP3   OH246479   6.522   1.860  17.009  0.0272 -0.2483 -0.2324
 8355TIP3    H146480   6.600   1.879  16.956  1.2140 -1.4878  0.9765
 8355TIP3    H246481   6.519   1.929  17.075 -0.1507  0.0393 -0.5407
 8356TIP3   OH246482   4.621   1.656  10.699 -0.0334  0.0676 -0.6144
 8356TIP3    H146483   4.625   1.726  10.764 -1.4232  0.9930 -1.4486
 8356TIP3    H246484   4.556   1.595  10.733  1.3081 -0.9316  0.1971
 8357TIP3   OH246485   0.356   5.215   4.826 -0.8753  0.0145 -0.1570
 8357TIP3    H146486   0.293   5.178   4.889 -1.2149  1.7410  0.5624
 8357TIP3    H246487   0.441   5.185   4.858 -1.0873  0.3850  0.8082
 8358TIP3   OH246488   6.274   3.487   4.564  0.1450 -0.0320 -0.3919
 8358TIP3    H146489   6.179   3.497   4.563 -0.1053 -1.7790  1.0362
 8358TIP3    H246490   6.303   3.538   4.639  0.2019 -0.4073 -0.1568
 8359TIP3   OH246491   1.240   1.125   1.664 -0.0034 -0.5183  0.0859
 8359TIP3    H146492   1.312   1.069   1.633 -0.7514 -0.2210 -2.4581
 8359TIP3    H246493   1.179   1.064   1.706  0.0572 -1.3836 -1.0168
 8360TIP3   OH246494   5.838   3.100   5.357  0.1828 -0.6839  0.0906
 8360TIP3    H146495   5.827   3.195   5.354 -0.0384 -0.7110  0.0656
 8360TIP3    H246496   5.920   3.084   5.310  0.4778 -0.4618  0.5294
 8361TIP3   OH246497   3.791   1.378   6.285  0.0729  0.7997  0.0762
 8361TIP3    H146498   3.699   1.391   6.262 -0.4080 -0.7986  0.9186
 8361TIP3    H246499   3.797   1.406   6.376  0.1732 -0.0544  0.3395
 8362TIP3   OH246500   2.094   2.803   2.155  0.1727 -0.0830 -0.1396
 8362TIP3    H146501   2.100   2.851   2.238  1.6736  0.4599 -0.5383
 8362TIP3    H246502   2.030   2.734   2.173  0.3556  0.1071  1.4298
 8363TIP3   OH246503   3.210   0.476   3.729 -0.3996 -0.4833  0.3598
 8363TIP3    H146504   3.159   0.555   3.708 -1.9106 -1.4767  0.1183
 8363TIP3    H246505   3.167   0.439   3.806 -0.1522 -1.4447  0.0534
 8364TIP3   OH246506   1.938   6.521   6.345 -0.0989  1.0767 -0.3680
 8364TIP3    H146507   1.987   6.488   6.420  1.2797  0.2992 -1.5413
 8364TIP3    H246508   1.955   6.615   6.345 -0.5052  1.1569  0.5525
 8365TIP3   OH246509   2.123   1.485   3.877 -0.1186 -0.1839  0.1081
 8365TIP3    H146510   2.062   1.411   3.875  1.5371 -1.8892  3.4927
 8365TIP3    H246511   2.204   1.449   3.841  0.1992  0.5949  0.0260
 8366TIP3   OH246512   6.039   2.735  14.854  0.4736 -0.4229  0.0423
 8366TIP3    H146513   5.985   2.801  14.812  0.7165  0.4451  1.0561
 8366TIP3    H246514   5.980   2.688  14.912  0.8138  0.6941  1.3438
 8367TIP3   OH246515   0.877   3.327  15.748  0.1487 -0.0392  0.4120
 8367TIP3    H146516   0.930   3.248  15.761  0.4266  0.1898  0.6946
 8367TIP3    H246517   0.822   3.307  15.672  0.8626 -0.1716 -0.0818
 8368TIP3   OH246518   0.104   4.173   2.456  0.0167 -0.0696 -0.2346
 8368TIP3    H146519   0.063   4.174   2.542  0.2159 -0.4561 -0.1340
 8368TIP3    H246520   0.168   4.244   2.459 -0.7917  0.6883 -0.4716
 8369TIP3   OH246521   3.035   3.217  14.041  0.1780 -0.5196 -0.1421
 8369TIP3    H146522   3.069   3.198  13.953  0.9373 -0.2626  0.0807
 8369TIP3    H246523   2.998   3.134  14.071  0.7200 -0.8471 -0.3591
 8370TIP3   OH246524   0.458   6.464   5.921 -0.1615  0.2131 -0.2452
 8370TIP3    H146525   0.471   6.396   5.987 -0.4292  1.1623  0.8012
 8370TIP3    H246526   0.496   6.543   5.959  1.7151  0.3294 -2.1372
 8371TIP3   OH246527   6.640   5.953  15.068 -0.0245  0.0083 -0.4334
 8371TIP3    H146528   6.544   5.946  15.061 -0.4645  2.1738  2.0335
 8371TIP3    H246529   6.666   5.872  15.111 -0.9452  0.0526  0.2369
 8372TIP3   OH246530   1.427   4.285   1.025 -0.7253  0.2055  0.0130
 8372TIP3    H146531   1.446   4.239   0.943  0.3979 -1.0614  0.9361
 8372TIP3    H246532   1.337   4.261   1.046 -1.1032  0.7270 -0.9476
 8373TIP3   OH246533   3.858   4.374   3.759  0.4700 -0.5683  0.1827
 8373TIP3    H146534   3.816   4.289   3.747  1.8651 -1.4613  1.2297
 8373TIP3    H246535   3.852   4.416   3.673 -0.1644 -1.7563 -0.3806
 8374TIP3   OH246536   4.185   2.025  14.412  0.1372 -0.0099  0.2730
 8374TIP3    H146537   4.152   1.943  14.447  0.0198 -0.2796 -0.4654
 8374TIP3    H246538   4.180   2.086  14.486  0.6406 -0.7721  0.9443
 8375TIP3   OH246539   4.423   2.395  15.047 -0.3220 -0.0717 -0.4003
 8375TIP3    H146540   4.331   2.406  15.025 -0.8430  0.7629  1.9988
 8375TIP3    H246541   4.440   2.459  15.116  1.6108 -1.3468  0.3907
 8376TIP3   OH246542   4.495   0.020  11.523  0.0699 -0.5396  0.3116
 8376TIP3    H146543   4.528   0.108  11.538 -0.0154 -0.8216  2.4217
 8376TIP3    H246544   4.408   0.019  11.564 -0.4161 -1.2910 -0.6857
 8377TIP3   OH246545   1.320   1.942   2.032 -0.1740  0.4073 -0.5542
 8377TIP3    H146546   1.414   1.950   2.044 -0.1881 -0.5379  0.3832
 8377TIP3    H246547   1.284   1.940   2.121 -0.7824 -1.9487 -0.7600
 8378TIP3   OH246548   4.134   4.392   5.959  0.0947  0.3457  0.1493
 8378TIP3    H146549   4.074   4.355   6.023 -1.3742  1.6553 -0.3982
 8378TIP3    H246550   4.134   4.486   5.978  0.7655  0.5689 -0.8455
 8379TIP3   OH246551   4.356   1.103  10.986  0.6556  0.8636  0.6130
 8379TIP3    H146552   4.318   1.098  10.898 -0.8453  1.1365  1.2126
 8379TIP3    H246553   4.446   1.074  10.975  0.5371  1.0316 -1.0419
 8380TIP3   OH246554   1.662   5.197   2.567 -0.2689  0.4578  0.1260
 8380TIP3    H146555   1.607   5.119   2.563 -0.6339  0.7221 -0.0261
 8380TIP3    H246556   1.602   5.269   2.587 -0.2709  1.0282 -1.7331
 8381TIP3   OH246557   2.015   2.355  11.265 -0.3254 -0.1876  0.1264
 8381TIP3    H146558   2.004   2.417  11.193  2.1377 -0.4425 -0.5688
 8381TIP3    H246559   1.971   2.275  11.236 -0.0201 -0.0432 -0.7664
 8382TIP3   OH246560   1.450   2.917   1.961 -0.1733 -0.0475  0.2021
 8382TIP3    H146561   1.523   2.976   1.942 -0.8484  0.7661  0.0632
 8382TIP3    H246562   1.375   2.957   1.917 -0.4542 -1.5581 -0.7637
 8383TIP3   OH246563   0.438   2.327   0.111  0.0223  0.7278 -0.0226
 8383TIP3    H146564   0.495   2.313   0.034  0.7374  1.3303  0.3809
 8383TIP3    H246565   0.361   2.273   0.093  0.9368 -0.5469 -0.3465
 8384TIP3   OH246566   3.925   3.767   0.922  0.5318  0.4626  0.2988
 8384TIP3    H146567   3.994   3.803   0.979 -0.3363  1.2568  0.8711
 8384TIP3    H246568   3.847   3.816   0.945 -1.2909 -3.1363  2.6256
 8385TIP3   OH246569   6.236   2.978  11.434  0.3744  0.3270  0.2407
 8385TIP3    H146570   6.275   2.998  11.520  2.2711 -0.2522 -0.4262
 8385TIP3    H246571   6.291   3.026  11.372 -0.7924  0.4872 -0.6790
 8386TIP3   OH246572   2.146   2.815   3.256  0.3367  0.5063 -0.3439
 8386TIP3    H146573   2.080   2.880   3.281 -1.2065 -0.7591 -0.9358
 8386TIP3    H246574   2.163   2.766   3.336 -0.8972 -0.3649 -0.5809
 8387TIP3   OH246575   0.095   4.730   3.035 -0.4410  0.0038 -0.3639
 8387TIP3    H146576   0.005   4.758   3.020 -0.9057 -1.4057 -0.3095
 8387TIP3    H246577   0.128   4.707   2.948 -1.0094 -1.9369 -0.1194
 8388TIP3   OH246578   2.324   4.789  15.920  0.0879  0.2140 -0.1986
 8388TIP3    H146579   2.373   4.826  15.994 -1.8377 -0.1167  1.3019
 8388TIP3    H246580   2.236   4.825  15.930 -1.1827 -2.6788 -0.2032
 8389TIP3   OH246581   0.956   1.193   2.999 -1.0431 -0.2286 -0.2540
 8389TIP3    H146582   1.013   1.133   3.047 -0.7030  0.2860 -0.0093
 8389TIP3    H246583   0.998   1.203   2.913 -0.5633  0.4289  0.0490
 8390TIP3   OH246584   3.862   0.867   1.100  0.5335 -0.1492  0.5101
 8390TIP3    H146585   3.895   0.817   1.175  0.0282 -0.5025  0.5008
 8390TIP3    H246586   3.878   0.959   1.124  1.4862 -0.3033  0.5156
 8391TIP3   OH246587   3.656   2.445   5.505  0.3099  0.2232  0.0963
 8391TIP3    H146588   3.680   2.451   5.598  3.7110  2.4909 -0.7628
 8391TIP3    H246589   3.560   2.439   5.506  0.1176  1.2872  3.6987
 8392TIP3   OH246590   5.463   0.010  12.414  0.6271  0.1696  0.1583
 8392TIP3    H146591   5.399   0.081  12.408  0.1490 -0.1988  0.7498
 8392TIP3    H246592   5.514   0.016  12.333  1.5455  2.0936  0.8070
 8393TIP3   OH246593   4.550   4.576  11.516 -0.0314 -0.5575  0.2937
 8393TIP3    H146594   4.484   4.537  11.459  0.9425 -2.5062  0.4291
 8393TIP3    H246595   4.626   4.591  11.459 -0.1536  0.5924  0.3943
 8394TIP3   OH246596   0.473   3.097  15.769 -0.2425 -0.3890  0.1353
 8394TIP3    H146597   0.544   3.038  15.793 -0.6804 -0.6805  0.7454
 8394TIP3    H246598   0.515   3.183  15.760  0.3273 -0.7127 -0.3663
 8395TIP3   OH246599   0.796   3.343   4.226 -0.1600  0.5893 -0.3810
 8395TIP3    H146600   0.827   3.362   4.138  0.3628  1.5892  0.0139
 8395TIP3    H246601   0.748   3.421   4.253 -2.0933 -0.4708 -0.5342
 8396TIP3   OH246602   5.700   3.115  13.628  0.0297 -0.0859 -0.0447
 8396TIP3    H146603   5.608   3.089  13.616  0.1244 -0.1391 -0.6902
 8396TIP3    H246604   5.750   3.035  13.610  0.1649 -0.3243  1.2929
 8397TIP3   OH246605   4.378   0.922   0.085  0.0015  0.1047  0.0554
 8397TIP3    H146606   4.467   0.934   0.119 -0.1731 -0.6549  0.8284
 8397TIP3    H246607   4.386   0.931  -0.010  1.2123 -1.6392 -0.0438
 8398TIP3   OH246608   3.581   2.466   4.561 -0.2775  0.0336  0.0840
 8398TIP3    H146609   3.498   2.419   4.562 -0.6035  0.4655 -1.7931
 8398TIP3    H246610   3.647   2.399   4.580 -0.9490 -0.5854  0.2659
 8399TIP3   OH246611   6.322   2.045  11.555 -0.0590  0.7031 -0.0356
 8399TIP3    H146612   6.262   1.979  11.522 -0.0918  0.6165  0.1933
 8399TIP3    H246613   6.265   2.115  11.587 -0.0076  1.3432 -1.2893
 8400TIP3   OH246614   1.147   4.185  11.389 -0.1865  0.2416  0.0292
 8400TIP3    H146615   1.096   4.266  11.390  0.0772  0.4589  2.8205
 8400TIP3    H246616   1.113   4.134  11.462  1.2566 -1.1545 -0.2095
 8401TIP3   OH246617   0.936   2.280   0.442  0.0537 -0.3876  0.1681
 8401TIP3    H146618   0.904   2.251   0.357 -0.3939 -2.7113  1.0303
 8401TIP3    H246619   0.867   2.254   0.503 -0.2102  2.3702  1.1491
 8402TIP3   OH246620   3.365   4.446   5.339 -0.5223  0.0962 -0.1275
 8402TIP3    H146621   3.343   4.420   5.249 -2.1233  0.7763  0.0172
 8402TIP3    H246622   3.294   4.409   5.392  0.2303 -0.0153  0.8195
 8403TIP3   OH246623   2.984   6.255  11.119  0.0294 -0.2258  0.0700
 8403TIP3    H146624   3.003   6.288  11.031  3.0861  0.0827  0.7234
 8403TIP3    H246625   2.929   6.179  11.105 -2.4175  1.7159 -1.8554
 8404TIP3   OH246626   0.562   5.083  11.573  0.6278 -0.0625  0.3656
 8404TIP3    H146627   0.596   5.087  11.662  0.2516  1.1076  0.4805
 8404TIP3    H246628   0.491   5.148  11.571  1.2120  0.5842 -1.0137
 8405TIP3   OH246629   6.605   2.935   4.886  0.1704 -0.1096 -0.6541
 8405TIP3    H146630   6.546   2.899   4.820  0.3425 -1.6334 -0.0222
 8405TIP3    H246631   6.640   3.015   4.846  0.6823 -1.2528 -2.6096
 8406TIP3   OH246632   2.235   5.103   1.747  0.5519 -0.0832 -0.2226
 8406TIP3    H146633   2.273   5.113   1.834  2.0586 -0.3723 -0.8207
 8406TIP3    H246634   2.252   5.186   1.703 -0.4729  0.1731 -0.1580
 8407TIP3   OH246635   5.887   4.553   1.644  0.0801  0.1294  0.5050
 8407TIP3    H146636   5.943   4.529   1.718  0.4799 -0.3080  0.0626
 8407TIP3    H246637   5.919   4.639   1.617  0.4051 -0.0276  0.3839
 8408TIP3   OH246638   3.340   6.741  16.899 -0.4249 -0.8228  0.5239
 8408TIP3    H146639   3.419   6.732  16.953  0.5632 -0.9445 -0.8947
 8408TIP3    H246640   3.361   6.811  16.837 -1.3190 -1.0678 -0.0827
 8409TIP3   OH246641   0.585   4.609   2.860 -0.2352 -0.1204 -0.2469
 8409TIP3    H146642   0.594   4.667   2.935  0.2516 -1.9543  1.1912
 8409TIP3    H246643   0.655   4.637   2.800  1.0404 -0.2523  1.1371
 8410TIP3   OH246644   3.828   0.591   3.183 -0.4471 -0.6889 -0.0962
 8410TIP3    H146645   3.761   0.621   3.244  0.3212  0.8287  0.0457
 8410TIP3    H246646   3.907   0.638   3.209 -0.1587  0.2612 -2.4437
 8411TIP3   OH246647   5.931   0.863   4.703  0.0021 -0.3416  0.4485
 8411TIP3    H146648   5.918   0.806   4.627  0.3852  0.3326 -0.1316
 8411TIP3    H246649   5.917   0.805   4.778 -1.0908 -0.8603 -0.1244
 8412TIP3   OH246650   0.290   1.913   0.220 -0.6738  0.0600  0.5511
 8412TIP3    H146651   0.276   1.936   0.312 -1.8831  1.7422 -0.0071
 8412TIP3    H246652   0.202   1.896   0.186 -0.1730 -1.3292 -0.1316
 8413TIP3   OH246653   1.894   5.145   2.266  0.5782  0.3192  0.3305
 8413TIP3    H146654   1.874   5.051   2.272 -0.9929  0.5964 -0.2085
 8413TIP3    H246655   1.975   5.149   2.214 -0.1381 -0.6739 -0.9167
 8414TIP3   OH246656   0.564   2.229   1.364  0.3927  0.0483  0.0188
 8414TIP3    H146657   0.658   2.243   1.349  0.8219 -1.3421  1.0949
 8414TIP3    H246658   0.537   2.303   1.418  1.1288 -0.0381  0.5296
 8415TIP3   OH246659   4.743   6.542   0.779  0.0070  0.7306  0.7099
 8415TIP3    H146660   4.764   6.486   0.853  0.4933 -1.1454 -0.7795
 8415TIP3    H246661   4.825   6.552   0.732 -0.8787 -0.8968 -1.3488
 8416TIP3   OH246662   6.054   5.382   4.517  0.4087 -0.8339 -0.0742
 8416TIP3    H146663   6.103   5.408   4.595  0.0826  0.2740 -0.2114
 8416TIP3    H246664   5.963   5.405   4.537  0.5338  1.0590 -1.3695
 8417TIP3   OH246665   1.276   1.473  12.723  0.2127 -0.0142 -0.1384
 8417TIP3    H146666   1.187   1.440  12.729 -0.0032  0.2031 -1.7937
 8417TIP3    H246667   1.330   1.403  12.760 -0.6295 -0.0976  0.9825
 8418TIP3   OH246668   6.479   2.509   1.072  0.0400  0.0296 -0.2704
 8418TIP3    H146669   6.444   2.577   1.129  0.4757  1.2009 -1.3595
 8418TIP3    H246670   6.451   2.535   0.984 -0.5681 -1.7008 -0.6392
 8419TIP3   OH246671   2.145   2.424  15.984  0.2467 -0.1353 -0.7408
 8419TIP3    H146672   2.171   2.357  15.920 -0.8226 -1.5790  0.2570
 8419TIP3    H246673   2.051   2.438  15.967 -0.1173 -0.7488  0.6616
 8420TIP3   OH246674   2.369   5.487  14.069 -0.5148 -0.7438 -0.5535
 8420TIP3    H146675   2.433   5.432  14.115 -0.4482  0.8501  1.3734
 8420TIP3    H246676   2.295   5.493  14.130 -0.2281  1.8283 -0.3496
 8421TIP3   OH246677   5.455   6.732   5.611 -0.0292  0.1489 -0.2866
 8421TIP3    H146678   5.530   6.775   5.570  1.0838  0.0851  1.5813
 8421TIP3    H246679   5.429   6.665   5.548  0.5762  1.0728 -1.5819
 8422TIP3   OH246680   3.421   4.621  14.683  0.2336 -0.2736 -0.0649
 8422TIP3    H146681   3.485   4.575  14.629 -0.1810 -0.8177 -0.1051
 8422TIP3    H246682   3.389   4.692  14.627  2.5400  1.5431  0.7797
 8423TIP3   OH246683   4.806   2.133   3.596  0.0273  0.5700  0.3416
 8423TIP3    H146684   4.897   2.104   3.596  0.2960  1.3688  0.4422
 8423TIP3    H246685   4.765   2.084   3.525  0.1663 -0.8783  1.2159
 8424TIP3   OH246686   4.205   6.419   1.749  0.3696  0.2142  0.0667
 8424TIP3    H146687   4.134   6.450   1.806 -0.1526 -1.5330  0.4521
 8424TIP3    H246688   4.267   6.492   1.745  0.4953  0.4031  3.0021
 8425TIP3   OH246689   4.062   3.662   0.700  0.4818  0.5718 -0.4641
 8425TIP3    H146690   4.016   3.711   0.768  1.8315  3.6687 -1.5690
 8425TIP3    H246691   4.142   3.631   0.742 -1.5133 -3.2368  0.9579
 8426TIP3   OH246692   3.680   4.491   4.128 -0.2874  0.2564  0.1553
 8426TIP3    H146693   3.627   4.482   4.207 -1.4119  0.4250 -0.5447
 8426TIP3    H246694   3.617   4.519   4.061  0.4496 -0.8115 -1.0187
 8427TIP3   OH246695   5.599   5.481  14.988 -0.5141 -0.4878 -0.2354
 8427TIP3    H146696   5.640   5.485  14.902  0.9965 -1.2503  0.4183
 8427TIP3    H246697   5.580   5.388  15.002 -0.5117 -0.4069  0.3498
 8428TIP3   OH246698   0.936   4.738   5.997 -0.1318  0.0264 -0.4457
 8428TIP3    H146699   1.017   4.702   6.034 -0.1649  0.4800  0.0873
 8428TIP3    H246700   0.866   4.687   6.038 -0.1502  0.2360 -0.2134
 8429TIP3   OH246701   5.012   2.427   0.198 -0.7240  0.0684  0.0779
 8429TIP3    H146702   4.935   2.385   0.237 -0.2058 -0.1077  0.9360
 8429TIP3    H246703   5.024   2.381   0.115 -1.9073  0.5175 -0.3749
 8430TIP3   OH246704   3.561   3.320  13.672  0.4321  0.3481  0.0689
 8430TIP3    H146705   3.595   3.232  13.689 -1.0717 -0.6256 -1.6946
 8430TIP3    H246706   3.583   3.337  13.581 -1.4786  0.7419 -0.3618
 8431TIP3   OH246707   1.264   4.829  13.032 -0.2338  0.1244  0.7870
 8431TIP3    H146708   1.356   4.800  13.033 -0.3747 -0.4233 -0.2097
 8431TIP3    H246709   1.268   4.921  13.058  0.9531  0.9162 -1.8393
 8432TIP3   OH246710   4.767   3.076   2.655  0.2673 -1.2525  0.0201
 8432TIP3    H146711   4.798   3.098   2.568  0.1908 -1.1986  0.0061
 8432TIP3    H246712   4.846   3.061   2.706  0.3929  0.7477  0.4867
 8433TIP3   OH246713   5.455   0.128  16.861 -0.2115  0.0371 -0.5007
 8433TIP3    H146714   5.417   0.130  16.773 -1.6004 -0.0023  0.0749
 8433TIP3    H246715   5.424   0.208  16.903  0.2625 -0.0522  0.0332
 8434TIP3   OH246716   0.555   3.717  15.683 -0.4892  0.4911  0.0134
 8434TIP3    H146717   0.496   3.792  15.684 -0.3776  0.5794 -0.0601
 8434TIP3    H246718   0.643   3.755  15.676 -0.5365  0.2882 -2.6067
 8435TIP3   OH246719   5.576   0.300   2.299 -0.0485 -0.4636  0.0752
 8435TIP3    H146720   5.574   0.281   2.393 -1.0146 -1.2278 -0.0724
 8435TIP3    H246721   5.549   0.217   2.258  1.7213 -0.5855 -0.9617
 8436TIP3   OH246722   0.224   4.652  15.258 -0.4091 -0.0654 -0.1278
 8436TIP3    H146723   0.255   4.603  15.182 -0.1869  0.4778 -0.3908
 8436TIP3    H246724   0.289   4.634  15.326  0.5395  1.0865 -0.6818
 8437TIP3   OH246725   4.011   4.803  15.161  0.4555 -0.3370 -0.3975
 8437TIP3    H146726   4.032   4.720  15.204  2.0288 -0.4400 -1.3130
 8437TIP3    H246727   4.040   4.791  15.070 -0.7772  0.6577 -0.9472
 8438TIP3   OH246728   4.601   3.009  12.225 -0.5570 -0.3814  0.8450
 8438TIP3    H146729   4.565   3.096  12.245  2.7112  0.9278  1.8143
 8438TIP3    H246730   4.648   2.984  12.305  1.7683 -1.2264 -0.6889
 8439TIP3   OH246731   4.784   0.441  12.915  0.3480  0.1521  0.3355
 8439TIP3    H146732   4.806   0.348  12.920  0.8972  0.3144  1.5317
 8439TIP3    H246733   4.864   0.483  12.884 -0.1754  0.1450 -1.0525
 8440TIP3   OH246734   2.552   4.813  12.651 -0.2566 -0.2481  0.0197
 8440TIP3    H146735   2.604   4.893  12.658  0.7075 -0.8235 -0.2816
 8440TIP3    H246736   2.539   4.784  12.741 -0.7943  0.3498  0.1426
 8441TIP3   OH246737   3.911   2.775  17.010 -0.1103  0.1677  0.3326
 8441TIP3    H146738   3.842   2.717  17.043 -1.2889  0.8487 -0.8104
 8441TIP3    H246739   3.980   2.715  16.981 -0.3656 -0.5557  1.1708
 8442TIP3   OH246740   4.292   1.147  16.206  0.5775  0.4108 -0.3808
 8442TIP3    H146741   4.219   1.144  16.144  1.0317  0.9023 -0.9562
 8442TIP3    H246742   4.367   1.117  16.155  0.6533 -0.8410  0.4198
 8443TIP3   OH246743   3.491   5.696   0.230  0.0226 -0.1564  0.1850
 8443TIP3    H146744   3.469   5.755   0.158 -0.8883 -0.4150  0.2506
 8443TIP3    H246745   3.567   5.647   0.197 -0.0651  0.0875 -0.3960
 8444TIP3   OH246746   4.860   5.076  17.011  0.3073  0.2997  0.1879
 8444TIP3    H146747   4.953   5.059  17.000  0.1797 -0.7800  0.5753
 8444TIP3    H246748   4.818   5.022  16.943 -0.0555  0.4228  0.3110
 8445TIP3   OH246749   6.780   1.451  11.815  0.2008  0.0688 -0.3812
 8445TIP3    H146750   6.795   1.485  11.726 -2.5134  0.8485 -0.6090
 8445TIP3    H246751   6.728   1.519  11.858 -0.8751 -1.5099  0.8926
 8446TIP3   OH246752   4.881   0.504  14.074 -0.5617  0.6434 -0.2289
 8446TIP3    H146753   4.934   0.534  14.000  0.1867 -0.0506  0.0112
 8446TIP3    H246754   4.945   0.483  14.142 -1.1468 -0.2348  0.0661
 8447TIP3   OH246755   2.990   3.463  13.764  0.1637  0.0044  0.1888
 8447TIP3    H146756   2.927   3.398  13.732 -0.5909  1.1860 -0.8200
 8447TIP3    H246757   2.966   3.477  13.855 -1.9578  1.4132 -0.5212
 8448TIP3   OH246758   2.012   6.507  14.017  0.0167 -0.2117  0.0462
 8448TIP3    H146759   1.960   6.492  13.939  0.6365  0.3802 -0.4916
 8448TIP3    H246760   2.098   6.472  13.997 -0.0377 -0.7924  0.7703
 8449TIP3   OH246761   1.462   4.592  17.017  0.3258  0.0252  0.0581
 8449TIP3    H146762   1.380   4.636  17.040 -0.1056 -1.1624  0.8910
 8449TIP3    H246763   1.458   4.582  16.922  0.4163  1.6957 -0.1457
 8450TIP3   OH246764   5.874   6.335  15.990  0.0719 -0.5710 -0.7304
 8450TIP3    H146765   5.790   6.302  16.020  0.1589 -1.1078 -1.0640
 8450TIP3    H246766   5.906   6.269  15.929 -0.1913  0.5914 -2.1844
 8451TIP3   OH246767   2.356   5.961   1.039  0.4976  0.0496  0.1730
 8451TIP3    H146768   2.331   6.050   1.064  3.0184  0.6101  1.0389
 8451TIP3    H246769   2.452   5.961   1.043  0.6499 -2.2797 -1.3631
 8452TIP3   OH246770   1.472   1.866   3.540 -0.3958  0.2196  0.4805
 8452TIP3    H146771   1.486   1.791   3.598 -2.0506  0.3905  1.1491
 8452TIP3    H246772   1.409   1.834   3.475 -1.1522  1.0078  0.7990
 8453TIP3   OH246773   1.862   5.806   2.570  0.0492  0.1435 -0.9864
 8453TIP3    H146774   1.872   5.821   2.476  1.1633  2.5758 -0.5489
 8453TIP3    H246775   1.948   5.825   2.608 -0.5886  0.0320  0.6197
 8454TIP3   OH246776   4.173   6.002  11.354  0.5457  0.1975 -0.0119
 8454TIP3    H146777   4.232   5.971  11.285  0.8530 -0.3622  0.4918
 8454TIP3    H246778   4.207   6.089  11.377 -0.2549  0.9008 -1.3531
 8455TIP3   OH246779   1.056   2.113   1.443  0.4734  0.1904  0.2636
 8455TIP3    H146780   1.058   2.018   1.455  0.6664  0.2221  0.4944
 8455TIP3    H246781   0.999   2.126   1.368 -0.0161 -0.0751  0.5858
 8456TIP3   OH246782   2.576   5.218   4.151 -0.6328  0.1128  0.0254
 8456TIP3    H146783   2.551   5.208   4.243 -1.9145 -0.8402 -0.4073
 8456TIP3    H246784   2.503   5.181   4.102 -0.4876  1.6396 -1.4250
 8457TIP3   OH246785   1.134   3.778   6.487  0.4302 -0.0476  0.5319
 8457TIP3    H146786   1.193   3.709   6.456  1.0891  0.0607  1.4810
 8457TIP3    H246787   1.047   3.752   6.457  0.8299 -0.7360 -0.0349
 8458TIP3   OH246788   0.867   3.314  14.217 -0.2321 -0.2754 -0.9675
 8458TIP3    H146789   0.852   3.228  14.177 -0.4679 -1.5330  1.6462
 8458TIP3    H246790   0.962   3.326  14.210 -0.1348 -0.9681 -0.9269
 8459TIP3   OH246791   3.534   3.604   0.697 -0.0660  0.0385 -0.2323
 8459TIP3    H146792   3.484   3.665   0.642 -0.5685 -0.0852  0.0728
 8459TIP3    H246793   3.539   3.648   0.782  1.8130  0.8126 -0.6931
 8460TIP3   OH246794   2.513   0.034  15.270 -0.6647 -0.2352  0.0396
 8460TIP3    H146795   2.421   0.053  15.252 -0.1765  0.2885 -2.3246
 8460TIP3    H246796   2.517  -0.061  15.275 -1.2888 -0.2771 -0.1301
 8461TIP3   OH246797   1.359   5.018   0.123  0.1231  0.1451 -0.1770
 8461TIP3    H146798   1.448   5.036   0.093  0.1191 -0.4209 -0.5294
 8461TIP3    H246799   1.370   4.968   0.203  0.1200  0.3055 -0.0750
 8462TIP3   OH246800   3.598   3.655  13.946  0.0326  0.1048  0.2684
 8462TIP3    H146801   3.527   3.677  13.884  1.2315 -0.5565 -1.4163
 8462TIP3    H246802   3.650   3.589  13.900 -0.3387 -2.2562  2.9596
 8463TIP3   OH246803   3.715   0.396   5.146 -0.0938  0.5269  0.9580
 8463TIP3    H146804   3.751   0.315   5.110 -0.5851 -0.4467  2.5658
 8463TIP3    H246805   3.716   0.384   5.240 -0.5727  2.2403  1.2271
 8464TIP3   OH246806   6.077   4.176   1.946  0.0510  0.1050  0.3976
 8464TIP3    H146807   6.108   4.230   2.019  1.1052 -0.9954  0.7963
 8464TIP3    H246808   5.983   4.191   1.944 -0.5243 -2.0070  3.8868
 8465TIP3   OH246809   6.611   3.712  12.229 -0.2110 -0.0557 -0.5519
 8465TIP3    H146810   6.704   3.699  12.250 -0.4306 -0.1920  0.3824
 8465TIP3    H246811   6.565   3.652  12.287 -0.8445 -0.8835 -1.8655
 8466TIP3   OH246812   2.176   1.921  16.624 -0.1612  0.1938  0.0199
 8466TIP3    H146813   2.159   1.863  16.699 -0.6551  0.5524  0.1999
 8466TIP3    H246814   2.125   1.883  16.553  0.3090 -0.1480 -0.1299
 8467TIP3   OH246815   5.632   2.967  16.838 -0.1905 -0.1373 -0.2111
 8467TIP3    H146816   5.639   2.942  16.746 -0.9965 -0.3604 -0.2215
 8467TIP3    H246817   5.718   2.950  16.874  0.2133  0.1912 -0.9835
 8468TIP3   OH246818   0.677   2.680  14.311  0.5600  0.4658 -0.2696
 8468TIP3    H146819   0.638   2.620  14.247 -1.2421 -0.1672  1.3519
 8468TIP3    H246820   0.647   2.767  14.283 -0.3786  0.1774 -0.2057
 8469TIP3   OH246821   4.357   3.481   2.924 -0.0900 -0.2402 -0.1029
 8469TIP3    H146822   4.434   3.456   2.872 -0.0256  3.0347 -1.8131
 8469TIP3    H246823   4.346   3.574   2.908 -2.3933  0.1620  2.8902
 8470TIP3   OH246824   2.770   2.745  13.271 -0.0048  0.3474 -0.1490
 8470TIP3    H146825   2.794   2.657  13.300  0.1304  0.4742  0.1291
 8470TIP3    H246826   2.814   2.755  13.186 -0.8021 -0.2088 -0.6393
 8471TIP3   OH246827   5.346   0.337   2.477  0.2087 -0.1817  0.7708
 8471TIP3    H146828   5.427   0.364   2.521  0.8722  0.2205 -0.6211
 8471TIP3    H246829   5.323   0.254   2.518  0.9496  0.0294  1.6544
 8472TIP3   OH246830   4.629   6.343   4.817  0.2302  0.6878 -0.4194
 8472TIP3    H146831   4.570   6.403   4.771 -0.0811  1.4156  0.8761
 8472TIP3    H246832   4.607   6.257   4.782 -0.2610  1.1663 -1.3410
 8473TIP3   OH246833   2.764   4.811  12.038 -0.5273  0.6576  0.6112
 8473TIP3    H146834   2.810   4.869  11.978 -1.3432  0.8413  0.1432
 8473TIP3    H246835   2.779   4.848  12.125 -1.0678  1.6075  0.3148
 8474TIP3   OH246836   3.750   5.727   6.512  0.3250  0.3403  0.6187
 8474TIP3    H146837   3.686   5.784   6.554 -0.1091  0.3450 -0.0304
 8474TIP3    H246838   3.703   5.689   6.437  0.7041 -0.6127  0.8500
 8475TIP3   OH246839   0.463   0.409  15.855 -0.0664 -0.6796  0.3590
 8475TIP3    H146840   0.503   0.354  15.787 -2.3620 -2.2297  0.1260
 8475TIP3    H246841   0.454   0.350  15.930 -0.5448  0.0414  0.8758
 8476TIP3   OH246842   0.799   5.081  14.531 -0.5181 -0.1647 -0.1844
 8476TIP3    H146843   0.726   5.038  14.487 -0.5134  0.7493 -1.1273
 8476TIP3    H246844   0.759   5.130  14.603 -0.5977 -1.1565  0.4686
 8477TIP3   OH246845   5.308   1.636   1.905 -0.7953  0.6084 -0.3449
 8477TIP3    H146846   5.366   1.711   1.898  0.0538 -0.0738 -0.8942
 8477TIP3    H246847   5.244   1.647   1.835 -0.2033  0.4399 -0.9237
 8478TIP3   OH246848   3.646   5.575  14.896 -0.2149  0.2130 -0.3095
 8478TIP3    H146849   3.651   5.657  14.847  1.3615  0.6716  0.5218
 8478TIP3    H246850   3.561   5.577  14.940  0.0457  1.6952  0.1651
 8479TIP3   OH246851   6.132   5.965   5.191 -0.2227  0.6843 -0.2520
 8479TIP3    H146852   6.129   6.022   5.268  0.9381 -0.2142  0.4855
 8479TIP3    H246853   6.052   5.913   5.197  0.3794 -0.1419  0.9803
 8480TIP3   OH246854   1.270   2.304  13.317 -0.1222 -0.3373 -0.0218
 8480TIP3    H146855   1.354   2.280  13.356 -0.8613  1.7931  3.3786
 8480TIP3    H246856   1.213   2.229  13.332  0.2375 -0.4005  1.0859
 8481TIP3   OH246857   2.212   1.059  15.237 -0.7461  0.0244  0.3521
 8481TIP3    H146858   2.252   1.106  15.164 -0.6598  0.8320  0.9040
 8481TIP3    H246859   2.128   1.028  15.203 -1.0554  1.0691  0.1347
 8482TIP3   OH246860   5.271   1.942  12.591 -0.4660  0.5898  0.2146
 8482TIP3    H146861   5.362   1.966  12.576 -0.1045 -0.5967  0.3985
 8482TIP3    H246862   5.266   1.927  12.686  0.1272 -2.9021 -0.1583
 8483TIP3   OH246863   1.648   2.991  13.767 -0.0130 -0.1142 -0.1544
 8483TIP3    H146864   1.564   2.961  13.802 -0.1213  1.2897  0.8509
 8483TIP3    H246865   1.629   3.011  13.675 -0.2073 -1.9309 -0.5513
 8484TIP3   OH246866   4.578   4.843  13.080  0.7417 -0.7759  0.2763
 8484TIP3    H146867   4.577   4.748  13.091 -0.6035 -0.7091  0.8805
 8484TIP3    H246868   4.638   4.874  13.148  0.9203 -1.1709  0.2969
 8485TIP3   OH246869   1.491   5.859  17.056 -0.3230 -0.1136  0.2514
 8485TIP3    H146870   1.569   5.835  17.006 -0.5103 -0.1531 -0.0218
 8485TIP3    H246871   1.462   5.778  17.096 -1.0334 -0.4012 -0.7821
 8486TIP3   OH246872   1.873   6.051   3.401  0.0095  0.0532  0.0772
 8486TIP3    H146873   1.864   6.126   3.342 -1.9204 -0.5001 -0.4056
 8486TIP3    H246874   1.948   6.002   3.366  0.8874  1.3855  0.0170
 8487TIP3   OH246875   4.147   1.715   1.173 -0.1851 -0.1477 -0.3495
 8487TIP3    H146876   4.098   1.738   1.252  0.5492  1.7349 -0.4055
 8487TIP3    H246877   4.112   1.773   1.106  1.1095  0.2172 -0.7252
 8488TIP3   OH246878   5.085   5.454  13.289 -0.1261  0.3081  0.2132
 8488TIP3    H146879   5.135   5.509  13.229 -0.7328  0.6859  0.0498
 8488TIP3    H246880   5.006   5.503  13.307  1.1941  1.5495  3.5124
 8489TIP3   OH246881   6.311   3.254  13.082  0.2358  0.8902 -0.2397
 8489TIP3    H146882   6.233   3.200  13.069 -0.8110  2.2355  0.2418
 8489TIP3    H246883   6.380   3.191  13.105 -1.0535 -0.2185  0.7849
 8490TIP3   OH246884   5.332   4.792   0.216  0.0575 -0.4844 -0.5841
 8490TIP3    H146885   5.392   4.838   0.157  0.7773 -0.6832 -0.0297
 8490TIP3    H246886   5.322   4.851   0.291 -0.0426 -0.6717 -0.4486
 8491TIP3   OH246887   5.445   5.414  14.686  0.9505 -0.8582 -0.1611
 8491TIP3    H146888   5.419   5.356  14.757 -0.7022 -0.8097 -0.6828
 8491TIP3    H246889   5.427   5.502  14.720 -0.9031 -0.8769 -0.9918
 8492TIP3   OH246890   0.021   4.382   0.982  0.2673  0.1234 -0.2409
 8492TIP3    H146891   0.035   4.474   1.005  1.6370 -0.0551 -0.2737
 8492TIP3    H246892  -0.043   4.351   1.046 -0.1023  1.0479 -0.1331
 8493TIP3   OH246893   3.026   5.334  12.889  0.2384  0.3028 -0.2892
 8493TIP3    H146894   3.092   5.266  12.899 -0.3970 -0.3141 -0.2550
 8493TIP3    H246895   3.072   5.416  12.910  0.9456 -0.1378 -0.1205
 8494TIP3   OH246896   3.741   3.682  12.143  0.8670 -0.4543 -0.1364
 8494TIP3    H146897   3.682   3.713  12.212 -0.1786 -2.6273  0.0145
 8494TIP3    H246898   3.693   3.697  12.062  0.2765 -1.7688 -0.0492
 8495TIP3   OH246899   3.546   2.558   1.337 -0.0044 -0.1569 -0.0945
 8495TIP3    H146900   3.616   2.543   1.400 -1.0890  1.2189  1.5218
 8495TIP3    H246901   3.494   2.478   1.339 -0.4809  0.1663  1.3997
 8496TIP3   OH246902   6.435   0.585  11.030 -0.2004 -0.0719 -0.1602
 8496TIP3    H146903   6.423   0.646  10.958 -0.4783  1.5187  1.1738
 8496TIP3    H246904   6.357   0.597  11.085  0.3784 -0.6525  0.8237
 8497TIP3   OH246905   4.377   3.087   4.065  0.3191  0.4014  0.3709
 8497TIP3    H146906   4.428   3.012   4.034  1.0891  1.4977 -1.1392
 8497TIP3    H246907   4.301   3.091   4.006 -0.4748  0.0079  1.3266
 8498TIP3   OH246908   4.892   0.250   4.514 -0.2539  0.4379 -0.3599
 8498TIP3    H146909   4.948   0.310   4.464 -0.4653  0.4397 -0.5923
 8498TIP3    H246910   4.836   0.307   4.566 -0.4396  0.4389 -0.5638
 8499TIP3   OH246911   2.451   4.893  15.666 -0.1166  0.1882  0.0985
 8499TIP3    H146912   2.417   4.970  15.711 -1.3275 -0.6809  0.7261
 8499TIP3    H246913   2.418   4.819  15.717  0.1628 -0.7726 -1.0717
 8500TIP3   OH246914   2.130   0.873   3.288  0.6472  0.0081 -0.6094
 8500TIP3    H146915   2.086   0.954   3.262  1.2248 -0.0837 -1.9764
 8500TIP3    H246916   2.172   0.842   3.208  0.6217 -1.5362 -0.0587
 8501TIP3   OH246917   6.291   2.619   0.393  0.2706 -0.6785 -0.6613
 8501TIP3    H146918   6.288   2.586   0.483  2.1979 -1.8896 -0.9808
 8501TIP3    H246919   6.374   2.668   0.389 -2.0244  3.7274 -0.4529
 8502TIP3   OH246920   5.165   0.053  11.938  0.9579  0.5845 -0.2555
 8502TIP3    H146921   5.121   0.113  11.877 -1.0352 -0.3658  0.1315
 8502TIP3    H246922   5.108   0.051  12.015  1.6739 -0.7548  0.2816
 8503TIP3   OH246923   2.410   0.269   5.065  0.0452 -0.2861 -0.2413
 8503TIP3    H146924   2.369   0.190   5.100 -0.0032 -0.1790 -0.0503
 8503TIP3    H246925   2.454   0.309   5.141 -2.1037  1.2455  0.2921
 8504TIP3   OH246926   1.139   0.025  11.874  0.3721 -0.1241  0.1203
 8504TIP3    H146927   1.078   0.078  11.927  1.1141  0.0787  0.7820
 8504TIP3    H246928   1.085  -0.046  11.840 -0.2434  0.0575  0.6940
 8505TIP3   OH246929   0.577   1.039  16.286 -0.6866  0.2100  0.4621
 8505TIP3    H146930   0.575   0.995  16.201 -1.4615  1.4632 -0.1894
 8505TIP3    H246931   0.523   0.983  16.342 -2.3821  0.7078 -0.5821
 8506TIP3   OH246932   5.593   2.029   5.053 -0.3370  0.2246 -0.0300
 8506TIP3    H146933   5.680   2.050   5.020 -0.0143  0.4031  0.9155
 8506TIP3    H246934   5.557   1.969   4.988 -0.2436  1.5902 -1.3903
 8507TIP3   OH246935   3.439   4.389  12.352  0.1400 -0.0366  0.6649
 8507TIP3    H146936   3.362   4.343  12.386  0.6121 -0.3891  1.2783
 8507TIP3    H246937   3.478   4.431  12.429  0.9570 -0.4447  0.4800
 8508TIP3   OH246938   3.308   0.400  13.915 -0.0528 -0.1248 -0.1255
 8508TIP3    H146939   3.295   0.360  14.000  0.3364  0.1143  0.0493
 8508TIP3    H246940   3.397   0.374  13.889  0.0274  0.2296 -0.2215
 8509TIP3   OH246941   3.685   1.944   1.521  0.2100 -0.0506 -0.4208
 8509TIP3    H146942   3.759   1.884   1.533 -0.7840 -1.4092 -0.8670
 8509TIP3    H246943   3.719   2.013   1.464  0.9606 -1.0260 -1.1969
 8510TIP3   OH246944   1.810   4.479  13.753 -1.0487  0.1530 -0.4359
 8510TIP3    H146945   1.737   4.436  13.709 -1.5440  0.7612 -0.2373
 8510TIP3    H246946   1.856   4.527  13.684 -1.6222  0.8288 -0.3659
 8511TIP3   OH246947   5.566   0.032   4.395 -0.0862  0.7425  0.7119
 8511TIP3    H146948   5.505  -0.001   4.460 -0.5662 -1.0315 -0.5586
 8511TIP3    H246949   5.512   0.049   4.318  0.8639 -0.1050 -0.1790
 8512TIP3   OH246950   4.117   5.696  12.539 -0.1966  0.0631 -0.1362
 8512TIP3    H146951   4.196   5.676  12.489 -0.5787  0.4354 -0.9103
 8512TIP3    H246952   4.120   5.637  12.614 -0.2649 -1.4547 -1.2774
 8513TIP3   OH246953   3.285   5.683   4.895  0.0079 -0.8381  0.2078
 8513TIP3    H146954   3.216   5.744   4.920 -0.7430 -1.6668  0.2374
 8513TIP3    H246955   3.330   5.663   4.978 -0.1947 -0.8585  0.3145
 8514TIP3   OH246956   4.146   6.388  12.870  0.4613  0.1814 -0.3568
 8514TIP3    H146957   4.054   6.413  12.863  0.4644  0.1241 -0.5990
 8514TIP3    H246958   4.191   6.439  12.803  0.8652  1.4361  0.8158
 8515TIP3   OH246959   5.644   1.156   5.341  0.0324  0.1223 -0.0765
 8515TIP3    H146960   5.580   1.096   5.304 -0.3263  0.5705 -0.1867
 8515TIP3    H246961   5.717   1.100   5.367 -1.5809 -0.8491  2.8072
 8516TIP3   OH246962   5.734   5.156  16.405  0.0207 -0.0070 -0.3160
 8516TIP3    H146963   5.742   5.235  16.459 -1.0988 -0.3757  0.4080
 8516TIP3    H246964   5.772   5.087  16.459 -1.7790 -0.5173  0.3546
 8517TIP3   OH246965   3.765   0.994  16.155 -0.2551 -0.5535  0.0687
 8517TIP3    H146966   3.677   0.975  16.187 -0.3719  0.1938  0.2061
 8517TIP3    H246967   3.774   0.940  16.076  0.0682 -2.4837  1.3506
 8518TIP3   OH246968   1.196   3.387   1.849  0.7123  0.3478  0.4029
 8518TIP3    H146969   1.161   3.391   1.938 -1.7420 -1.6436 -0.3439
 8518TIP3    H246970   1.174   3.472   1.810 -1.7026 -0.1164  0.5980
 8519TIP3   OH246971   5.993   4.866  14.178  0.4168  0.0904 -0.5239
 8519TIP3    H146972   5.926   4.814  14.223 -2.1560  0.7481 -3.2893
 8519TIP3    H246973   6.060   4.802  14.152 -0.1205 -0.9451  0.5306
 8520TIP3   OH246974   4.127   3.993  15.671 -0.2372  0.5510  0.1303
 8520TIP3    H146975   4.180   4.028  15.743  0.3175  0.4819 -0.2410
 8520TIP3    H246976   4.059   4.059  15.658 -0.7672  0.2430  1.1750
 8521TIP3   OH246977   0.429   4.377  13.649  0.1109  0.0950 -0.0575
 8521TIP3    H146978   0.392   4.363  13.562 -0.9384 -0.1352  0.4152
 8521TIP3    H246979   0.382   4.453  13.684 -1.6030 -1.5570  1.4393
 8522TIP3   OH246980   3.862   6.548  10.668  0.0715 -0.7078 -0.4025
 8522TIP3    H146981   3.914   6.554  10.748 -0.1911 -0.7427 -0.2288
 8522TIP3    H246982   3.878   6.631  10.623 -1.3160  0.1546  0.6290
 8523TIP3   OH246983   2.044   0.471  15.802  0.4870 -0.6469 -0.0612
 8523TIP3    H146984   2.063   0.564  15.818 -0.7196 -0.4740  0.5407
 8523TIP3    H246985   1.954   0.471  15.768  1.2895 -1.4316 -2.3507
 8524TIP3   OH246986   5.197   3.351  15.533 -0.2094 -0.3232  0.6710
 8524TIP3    H146987   5.199   3.446  15.536  0.2480 -0.2307 -1.2447
 8524TIP3    H246988   5.289   3.325  15.531 -0.3339 -0.7964  1.0072
 8525TIP3   OH246989   1.447   1.291   2.272  0.2256  0.6139 -0.3187
 8525TIP3    H146990   1.443   1.257   2.183  2.2454  2.1129 -1.0575
 8525TIP3    H246991   1.516   1.240   2.314 -1.8865 -1.3200  1.0605
 8526TIP3   OH246992   6.368   6.492   5.757  0.2515 -0.0958 -0.2338
 8526TIP3    H146993   6.394   6.400   5.762  2.4258  0.4308 -0.8501
 8526TIP3    H246994   6.356   6.519   5.848  1.5801 -0.5032  0.0871
 8527TIP3   OH246995   1.081   3.806  12.472  0.1854 -0.0707 -0.1231
 8527TIP3    H146996   1.143   3.760  12.528 -1.2267  0.0576  1.6342
 8527TIP3    H246997   1.091   3.765  12.386  1.0526 -1.6219  0.6769
 8528TIP3   OH246998   2.089   0.424   4.543  0.2573  0.4852 -0.1274
 8528TIP3    H146999   2.098   0.421   4.638  1.6835  1.7343 -0.1771
 8528TIP3    H247000   2.001   0.457   4.527 -0.3171 -0.5998  0.7298
 8529TIP3   OH247001   3.437   6.018   1.002 -0.0292 -0.3205 -0.6619
 8529TIP3    H147002   3.526   6.051   1.001  0.2304 -0.9878 -2.3103
 8529TIP3    H247003   3.396   6.060   1.078  0.9837  1.7990 -1.2224
 8530TIP3   OH247004   4.008   1.002  12.966 -0.3477  0.0481 -0.5877
 8530TIP3    H147005   3.970   0.957  13.041 -0.7678  1.1125 -0.1291
 8530TIP3    H247006   3.948   0.985  12.894 -0.4887 -0.1444 -0.4241
 8531TIP3   OH247007   0.851   2.045  17.061 -0.4075  0.3655 -0.3624
 8531TIP3    H147008   0.806   1.969  17.024 -0.3688  0.4334 -0.5477
 8531TIP3    H247009   0.899   2.083  16.988 -0.9984  0.9884 -0.4417
 8532TIP3   OH247010   5.375   6.731   1.808  0.4003  0.2528  0.3087
 8532TIP3    H147011   5.385   6.657   1.867 -0.2968  0.9039  1.2933
 8532TIP3    H247012   5.391   6.808   1.864  3.4056  0.8394 -1.1816
 8533TIP3   OH247013   4.777   2.851  11.373 -0.1162 -0.0805 -0.5830
 8533TIP3    H147014   4.849   2.909  11.397  0.2997 -0.0469 -1.8164
 8533TIP3    H247015   4.738   2.824  11.456  0.2405  1.2603  0.0368
 8534TIP3   OH247016   1.737   0.575  16.521  0.0125  0.2372  0.1164
 8534TIP3    H147017   1.817   0.596  16.569 -0.0497  3.8109 -1.0966
 8534TIP3    H247018   1.666   0.597  16.582 -0.0798  5.2110 -1.4142
 8535TIP3   OH247019   2.422   0.494  13.521 -0.2444  0.6094 -0.8667
 8535TIP3    H147020   2.448   0.574  13.475  0.0599  0.4751 -0.9304
 8535TIP3    H247021   2.501   0.464  13.565  0.3899 -1.0758 -2.9393
 8536TIP3   OH247022   1.483   5.510   3.457 -0.0901 -0.0353  0.4907
 8536TIP3    H147023   1.522   5.423   3.467 -0.0008  0.0698  1.0676
 8536TIP3    H247024   1.552   5.563   3.419 -0.0585 -0.1465  0.3914
 8537TIP3   OH247025   1.981   0.336  14.979 -0.4740 -0.4058  0.0971
 8537TIP3    H147026   1.977   0.240  14.982  1.5143 -0.6132 -1.6762
 8537TIP3    H247027   1.977   0.357  14.886 -0.2027  1.2097  0.4205
 8538TIP3   OH247028   5.883   5.249  11.411 -0.0618 -0.1601 -0.1681
 8538TIP3    H147029   5.812   5.289  11.461  1.0765  2.1376 -0.2598
 8538TIP3    H247030   5.850   5.246  11.321  0.0496  1.2148 -0.2737
 8539TIP3   OH247031   3.813   3.824   4.167 -0.3743 -0.4425 -0.2769
 8539TIP3    H147032   3.779   3.910   4.193 -0.6225 -0.4541 -0.5485
 8539TIP3    H247033   3.739   3.781   4.124 -1.2316 -2.0362  2.5741
 8540TIP3   OH247034   3.894   1.938  14.327 -0.1017  0.1512 -0.7515
 8540TIP3    H147035   3.883   2.025  14.365 -1.0785 -0.1282 -0.3500
 8540TIP3    H247036   3.949   1.891  14.389 -0.6817  0.0806 -0.2728
 8541TIP3   OH247037   0.090   0.349  12.799  0.5731 -0.3152 -0.1897
 8541TIP3    H147038   0.087   0.350  12.704 -2.5377  0.4691 -0.1886
 8541TIP3    H247039   0.080   0.441  12.825 -0.0269 -0.6433  0.8464
 8542TIP3   OH247040   4.927   0.978   3.736  0.2882  0.3130 -0.3596
 8542TIP3    H147041   5.018   0.981   3.766  0.5294  1.5178 -1.1730
 8542TIP3    H247042   4.904   0.885   3.741  1.1418  0.1490  1.0637
 8543TIP3   OH247043   4.394   5.573   1.868 -0.0678  0.2734 -0.1827
 8543TIP3    H147044   4.389   5.478   1.864 -0.0054  0.1945  1.1455
 8543TIP3    H247045   4.306   5.601   1.891  0.2980  0.3965  1.1642
 8544TIP3   OH247046   3.859   3.428  12.165 -0.1740  0.4868  0.3452
 8544TIP3    H147047   3.820   3.515  12.167  1.2551  1.1569  1.6439
 8544TIP3    H247048   3.950   3.442  12.191 -0.2596 -1.5602  2.0127
 8545TIP3   OH247049   5.147   6.077  16.859 -0.0685 -0.0342  0.0825
 8545TIP3    H147050   5.232   6.036  16.844 -0.3436 -0.5967  0.0316
 8545TIP3    H247051   5.113   6.094  16.772 -0.3688 -0.5728  0.0924
 8546TIP3   OH247052   4.673   3.593  14.002  0.2045  0.3291 -0.3780
 8546TIP3    H147053   4.604   3.538  13.965  1.7237 -1.7445 -0.2802
 8546TIP3    H247054   4.672   3.573  14.096  2.0093 -1.0130 -0.6186
 8547TIP3   OH247055   5.637   5.069   0.236  0.2258  0.0465  0.0207
 8547TIP3    H147056   5.617   4.976   0.237  0.6238 -0.0501 -0.3124
 8547TIP3    H247057   5.603   5.103   0.319  2.4671 -0.9163  1.4222
 8548TIP3   OH247058   1.701   3.920   0.374  0.2095  0.7263 -0.1518
 8548TIP3    H147059   1.752   3.961   0.444 -0.4132 -0.0205  0.7682
 8548TIP3    H247060   1.748   3.943   0.294  1.3129  1.0532  0.5594
 8549TIP3   OH247061   0.997   4.149   6.147 -0.2633 -0.2337  0.0675
 8549TIP3    H147062   0.922   4.192   6.188 -0.2252  0.3272 -0.4339
 8549TIP3    H247063   0.963   4.065   6.117 -0.1523 -0.9024  1.7243
 8550TIP3   OH247064   4.899   4.543   4.797 -0.4639  0.2554  0.4671
 8550TIP3    H147065   4.883   4.533   4.891 -0.5609 -1.3440  0.3211
 8550TIP3    H247066   4.994   4.544   4.789 -0.4455 -0.2258  0.5506
 8551TIP3   OH247067   3.159   0.979  12.592 -0.1317  0.6334 -0.0170
 8551TIP3    H147068   3.253   0.994  12.597  0.0926 -0.8525  0.6973
 8551TIP3    H247069   3.120   1.067  12.598  1.1422  1.1297  1.6541
 8552TIP3   OH247070   4.626   6.732  15.049 -0.3429 -0.3690  0.7678
 8552TIP3    H147071   4.654   6.808  15.101 -1.1610  0.3843  0.1405
 8552TIP3    H247072   4.540   6.709  15.085 -0.4987 -0.4217  0.3658
 8553TIP3   OH247073   4.525   2.872   3.929  0.5967  0.0753  0.3940
 8553TIP3    H147074   4.545   2.792   3.880  1.2585 -1.3793  2.8829
 8553TIP3    H247075   4.512   2.939   3.861 -1.6739 -2.4314 -1.8972
 8554TIP3   OH247076   1.511   3.308   1.217  0.1763  0.1409 -0.3597
 8554TIP3    H147077   1.480   3.285   1.129  1.7748  0.4277 -1.0368
 8554TIP3    H247078   1.444   3.274   1.276 -0.7349 -0.4125 -1.6697
 8555TIP3   OH247079   4.608   1.255  12.768 -0.1779 -0.1568 -0.1521
 8555TIP3    H147080   4.620   1.162  12.786 -0.0824  0.1691  1.6282
 8555TIP3    H247081   4.580   1.258  12.677 -1.6397 -2.0439  0.1793
 8556TIP3   OH247082   0.751   2.057  11.136 -0.1653  0.0803  0.3244
 8556TIP3    H147083   0.750   2.007  11.217 -1.4398 -1.5450 -0.6267
 8556TIP3    H247084   0.839   2.095  11.132 -0.3032  0.8699  2.7930
 8557TIP3   OH247085   1.628   0.382   1.834 -0.3414  0.2080 -0.1668
 8557TIP3    H147086   1.645   0.380   1.739 -0.5367 -1.8353 -0.1990
 8557TIP3    H247087   1.713   0.364   1.874 -0.8522 -2.5794 -0.1212
 8558TIP3   OH247088   5.126   1.966   0.696 -0.3239  0.3093  0.5172
 8558TIP3    H147089   5.194   1.906   0.668 -1.6472 -1.2966  0.6101
 8558TIP3    H247090   5.134   1.969   0.792  0.4211  1.1647  0.4458
 8559TIP3   OH247091   1.999   5.311   1.871  0.1271  0.2458  0.0901
 8559TIP3    H147092   1.917   5.358   1.857 -0.9333 -1.8190 -1.0543
 8559TIP3    H247093   2.040   5.306   1.785 -0.4707 -2.0367 -0.1219
 8560TIP3   OH247094   1.585   3.662  11.326 -0.3811  1.0006 -0.3416
 8560TIP3    H147095   1.521   3.725  11.361  1.1285  0.4419  4.0496
 8560TIP3    H247096   1.664   3.714  11.311 -0.3903  0.8436 -0.9663
 8561TIP3   OH247097   6.493   4.650   0.015 -0.1516 -0.3413 -0.2566
 8561TIP3    H147098   6.458   4.563   0.033  0.2608 -0.6761 -1.0195
 8561TIP3    H247099   6.536   4.641  -0.070  1.1524  0.2357  0.3206
 8562TIP3   OH247100   6.749   5.572   4.609  0.0276  0.6194 -0.8073
 8562TIP3    H147101   6.815   5.535   4.550  0.7673  1.7918 -0.7544
 8562TIP3    H247102   6.748   5.666   4.587  0.3609  1.0970  1.0767
 8563TIP3   OH247103   5.750   3.123  15.582 -0.2273 -0.4630  0.3095
 8563TIP3    H147104   5.747   3.103  15.675  0.9232  1.4780  0.8359
 8563TIP3    H247105   5.688   3.195  15.571 -0.2235 -0.5569 -0.4003
 8564TIP3   OH247106   4.356   2.179   0.151 -0.2698 -0.2774 -0.0688
 8564TIP3    H147107   4.400   2.234   0.087 -0.5574  0.1014  0.0563
 8564TIP3    H247108   4.426   2.128   0.191 -0.1727 -1.1235 -1.2587
 8565TIP3   OH247109   3.387   4.285  17.056 -0.6033 -0.0960  0.5917
 8565TIP3    H147110   3.436   4.294  17.138  1.3130 -2.5383 -0.1935
 8565TIP3    H247111   3.453   4.263  16.991 -2.2575  0.5942 -1.4077
 8566TIP3   OH247112   4.909   5.882  13.571  0.0290 -0.3042 -0.6087
 8566TIP3    H147113   4.959   5.824  13.629  0.3946  1.5376  1.0369
 8566TIP3    H247114   4.963   5.891  13.493  1.7118  0.6219  0.6108
 8567TIP3   OH247115   3.840   5.058  10.422 -0.7280 -0.0661 -0.2015
 8567TIP3    H147116   3.916   5.110  10.450  0.0549 -0.8057 -0.8766
 8567TIP3    H247117   3.854   5.045  10.328 -0.8256 -1.6038 -0.0208
 8568TIP3   OH247118   1.726   3.789   4.687 -0.1063  0.0825  0.0550
 8568TIP3    H147119   1.728   3.710   4.633  0.6506 -0.2138  0.5004
 8568TIP3    H247120   1.633   3.813   4.691 -0.4328 -1.1579  0.4510
 8569TIP3   OH247121   6.138   4.772  16.644 -0.1783  0.1367 -0.4401
 8569TIP3    H147122   6.134   4.835  16.716 -0.5030  0.0191 -0.3531
 8569TIP3    H247123   6.198   4.812  16.581 -2.2619  1.7121 -1.5212
 8570TIP3   OH247124   0.477   6.401  12.354  0.2118 -0.1348  0.4285
 8570TIP3    H147125   0.386   6.415  12.326  1.2081 -0.0420 -3.2936
 8570TIP3    H247126   0.495   6.472  12.416 -2.1545 -0.0321  1.0805
 8571TIP3   OH247127   2.383   3.031  10.412  0.4265 -1.2250  0.1897
 8571TIP3    H147128   2.320   2.961  10.397  0.4880 -1.0646 -0.8668
 8571TIP3    H247129   2.440   2.997  10.482  0.2937 -2.1255 -0.1210
 8572TIP3   OH247130   3.505   4.887  10.776  0.2310 -0.2720  0.2594
 8572TIP3    H147131   3.590   4.925  10.753 -0.6697  1.7047 -0.1085
 8572TIP3    H247132   3.442   4.938  10.724 -1.2278 -1.2161  1.0368
 8573TIP3   OH247133   5.361   6.740  15.783  0.2991  0.2998 -0.2833
 8573TIP3    H147134   5.345   6.716  15.874  1.0358 -1.2182 -0.5284
 8573TIP3    H247135   5.403   6.826  15.788  0.4160  0.1951  0.8050
 8574TIP3   OH247136   5.062   0.267   0.021 -0.3305 -0.4291 -0.1655
 8574TIP3    H147137   5.105   0.282  -0.063  0.4550 -2.0062 -0.0800
 8574TIP3    H247138   5.073   0.349   0.069  1.1736 -0.2587 -0.7570
 8575TIP3   OH247139   1.490   5.327  13.818 -0.2852 -0.0636  0.9459
 8575TIP3    H147140   1.562   5.296  13.764 -1.8813 -0.4618 -1.0635
 8575TIP3    H247141   1.411   5.306  13.768 -1.8545 -0.1898  3.3185
 8576TIP3   OH247142   4.045   0.524   1.578 -0.2599  0.2285 -0.1464
 8576TIP3    H147143   4.076   0.525   1.488  1.9083  1.1584  0.5345
 8576TIP3    H247144   4.098   0.456   1.621 -1.0332  0.0222  0.5130
 8577TIP3   OH247145   5.269   5.792  14.012  0.1225 -0.3030  0.6108
 8577TIP3    H147146   5.357   5.796  14.050 -0.0942 -0.2462  1.1112
 8577TIP3    H247147   5.250   5.699  14.004  0.9250 -0.3580 -1.1473
 8578TIP3   OH247148   1.676   2.611  14.002  0.1214 -0.3140 -0.1604
 8578TIP3    H147149   1.731   2.592  14.079  0.0346 -0.4677 -0.1369
 8578TIP3    H247150   1.634   2.528  13.981  0.1223 -0.2652 -0.3584
 8579TIP3   OH247151   4.830   6.672   3.356 -0.6007 -0.3945 -0.7192
 8579TIP3    H147152   4.917   6.710   3.343 -0.8391  0.0260 -1.1378
 8579TIP3    H247153   4.780   6.742   3.398 -0.7830 -0.5825 -0.6192
 8580TIP3   OH247154   0.350   0.661  16.258 -0.1818  0.1476  0.1157
 8580TIP3    H147155   0.424   0.608  16.287  0.3546  1.2362  0.7858
 8580TIP3    H247156   0.290   0.598  16.217  0.5393 -0.9290  0.6737
 8581TIP3   OH247157   0.040   3.948  12.777 -0.4734  0.2048  0.1272
 8581TIP3    H147158   0.019   3.964  12.869 -0.3529  1.9445 -0.1115
 8581TIP3    H247159  -0.038   3.906  12.741  0.1525 -2.2265  1.4016
 8582TIP3   OH247160   5.085   5.190  13.014  0.1315 -0.1346 -0.4027
 8582TIP3    H147161   5.027   5.191  13.090 -0.6978  1.8619 -0.9796
 8582TIP3    H247162   5.100   5.097  12.996 -1.4113 -0.6812  0.8942
 8583TIP3   OH247163   3.199   0.319  15.778 -0.0586 -0.4351 -0.2963
 8583TIP3    H147164   3.201   0.224  15.763  2.0531 -0.5023  0.0330
 8583TIP3    H247165   3.292   0.344  15.779 -0.5648  1.9844 -2.4738
 8584TIP3   OH247166   5.190   4.322   0.144  0.1558  0.4179 -0.7030
 8584TIP3    H147167   5.248   4.257   0.105 -0.4957 -0.3259 -0.4484
 8584TIP3    H247168   5.151   4.279   0.220 -0.8832  0.8270 -0.9793
 8585TIP3   OH247169   4.381   3.099  12.029  0.5384 -0.6869  0.2715
 8585TIP3    H147170   4.449   3.068  11.970  1.0293  0.6609  0.0839
 8585TIP3    H247171   4.361   3.025  12.086  1.2920 -1.4651 -0.4703
 8586TIP3   OH247172   0.334   6.087   3.711  0.3366  0.2883 -0.2324
 8586TIP3    H147173   0.303   6.125   3.794 -0.5725  0.0748 -0.4658
 8586TIP3    H247174   0.391   6.155   3.674  1.9625 -0.2113  1.2624
 8587TIP3   OH247175   4.373   3.539  15.690  0.1322  0.6352  0.1498
 8587TIP3    H147176   4.449   3.535  15.749  0.2412  0.6912  0.0146
 8587TIP3    H247177   4.398   3.486  15.615 -0.5812 -0.6562  0.7887
 8588TIP3   OH247178   1.864   1.726   4.460 -0.3956  0.4506  0.2774
 8588TIP3    H147179   1.954   1.756   4.469  0.8834 -2.3908 -1.7290
 8588TIP3    H247180   1.830   1.772   4.384 -0.4504  1.0095  0.6296
 8589TIP3   OH247181   3.614   2.482  13.583 -0.5320 -0.1925  0.3628
 8589TIP3    H147182   3.679   2.479  13.512  0.4819 -1.4832  1.2919
 8589TIP3    H247183   3.666   2.474  13.663 -1.8463 -1.5409  1.1317
 8590TIP3   OH247184   5.465   3.980   3.024  0.4835  0.4867 -0.5042
 8590TIP3    H147185   5.521   3.953   3.096  1.2607 -0.0432 -1.2877
 8590TIP3    H247186   5.489   3.922   2.952  0.1372  1.3823 -1.3619
 8591TIP3   OH247187   6.295   4.532  14.879  0.0354 -0.1840 -0.3822
 8591TIP3    H147188   6.202   4.522  14.859  0.3461 -1.1588 -1.4010
 8591TIP3    H247189   6.312   4.465  14.946  0.2366 -0.7546 -0.9960
 8592TIP3   OH247190   3.637   2.018  11.646  0.6064 -0.1464 -0.0590
 8592TIP3    H147191   3.605   1.930  11.631 -0.2751  0.1741 -0.1135
 8592TIP3    H247192   3.672   2.016  11.735 -1.6866  0.0603  0.9152
 8593TIP3   OH247193   1.969   4.094   4.260 -0.1050 -0.4122  0.3168
 8593TIP3    H147194   1.881   4.117   4.290 -0.3396  2.0009 -1.8846
 8593TIP3    H247195   2.019   4.175   4.269  1.0466 -0.8939 -1.3732
 8594TIP3   OH247196   5.441   2.828   3.830 -0.0855  0.9403  0.5595
 8594TIP3    H147197   5.450   2.922   3.845 -3.9167  1.3698  1.1205
 8594TIP3    H247198   5.403   2.821   3.742 -0.5539 -0.0058  0.8230
 8595TIP3   OH247199   1.314   5.324  16.797  0.0563 -0.8286  0.1257
 8595TIP3    H147200   1.394   5.310  16.746  0.8504  1.1715  0.7346
 8595TIP3    H247201   1.345   5.330  16.887 -0.9950 -1.4936  0.5474
 8596TIP3   OH247202   1.583   1.868  12.781  0.5906 -0.0306 -0.2084
 8596TIP3    H147203   1.513   1.930  12.761 -2.1488 -3.2731 -1.8022
 8596TIP3    H247204   1.637   1.866  12.703  0.3822 -0.0052 -0.3538
 8597TIP3   OH247205   0.168   0.530  15.848 -0.1092 -0.1034 -0.5605
 8597TIP3    H147206   0.254   0.490  15.837 -0.7371 -1.2450 -1.3797
 8597TIP3    H247207   0.106   0.457  15.846 -1.0799  0.6593  0.4273
 8598TIP3   OH247208   2.940   5.277   2.860  0.4692 -0.0173  0.4835
 8598TIP3    H147209   2.919   5.197   2.907 -1.4707  0.4758  0.5767
 8598TIP3    H247210   2.884   5.344   2.900  1.6790  1.2930  0.0919
 8599TIP3   OH247211   5.468   1.139  11.183  0.2964 -0.3833  0.0558
 8599TIP3    H147212   5.500   1.075  11.248  0.4496 -0.3115  0.0523
 8599TIP3    H247213   5.383   1.105  11.155 -0.2255  0.0903  1.0176
 8600TIP3   OH247214   0.894   2.033   2.327 -0.4821 -0.7565 -0.3077
 8600TIP3    H147215   0.865   2.102   2.268  0.3396 -0.9084 -0.9101
 8600TIP3    H247216   0.819   1.976   2.337 -0.5180 -0.9527 -1.5463
 8601TIP3   OH247217   5.167   6.521   3.305  0.3422 -0.5067 -0.4675
 8601TIP3    H147218   5.147   6.614   3.312  3.6290  0.2239  1.0509
 8601TIP3    H247219   5.102   6.479   3.362  0.5325  1.2091  1.1322
 8602TIP3   OH247220   1.646   2.192  15.718 -0.4263 -0.1319  0.0344
 8602TIP3    H147221   1.594   2.134  15.774  1.0137 -0.7579  0.7777
 8602TIP3    H247222   1.690   2.251  15.780  2.2418 -1.6918 -0.2267
 8603TIP3   OH247223   0.133   3.312   0.490  0.0322 -0.6896  0.3985
 8603TIP3    H147224   0.164   3.241   0.432 -0.8636 -0.6961 -0.0870
 8603TIP3    H247225   0.211   3.364   0.507  0.2584 -0.5054 -1.0903
 8604TIP3   OH247226   5.714   2.856  14.490 -0.3084 -0.0925  0.2084
 8604TIP3    H147227   5.716   2.803  14.411 -0.2522  1.8850 -1.2079
 8604TIP3    H247228   5.806   2.877  14.507 -0.4533  1.4496 -0.6762
 8605TIP3   OH247229   5.782   6.779   5.803 -0.0561  0.7227 -0.4525
 8605TIP3    H147230   5.775   6.851   5.866  0.7199  0.8393 -0.4915
 8605TIP3    H247231   5.870   6.743   5.817 -0.3748 -0.1082 -0.5527
 8606TIP3   OH247232   6.323   6.497   1.416 -0.5064 -0.4634  0.0552
 8606TIP3    H147233   6.276   6.487   1.333  0.5546  0.7113 -0.7266
 8606TIP3    H247234   6.330   6.592   1.428 -0.3368 -0.6224  1.3189
 8607TIP3   OH247235   1.439   3.300  12.362 -0.4395 -0.2876  0.1678
 8607TIP3    H147236   1.409   3.339  12.444  0.1521  0.6682 -0.0635
 8607TIP3    H247237   1.520   3.255  12.385  0.9860  1.9313 -0.3224
 8608TIP3   OH247238   3.162   4.861  11.396  0.1391  0.0748  0.0863
 8608TIP3    H147239   3.205   4.794  11.450  0.0186  1.7695  2.4408
 8608TIP3    H247240   3.234   4.910  11.357  0.2334 -0.6280 -0.6544
 8609TIP3   OH247241   5.535   2.582   5.081  0.3782 -0.1082 -0.1155
 8609TIP3    H147242   5.458   2.575   5.137  0.0798  0.3738 -0.4474
 8609TIP3    H247243   5.499   2.605   4.995  0.8527 -0.4611 -0.4078
 8610TIP3   OH247244   5.530   2.182   2.963  0.0062 -0.2426  0.1483
 8610TIP3    H147245   5.568   2.178   2.875 -1.5975 -1.1295 -0.5589
 8610TIP3    H247246   5.492   2.270   2.968  0.2758 -0.1197  0.0167
 8611TIP3   OH247247   6.777   4.387  11.158 -0.5433 -0.7807  0.4435
 8611TIP3    H147248   6.766   4.346  11.244  1.8320 -0.4777  0.9662
 8611TIP3    H247249   6.838   4.331  11.112 -0.2590  0.1123 -0.2987
 8612TIP3   OH247250   3.185   2.108  11.130 -0.5521 -0.3182  0.3660
 8612TIP3    H147251   3.112   2.058  11.168  0.3799 -1.5287  0.6227
 8612TIP3    H247252   3.210   2.057  11.053  1.8119 -1.4846  1.8124
 8613TIP3   OH247253   3.525   1.495  13.380 -0.5457 -0.4417 -0.1536
 8613TIP3    H147254   3.563   1.578  13.350 -0.0712 -0.2853  0.8295
 8613TIP3    H247255   3.434   1.498  13.351 -0.0501 -0.4194 -1.7649
 8614TIP3   OH247256   0.886   1.598   4.315 -0.6476 -0.1989 -0.5477
 8614TIP3    H147257   0.980   1.582   4.315 -0.5262  0.2551 -2.2262
 8614TIP3    H247258   0.877   1.688   4.284 -1.5609  0.8265  2.3612
 8615TIP3   OH247259   1.324   5.292  12.357 -0.3377 -0.0559 -0.3375
 8615TIP3    H147260   1.310   5.333  12.442 -2.7367  0.7358 -1.0434
 8615TIP3    H247261   1.340   5.365  12.297  0.5181 -0.5462 -0.7293
 8616TIP3   OH247262   0.975   4.900   0.992  0.0660  0.6955  0.4970
 8616TIP3    H147263   0.967   4.977   0.936  1.1714  1.0273  0.7715
 8616TIP3    H247264   0.939   4.828   0.939  0.2392  1.1646 -0.2734
 8617TIP3   OH247265   6.151   0.868  14.005 -0.7853  0.1672 -0.6048
 8617TIP3    H147266   6.167   0.933  14.073  1.0572  0.2987 -1.1224
 8617TIP3    H247267   6.164   0.784  14.049 -1.8732  0.1523 -0.2646
 8618TIP3   OH247268   2.950   6.247   0.150 -1.1045 -0.1874 -0.0131
 8618TIP3    H147269   2.864   6.251   0.108 -0.6027 -0.2921 -1.0769
 8618TIP3    H247270   3.009   6.290   0.088 -0.0392 -1.8412 -0.2186
 8619TIP3   OH247271   5.151   3.290  14.463  0.0943 -0.5867 -0.1136
 8619TIP3    H147272   5.237   3.331  14.454 -0.2353 -0.3390 -2.5611
 8619TIP3    H247273   5.106   3.344  14.528  0.6241  1.3043 -1.2561
 8620TIP3   OH247274   2.995   0.926   0.588 -0.0796  0.0645 -0.1667
 8620TIP3    H147275   3.079   0.971   0.578  0.8052 -1.8266 -1.8970
 8620TIP3    H247276   3.010   0.860   0.655 -0.2574 -0.1322 -0.3191
 8621TIP3   OH247277   0.852   0.659   2.445 -0.6460 -0.0940 -0.1119
 8621TIP3    H147278   0.947   0.659   2.432 -0.5995 -0.2481  0.2233
 8621TIP3    H247279   0.828   0.566   2.442 -0.5601 -0.1913  1.4319
 8622TIP3   OH247280   2.784   1.476  11.793 -0.2932  0.6167  0.2334
 8622TIP3    H147281   2.855   1.433  11.747 -0.7109 -0.0622  0.2127
 8622TIP3    H247282   2.773   1.560  11.749 -2.3688 -0.9790 -2.6448
 8623TIP3   OH247283   6.074   2.540  13.763  0.4266 -0.0653 -0.4393
 8623TIP3    H147284   6.064   2.502  13.850  2.6071 -2.7809 -1.2161
 8623TIP3    H247285   6.130   2.478  13.716 -0.0121  1.6740 -3.5540
 8624TIP3   OH247286   5.447   0.050   2.293 -0.5565 -0.2689 -0.3266
 8624TIP3    H147287   5.371   0.002   2.326 -0.9380 -0.1235 -0.9722
 8624TIP3    H247288   5.519   0.024   2.350 -1.5842  1.5604  1.9784
 8625TIP3   OH247289   2.251   3.375  11.768 -0.2546  0.0956  0.2180
 8625TIP3    H147290   2.257   3.461  11.728 -0.2920 -0.2436 -0.5348
 8625TIP3    H247291   2.169   3.338  11.734 -0.2017 -0.2655  0.4747
 8626TIP3   OH247292   1.193   0.747   3.963 -0.1526 -0.0084 -0.1127
 8626TIP3    H147293   1.287   0.731   3.965  0.1849  1.0405  4.5702
 8626TIP3    H247294   1.156   0.675   4.016 -2.0276 -0.3300 -1.7555
 8627TIP3   OH247295   1.929   2.297  14.680  0.7255 -0.5944 -0.5727
 8627TIP3    H147296   1.975   2.231  14.732  1.1442 -0.5909 -0.9328
 8627TIP3    H247297   1.880   2.246  14.615 -1.9243 -0.7991  1.3855
 8628TIP3   OH247298   4.653   3.389   2.514  0.4637  0.3544  0.0626
 8628TIP3    H147299   4.731   3.440   2.493 -0.1607  0.8780 -1.1411
 8628TIP3    H247300   4.656   3.315   2.454  0.6830 -0.3162  0.8951
 8629TIP3   OH247301   3.854   6.051   4.736  0.1702  0.5249  0.6815
 8629TIP3    H147302   3.825   5.973   4.688 -0.0335  0.5798  0.7170
 8629TIP3    H247303   3.941   6.027   4.770 -0.0619  0.1658  1.0339
 8630TIP3   OH247304   5.486   4.891  15.370 -0.2679  0.3567  0.3101
 8630TIP3    H147305   5.393   4.870  15.376 -0.0426 -0.6860  0.3195
 8630TIP3    H247306   5.501   4.905  15.276 -0.5367  1.0783  0.3655
 8631TIP3   OH247307   2.962   0.492  12.300  0.1165  0.5761  0.1204
 8631TIP3    H147308   2.915   0.551  12.358  0.3707  0.4618  0.4456
 8631TIP3    H247309   3.049   0.531  12.292  0.6805 -0.3860  1.3074
 8632TIP3   OH247310   1.612   1.024  16.194  1.2442 -0.1227 -0.6014
 8632TIP3    H147311   1.577   1.015  16.105 -0.1500  1.4820 -0.2674
 8632TIP3    H247312   1.676   1.094  16.188 -1.4106  2.5772  0.2282
 8633TIP3   OH247313   4.935   1.020   0.284 -0.0721 -0.1117  0.4973
 8633TIP3    H147314   5.026   1.010   0.313 -0.1204  0.3052  0.8083
 8633TIP3    H247315   4.908   0.932   0.257  1.0485  0.0837 -1.4963
 8634TIP3   OH247316   1.212   1.452   4.106 -0.3871  0.1607  0.1286
 8634TIP3    H147317   1.150   1.512   4.064 -1.0185 -0.2433  0.4707
 8634TIP3    H247318   1.201   1.370   4.059 -0.6120 -0.1071  0.6489
 8635TIP3   OH247319   4.298   0.389  14.848  0.1341 -0.5150 -0.1773
 8635TIP3    H147320   4.320   0.473  14.806  1.3857 -0.4928  0.4668
 8635TIP3    H247321   4.370   0.373  14.909 -0.8536 -1.3260  0.8188
 8636TIP3   OH247322   0.831   3.614  14.132  0.0094 -0.4071  0.5171
 8636TIP3    H147323   0.773   3.635  14.206 -2.0281 -1.7310 -0.5841
 8636TIP3    H247324   0.869   3.529  14.156 -0.7938 -0.9236 -0.0084
 8637TIP3   OH247325   1.240   5.551   0.802  0.2463 -0.3454 -0.4809
 8637TIP3    H147326   1.301   5.477   0.793 -0.0496 -0.8502  1.2676
 8637TIP3    H247327   1.156   5.509   0.821 -0.4175  0.3858 -1.7342
 8638TIP3   OH247328   6.118   3.147   4.988  0.0388  0.2186 -0.2135
 8638TIP3    H147329   6.110   3.066   5.039  1.1764 -0.2403 -0.7289
 8638TIP3    H247330   6.203   3.140   4.945  1.3199  2.7762  1.5957
 8639TIP3   OH247331   1.015   0.804   2.686  0.3094  0.5631  0.4080
 8639TIP3    H147332   0.927   0.783   2.718 -0.6727  1.1542 -1.6948
 8639TIP3    H247333   1.009   0.791   2.591  2.6990 -0.0004  0.2894
 8640TIP3   OH247334   3.457   2.275  17.002 -0.1766  0.0985  0.0421
 8640TIP3    H147335   3.478   2.366  17.023 -2.4101  1.3448 -2.4680
 8640TIP3    H247336   3.504   2.258  16.920 -0.0934 -0.9093  0.2839
 8641TIP3   OH247337   1.318   1.779  13.646  0.4954  0.1850  0.0163
 8641TIP3    H147338   1.273   1.695  13.656 -0.6253  0.6997 -0.5168
 8641TIP3    H247339   1.371   1.769  13.566  1.4819 -0.4727  0.7267
 8642TIP3   OH247340   1.999   1.566   2.799  0.1700 -0.1462  0.0983
 8642TIP3    H147341   2.041   1.497   2.747  0.5807 -0.0783  0.3373
 8642TIP3    H247342   2.026   1.647   2.756  1.0457 -0.0576  0.8004
 8643TIP3   OH247343   6.068   6.170   3.369  0.0951  0.3486  0.5415
 8643TIP3    H147344   6.062   6.156   3.463 -2.2068  0.6426  0.5131
 8643TIP3    H247345   6.134   6.108   3.339  2.1781  1.4571  2.5211
 8644TIP3   OH247346   3.591   1.010   1.176  0.6196 -0.0016  1.0057
 8644TIP3    H147347   3.604   0.930   1.125  0.7851  1.1457 -0.8233
 8644TIP3    H247348   3.641   0.996   1.256  4.0995 -0.1464 -1.0131
 8645TIP3   OH247349   5.234   4.763  16.004 -0.8197  0.0006  0.1052
 8645TIP3    H147350   5.223   4.834  15.941 -1.9673 -0.7003 -0.5186
 8645TIP3    H247351   5.196   4.686  15.961 -1.3211 -0.5769  1.5083
 8646TIP3   OH247352   2.009   5.321  16.723 -0.2596 -0.6532  0.1156
 8646TIP3    H147353   2.060   5.400  16.706 -1.4573  0.3240  0.9610
 8646TIP3    H247354   2.021   5.304  16.816 -1.2870 -0.5446  0.2772
 8647TIP3   OH247355   4.855   5.877  11.470  0.0474 -0.0824  0.0673
 8647TIP3    H147356   4.948   5.902  11.475  0.9778 -3.1872  0.3524
 8647TIP3    H247357   4.834   5.846  11.558 -1.1418  0.1510 -0.1224
 8648TIP3   OH247358   5.439   5.306  11.242  0.0801 -0.0989  0.2225
 8648TIP3    H147359   5.512   5.368  11.251  0.2625 -0.0428 -1.3330
 8648TIP3    H247360   5.368   5.358  11.206  0.1146 -0.7062 -0.7457
 8649TIP3   OH247361   2.077   3.638  14.486 -0.0409  0.1899  0.2566
 8649TIP3    H147362   2.083   3.617  14.392  0.1336 -1.0648  0.5371
 8649TIP3    H247363   2.122   3.566  14.529 -1.0647  0.2070  1.3852
 8650TIP3   OH247364   5.867   4.356  15.739  0.3923  0.0694  0.0358
 8650TIP3    H147365   5.771   4.362  15.741  0.3042 -1.3298  0.4671
 8650TIP3    H247366   5.885   4.289  15.673  0.9460 -1.7028  1.8977
 8651TIP3   OH247367   5.702   6.494   3.368  0.1120  0.8267  0.1656
 8651TIP3    H147368   5.627   6.480   3.426 -0.1051  1.7010  0.1232
 8651TIP3    H247369   5.737   6.407   3.352 -0.7241  0.4291  0.4172
 8652TIP3   OH247370   1.427   1.647  12.561 -0.5133 -0.2102 -0.7954
 8652TIP3    H147371   1.386   1.589  12.626 -2.1386  1.7699  0.0797
 8652TIP3    H247372   1.353   1.690  12.518  0.6078  1.2499 -1.3371
 8653TIP3   OH247373   6.355   1.717  11.291  0.1101  0.2755  0.2567
 8653TIP3    H147374   6.349   1.675  11.205  0.0322 -0.4920  0.6237
 8653TIP3    H247375   6.291   1.788  11.288  0.4951  0.5982 -0.5039
 8654TIP3   OH247376   1.789   2.979   4.828  0.3148 -0.2673  0.0976
 8654TIP3    H147377   1.823   3.015   4.911 -1.8664 -0.5002  1.1414
 8654TIP3    H247378   1.744   3.053   4.787 -1.8729 -1.0296  0.9796
 8655TIP3   OH247379   1.525   3.018  12.792 -0.0420  0.7098 -0.0370
 8655TIP3    H147380   1.613   2.996  12.824 -0.9775  0.7943  2.8862
 8655TIP3    H247381   1.475   2.937  12.802  0.2316 -0.2310 -4.4075
 8656TIP3   OH247382   1.970   4.024   6.165 -0.6465  0.3697 -0.2884
 8656TIP3    H147383   1.992   4.116   6.147 -0.1066  0.2052 -0.5151
 8656TIP3    H247384   1.890   4.028   6.217  0.0521  1.0271  0.7856
 8657TIP3   OH247385   4.126   1.755  11.545 -0.0058  0.1543  0.9567
 8657TIP3    H147386   4.190   1.761  11.615 -0.5829  0.4923  1.4675
 8657TIP3    H247387   4.142   1.832  11.490  2.1195 -1.3837 -0.7802
 8658TIP3   OH247388   5.821   6.031   0.639  0.3196 -0.3472 -0.1072
 8658TIP3    H147389   5.736   6.010   0.679 -1.0527  2.3811 -1.3441
 8658TIP3    H247390   5.818   5.986   0.554  0.6462 -1.1968  0.3175
 8659TIP3   OH247391   3.271   0.930  11.146 -0.3419  0.5678 -0.2181
 8659TIP3    H147392   3.280   0.835  11.155 -2.4872  0.2670 -0.6780
 8659TIP3    H247393   3.315   0.966  11.223 -0.9699 -0.8933  0.8743
 8660TIP3   OH247394   6.742   1.360   0.324 -0.2262  0.5557 -0.6421
 8660TIP3    H147395   6.668   1.342   0.382  0.0708  0.6110 -0.2460
 8660TIP3    H247396   6.704   1.410   0.251 -0.4860  1.0312 -0.1836
 8661TIP3   OH247397   3.114   0.309   2.141  0.1288 -0.3292 -0.2239
 8661TIP3    H147398   3.127   0.280   2.231  0.2643 -0.3235 -0.2410
 8661TIP3    H247399   3.200   0.341   2.114  0.2341 -0.8853 -0.5547
 8662TIP3   OH247400   2.325   3.316  11.226 -0.1449 -0.1477 -0.1792
 8662TIP3    H147401   2.405   3.320  11.278 -0.0307  1.4015 -0.4269
 8662TIP3    H247402   2.306   3.223  11.218  2.1583 -0.6176 -0.9394
 8663TIP3   OH247403   4.585   3.642  17.094 -0.0906 -0.0083  0.7024
 8663TIP3    H147404   4.651   3.592  17.046 -0.3928 -0.6864  0.9925
 8663TIP3    H247405   4.630   3.668  17.175  0.2342  0.6502  0.3211
 8664TIP3   OH247406   2.266   5.914   4.995  0.3625  0.1676  0.4187
 8664TIP3    H147407   2.177   5.895   4.965 -0.7541  0.2369  3.3915
 8664TIP3    H247408   2.275   5.864   5.076  2.6578  1.0225  0.7525
 8665TIP3   OH247409   3.913   4.077  16.716 -0.9207 -0.5124 -0.3174
 8665TIP3    H147410   3.986   4.016  16.723 -0.0826  0.3963 -0.7497
 8665TIP3    H247411   3.846   4.030  16.668 -1.1350 -1.8049  1.1670
 8666TIP3   OH247412   3.568   3.191  12.204  0.7008 -0.2452 -0.4292
 8666TIP3    H147413   3.499   3.210  12.266 -0.0458  0.4329 -1.4334
 8666TIP3    H247414   3.576   3.271  12.151  1.4531 -0.7194 -1.0609
 8667TIP3   OH247415   2.610   3.262   2.807 -0.0838  1.0255 -0.2067
 8667TIP3    H147416   2.549   3.275   2.734  0.8290 -0.6368 -1.3293
 8667TIP3    H247417   2.683   3.320   2.788 -0.3317  1.3901 -0.0426
 8668TIP3   OH247418   3.994   5.093   3.434  0.3962 -0.0973 -0.5051
 8668TIP3    H147419   4.027   5.182   3.447 -2.5345  1.3255 -2.0241
 8668TIP3    H247420   3.901   5.098   3.458 -0.1122 -2.4688 -1.7387
 8669TIP3   OH247421   2.253   1.672  13.565  0.2481  0.5517 -0.2003
 8669TIP3    H147422   2.337   1.677  13.610  0.1031 -3.2988  0.8854
 8669TIP3    H247423   2.225   1.582  13.578 -4.4915  1.8289  0.2390
 8670TIP3   OH247424   0.419   2.501  11.488  0.2190  0.5017  0.2155
 8670TIP3    H147425   0.334   2.468  11.459  1.9656 -1.6859 -2.9085
 8670TIP3    H247426   0.421   2.482  11.582 -1.6516 -2.0125 -0.1566
 8671TIP3   OH247427   0.960   4.671  15.290 -0.3119  0.5608 -0.6878
 8671TIP3    H147428   0.958   4.623  15.373  0.9937  1.3125 -0.1979
 8671TIP3    H247429   1.052   4.674  15.266 -0.6463  0.6263 -2.0189
 8672TIP3   OH247430   1.362   5.987   3.714  0.9427  0.4396  0.3890
 8672TIP3    H147431   1.308   5.984   3.635  0.3698 -0.2285  0.7913
 8672TIP3    H247432   1.298   5.986   3.786  1.5013 -2.2915  0.9295
 8673TIP3   OH247433   2.540   2.535  14.662  0.0451  0.1213  0.1898
 8673TIP3    H147434   2.545   2.559  14.755 -0.5667 -0.2716  0.3260
 8673TIP3    H247435   2.481   2.460  14.660  0.2207  0.0031 -0.4971
 8674TIP3   OH247436   4.228   0.531   2.224  0.0655 -0.6544  0.3792
 8674TIP3    H147437   4.237   0.441   2.256  0.0308 -1.4639 -1.7113
 8674TIP3    H247438   4.152   0.565   2.270  0.6291 -1.3559  1.9015
 8675TIP3   OH247439   0.730   5.373   1.505  0.2497 -0.3969 -0.3579
 8675TIP3    H147440   0.724   5.400   1.597  0.3656  1.2979 -0.8095
 8675TIP3    H247441   0.708   5.452   1.456  1.4918 -0.9141 -1.8045
 8676TIP3   OH247442   2.788   5.399  11.427  0.5878  0.0648 -0.2374
 8676TIP3    H147443   2.832   5.318  11.453  1.2589  0.1218 -1.1647
 8676TIP3    H247444   2.859   5.460  11.409  0.0829  1.0084  0.8575
 8677TIP3   OH247445   6.342   3.646   0.536 -0.1151  0.3706 -0.4239
 8677TIP3    H147446   6.272   3.669   0.597  1.0508 -0.0475  1.1272
 8677TIP3    H247447   6.351   3.551   0.545  0.3593  0.3618 -0.9330
 8678TIP3   OH247448   3.947   3.645   3.561  0.8512 -0.4411 -0.0347
 8678TIP3    H147449   3.867   3.669   3.515  1.2938  0.0446 -0.5685
 8678TIP3    H247450   3.998   3.596   3.497 -0.2162 -3.3253  1.1532
 8679TIP3   OH247451   3.180   4.523   0.334  0.2139  0.0189  0.0373
 8679TIP3    H147452   3.225   4.482   0.407  1.0493 -0.6946 -0.8529
 8679TIP3    H247453   3.171   4.453   0.269 -0.6693  0.5859 -0.4802
 8680TIP3   OH247454   4.180   5.488   6.334 -0.3973  0.1452 -0.1215
 8680TIP3    H147455   4.129   5.561   6.368  0.0417  0.6299 -0.5016
 8680TIP3    H247456   4.120   5.413   6.338 -0.4665  0.2430  1.4286
 8681TIP3   OH247457   6.318   0.836   1.600 -0.1883  0.0785 -0.6906
 8681TIP3    H147458   6.333   0.876   1.514 -0.4892 -0.8559 -1.1891
 8681TIP3    H247459   6.237   0.785   1.589 -0.6385  0.5303  0.3561
 8682TIP3   OH247460   4.972   5.620   6.541 -0.2649  0.1887  0.5319
 8682TIP3    H147461   4.956   5.694   6.600 -1.7629  0.3697 -0.0547
 8682TIP3    H247462   5.067   5.620   6.529 -0.0141  0.7299  2.1752
 8683TIP3   OH247463   1.061   3.615   1.731 -0.2258  0.5819  0.3095
 8683TIP3    H147464   1.006   3.597   1.654 -0.8018 -1.6306  1.1554
 8683TIP3    H247465   1.032   3.701   1.761 -0.6196  1.0947 -1.4064
 8684TIP3   OH247466   2.784   3.315  15.152  0.5908 -0.4883  0.2513
 8684TIP3    H147467   2.802   3.221  15.159  0.3006 -0.4873  1.1182
 8684TIP3    H247468   2.702   3.328  15.201 -0.1574 -0.0071 -1.0789
 8685TIP3   OH247469   4.930   2.856   1.089  0.1684 -0.6492 -0.1469
 8685TIP3    H147470   4.838   2.871   1.067  0.3951  0.5652 -0.3597
 8685TIP3    H247471   4.949   2.768   1.056 -0.1874  0.1268 -2.6557
 8686TIP3   OH247472   6.203   4.757   1.797  0.0445 -0.3864 -0.1053
 8686TIP3    H147473   6.208   4.802   1.882 -0.4207  0.8774 -0.7169
 8686TIP3    H247474   6.238   4.670   1.814 -0.2382 -0.2337  1.4374
 8687TIP3   OH247475   2.920   3.631  11.248  0.1881  0.0596 -0.5407
 8687TIP3    H147476   2.961   3.627  11.162 -0.7496  1.2322 -1.0702
 8687TIP3    H247477   2.993   3.634  11.310  0.9240  1.5915 -1.4260
 8688TIP3   OH247478   1.884   3.842   2.645 -0.1689 -0.0313 -0.1308
 8688TIP3    H147479   1.862   3.936   2.645 -0.4073 -0.0867 -0.3644
 8688TIP3    H247480   1.807   3.799   2.608 -0.8517 -0.5018  1.7326
 8689TIP3   OH247481   4.141   6.223   5.256  0.1167 -0.0193  0.1082
 8689TIP3    H147482   4.051   6.223   5.224  0.3901  0.3647 -0.7126
 8689TIP3    H247483   4.139   6.172   5.337 -0.5136 -1.5766 -0.8408
 8690TIP3   OH247484   1.512   5.998  16.357  0.3673 -0.1463 -0.6288
 8690TIP3    H147485   1.420   5.973  16.367 -0.1780  1.2968 -1.6561
 8690TIP3    H247486   1.533   5.977  16.266  0.3142  1.6758 -1.0984
 8691TIP3   OH247487   4.573   1.718  15.360  0.5945  0.2340 -0.3828
 8691TIP3    H147488   4.632   1.751  15.292  1.2361 -0.8603 -0.3854
 8691TIP3    H247489   4.626   1.719  15.440  0.4928 -0.3466 -0.3017
 8692TIP3   OH247490   4.311   4.634  13.424 -0.3501 -0.0171  0.1162
 8692TIP3    H147491   4.362   4.592  13.494  0.5242  2.0777  0.8198
 8692TIP3    H247492   4.292   4.563  13.362  0.5413 -1.5348  1.5098
 8693TIP3   OH247493   5.348   5.826  11.654 -0.2865 -0.4484 -0.6171
 8693TIP3    H147494   5.349   5.734  11.682  2.4736 -0.5798 -0.8903
 8693TIP3    H247495   5.340   5.821  11.558  3.7427 -0.7135 -1.0845
 8694TIP3   OH247496   6.049   1.599  14.928 -0.0364  0.5490  0.9105
 8694TIP3    H147497   6.011   1.616  14.842  0.2391 -0.0811  0.6530
 8694TIP3    H247498   6.009   1.664  14.985  0.4388  1.5530  0.1385
 8695TIP3   OH247499   6.223   6.595   0.293 -0.3528 -0.3047  0.2847
 8695TIP3    H147500   6.217   6.576   0.386  0.4109 -0.7485  0.2551
 8695TIP3    H247501   6.133   6.602   0.263 -0.6499 -2.1710  0.6606
 8696TIP3   OH247502   4.829   6.172  14.306  0.4670  0.0278 -0.0183
 8696TIP3    H147503   4.778   6.147  14.228 -1.1662  0.2839  0.9266
 8696TIP3    H247504   4.910   6.208  14.270  0.9982 -2.4063 -1.5347
 8697TIP3   OH247505   5.755   2.044  10.285  0.0647  0.4587 -0.1968
 8697TIP3    H147506   5.784   2.134  10.270 -0.5979  0.4355 -1.8737
 8697TIP3    H247507   5.694   2.051  10.359 -0.0668  1.4190 -0.3760
 8698TIP3   OH247508   3.058   2.989  13.393 -0.3257  0.3600 -0.4516
 8698TIP3    H147509   3.035   2.968  13.303 -1.0680  2.2020 -0.7288
 8698TIP3    H247510   2.977   3.023  13.432  0.3005  0.7906  0.5265
 8699TIP3   OH247511   3.459   6.778  14.943  0.3690  0.2213 -0.2195
 8699TIP3    H147512   3.375   6.733  14.952  0.2068  0.6368  0.3792
 8699TIP3    H247513   3.478   6.773  14.849 -0.1551 -0.1772 -0.3098
 8700TIP3   OH247514   2.742   3.533   6.204 -0.0118 -0.3253 -0.1578
 8700TIP3    H147515   2.649   3.511   6.194 -0.4697 -0.1458  2.7937
 8700TIP3    H247516   2.786   3.448   6.212 -0.2642 -0.3908  0.6237
 8701TIP3   OH247517   2.347   4.292   4.125  0.6116 -0.3614  0.3012
 8701TIP3    H147518   2.424   4.235   4.126  0.1579 -0.9952  1.6355
 8701TIP3    H247519   2.383   4.380   4.114  1.3041 -0.8771 -2.1043
 8702TIP3   OH247520   6.288   6.015  14.744 -0.0381  0.3720  0.3360
 8702TIP3    H147521   6.302   6.099  14.699  0.5829 -0.1564 -0.4779
 8702TIP3    H247522   6.360   6.010  14.807  1.4231 -0.6385 -1.3029
 8703TIP3   OH247523   0.744   4.529   2.289  0.1056  0.1207 -0.3725
 8703TIP3    H147524   0.820   4.526   2.231  0.9635 -0.8526  0.7576
 8703TIP3    H247525   0.674   4.563   2.234  1.1637  0.3109 -1.6614
 8704TIP3   OH247526   2.949   1.628   1.523  0.2290 -0.4844 -0.0943
 8704TIP3    H147527   3.029   1.579   1.542  1.6374  1.9821  0.8899
 8704TIP3    H247528   2.958   1.653   1.431  0.7168 -0.0544  0.0644
 8705TIP3   OH247529   1.851   0.695   4.244  0.4360 -0.2762  0.1815
 8705TIP3    H147530   1.817   0.696   4.154  0.7225 -0.2506  0.0730
 8705TIP3    H247531   1.853   0.602   4.267 -1.8136 -0.1914  0.9986
 8706TIP3   OH247532   2.447   5.204  13.438 -0.5585 -0.0808  0.2980
 8706TIP3    H147533   2.514   5.141  13.466  3.6955  3.3590 -1.0055
 8706TIP3    H247534   2.418   5.172  13.353  1.1392 -0.6297 -0.1203
 8707TIP3   OH247535   1.327   1.810   4.442  0.1234 -0.6228 -0.5264
 8707TIP3    H147536   1.404   1.765   4.475 -0.0582 -0.9240 -0.5060
 8707TIP3    H247537   1.272   1.741   4.406 -0.1072 -0.4054 -0.6001
 8708TIP3   OH247538   3.963   6.237   1.816  0.0123 -0.0065 -0.8951
 8708TIP3    H147539   4.049   6.226   1.775 -0.4558 -1.4942 -1.5552
 8708TIP3    H247540   3.914   6.290   1.754 -0.0483 -0.5342 -1.3079
 8709TIP3   OH247541   3.165   3.381  13.514  0.1034  1.1045 -0.2569
 8709TIP3    H147542   3.188   3.436  13.439  0.9093 -0.5401 -1.2630
 8709TIP3    H247543   3.083   3.418  13.546 -1.8699  0.2254 -3.7143
 8710TIP3   OH247544   1.115   3.073  13.899 -0.2563  0.9408  1.0298
 8710TIP3    H147545   1.070   3.008  13.844  2.1490 -0.4565  0.5605
 8710TIP3    H247546   1.082   3.157  13.869 -1.0681  0.0747 -0.6368
 8711TIP3   OH247547   6.567   4.733  15.586  0.0932 -0.5150  0.0288
 8711TIP3    H147548   6.482   4.689  15.587 -1.0489  1.5768 -0.0248
 8711TIP3    H247549   6.584   4.753  15.678 -0.7402  1.2647 -0.1532
 8712TIP3   OH247550   3.195   4.196   5.432 -0.4754  0.0409 -0.4062
 8712TIP3    H147551   3.109   4.157   5.451 -2.0884  3.3541 -0.2187
 8712TIP3    H247552   3.211   4.256   5.505  2.2516 -0.7459 -0.2563
 8713TIP3   OH247553   3.304   4.887  15.615  0.1930 -0.2226 -0.2319
 8713TIP3    H147554   3.278   4.823  15.682  0.1402 -0.1700 -0.2022
 8713TIP3    H247555   3.372   4.842  15.564 -0.2848 -0.5352 -0.6002
 8714TIP3   OH247556   6.382   6.241   4.527 -0.0736  0.0061  0.1134
 8714TIP3    H147557   6.470   6.275   4.540 -0.2559  0.4254  0.2957
 8714TIP3    H247558   6.377   6.164   4.584  0.2024 -0.0741  0.0299
 8715TIP3   OH247559   0.040   4.051   5.484  0.1075 -0.8086 -0.3200
 8715TIP3    H147560   0.052   4.014   5.571 -0.8591 -1.2687 -0.3666
 8715TIP3    H247561   0.038   3.975   5.426  0.1102 -0.5441 -0.6722
 8716TIP3   OH247562   1.743   3.613   4.925 -0.0870  0.2706  0.0922
 8716TIP3    H147563   1.679   3.675   4.890 -0.2294  0.5717  0.8650
 8716TIP3    H247564   1.696   3.531   4.934  0.5590 -0.5228 -2.6638
 8717TIP3   OH247565   4.171   4.669   5.988 -0.5162  0.1730 -0.3340
 8717TIP3    H147566   4.085   4.698   6.018 -0.4676 -1.9851  2.3952
 8717TIP3    H247567   4.228   4.679   6.065  0.4503 -2.8663 -0.5105
 8718TIP3   OH247568   0.996   4.391   2.879 -0.4663 -0.7182  0.2383
 8718TIP3    H147569   1.070   4.407   2.937 -0.7633 -0.3587  0.5312
 8718TIP3    H247570   0.920   4.422   2.929 -0.4016  3.0934 -1.6729
 8719TIP3   OH247571   5.157   2.470  15.336 -0.2097  0.3838 -0.0903
 8719TIP3    H147572   5.104   2.401  15.375 -0.3959  0.0698 -0.8675
 8719TIP3    H247573   5.096   2.544  15.327 -0.5671 -0.0050 -1.0626
 8720TIP3   OH247574   0.430   3.289   1.914 -0.1547  0.1166 -0.8574
 8720TIP3    H147575   0.454   3.198   1.926 -1.0903 -0.6401 -3.8925
 8720TIP3    H247576   0.513   3.335   1.901  0.2863 -0.3653  0.2062
 8721TIP3   OH247577   4.961   1.663  11.516 -0.2134  0.0124 -0.0831
 8721TIP3    H147578   4.885   1.677  11.459 -1.1156 -3.8201 -0.0912
 8721TIP3    H247579   5.026   1.623  11.460  0.4869 -0.0013  0.7151
 8722TIP3   OH247580   3.757   1.703  16.044 -0.1680 -0.2230 -0.2849
 8722TIP3    H147581   3.696   1.652  16.097  0.6648 -2.1982 -1.1199
 8722TIP3    H247582   3.803   1.758  16.107 -0.3062 -1.3480  0.8448
 8723TIP3   OH247583   4.166   5.699  15.463 -0.2044 -0.5367 -0.3611
 8723TIP3    H147584   4.150   5.727  15.372 -0.2171  1.3058  0.1767
 8723TIP3    H247585   4.080   5.672  15.495 -0.3439 -0.4422 -0.6502
 8724TIP3   OH247586   6.133   4.131  15.001 -0.5701  0.0289 -0.4333
 8724TIP3    H147587   6.157   4.121  14.908 -0.4355 -0.1215 -0.3833
 8724TIP3    H247588   6.041   4.104  15.005  0.3823 -3.7644  0.1038
 8725TIP3   OH247589   1.091   0.144   0.101  0.0653 -0.8427  0.4160
 8725TIP3    H147590   1.136   0.228   0.106 -1.3399  0.3179 -3.0221
 8725TIP3    H247591   1.153   0.086   0.056 -0.2299 -0.5141 -0.4480
 8726TIP3   OH247592   5.558   6.495  15.470 -0.1428 -0.5240 -0.3705
 8726TIP3    H147593   5.481   6.545  15.441 -0.8103  0.5705  2.8835
 8726TIP3    H247594   5.561   6.509  15.565  3.9665 -0.7077 -0.2985
 8727TIP3   OH247595   1.297   4.165   2.898  0.3145  0.5287  0.1234
 8727TIP3    H147596   1.347   4.142   2.976 -0.0431  1.6853  0.7257
 8727TIP3    H247597   1.347   4.236   2.858  0.6458 -0.2468 -0.8790
 8728TIP3   OH247598   4.844   3.027  12.955 -0.0355  0.0217  0.6559
 8728TIP3    H147599   4.914   3.088  12.934 -0.2537 -0.0671 -0.4061
 8728TIP3    H247600   4.766   3.082  12.963 -0.5339 -0.1826 -1.7700
 8729TIP3   OH247601   5.728   2.797  15.986 -0.0088  0.4515  0.4806
 8729TIP3    H147602   5.684   2.751  16.057 -0.9211  0.2640 -0.1777
 8729TIP3    H247603   5.726   2.735  15.913  1.1746  0.5313  0.3717
 8730TIP3   OH247604   4.276   5.702   4.198  0.5996 -0.0827  0.3571
 8730TIP3    H147605   4.328   5.678   4.121  0.2596 -2.0292  0.6838
 8730TIP3    H247606   4.189   5.720   4.163  1.2439  2.6617 -0.1199
 8731TIP3   OH247607   4.284   1.776  16.982 -0.4695 -0.0181 -0.0496
 8731TIP3    H147608   4.357   1.825  16.944  1.1687 -1.8591  0.6016
 8731TIP3    H247609   4.294   1.787  17.077  0.0521 -1.7315  0.1188
 8732TIP3   OH247610   3.947   1.657  13.465  0.4496 -0.0268  0.1551
 8732TIP3    H147611   3.985   1.671  13.552  0.2452 -1.5380  0.5161
 8732TIP3    H247612   3.941   1.562  13.457  0.6776  0.0870 -1.6160
 8733TIP3   OH247613   2.158   6.271   4.405 -0.5186 -0.6477 -0.0673
 8733TIP3    H147614   2.238   6.219   4.405 -0.0724  0.0262 -0.4098
 8733TIP3    H247615   2.180   6.350   4.355 -1.8095 -1.0873 -1.4039
 8734TIP3   OH247616   2.083   0.734  14.239  0.4993  0.0170  0.1012
 8734TIP3    H147617   2.022   0.766  14.305 -0.4149  0.7864 -1.0700
 8734TIP3    H247618   2.140   0.674  14.286 -0.0843  0.5853  1.5921
 8735TIP3   OH247619   2.751   1.289  14.398 -0.5879 -0.0809 -0.0464
 8735TIP3    H147620   2.797   1.330  14.325 -2.8478 -0.8251 -2.0325
 8735TIP3    H247621   2.793   1.203  14.408  0.6034  0.5437  0.4672
 8736TIP3   OH247622   3.851   2.775   2.941 -0.1313  0.0134  0.0137
 8736TIP3    H147623   3.808   2.778   3.027 -0.7740  2.2349 -0.3293
 8736TIP3    H247624   3.937   2.813   2.957  0.2501 -0.7830 -0.0938
 8737TIP3   OH247625   5.657   6.523   4.720  0.1137 -0.5244  0.5238
 8737TIP3    H147626   5.634   6.506   4.629 -0.5064  2.6650 -0.0533
 8737TIP3    H247627   5.752   6.535   4.720 -0.0570  1.0069 -0.0621
 8738TIP3   OH247628   5.678   4.566  14.906 -0.0529  0.1602  0.2811
 8738TIP3    H147629   5.755   4.586  14.958  0.0141  5.1834 -1.2647
 8738TIP3    H247630   5.712   4.529  14.824  0.2821 -1.4771  1.1127
 8739TIP3   OH247631   0.225   4.353   2.713  0.7882  0.5103  0.1265
 8739TIP3    H147632   0.218   4.265   2.749 -1.0522  1.6895  2.9832
 8739TIP3    H247633   0.318   4.375   2.720  0.7760  0.0182  2.7598
 8740TIP3   OH247634   5.835   3.806  12.655 -0.2511 -0.2043  0.5840
 8740TIP3    H147635   5.802   3.825  12.743 -0.4816 -0.0968  0.4759
 8740TIP3    H247636   5.866   3.715  12.660  2.3269  0.6342  1.5429
 8741TIP3   OH247637   3.293   3.250   1.671 -0.2406  0.2023  0.2269
 8741TIP3    H147638   3.261   3.335   1.640 -1.4604 -0.1007  0.5911
 8741TIP3    H247639   3.388   3.262   1.681 -0.0164  0.8076 -1.9901
 8742TIP3   OH247640   5.502   4.710   5.506  0.1033 -0.1854  0.0722
 8742TIP3    H147641   5.412   4.699   5.472  0.5339  0.4963 -1.3887
 8742TIP3    H247642   5.530   4.621   5.527 -1.0466 -0.3666  0.9138
 8743TIP3   OH247643   6.697   4.719   3.829 -0.5361 -0.5841  0.2802
 8743TIP3    H147644   6.743   4.661   3.768  0.0824 -1.2881  1.3821
 8743TIP3    H247645   6.633   4.765   3.775  0.2597 -0.8979 -0.9667
 8744TIP3   OH247646   4.609   4.745  10.437  0.7248  0.0341  0.2273
 8744TIP3    H147647   4.680   4.722  10.497 -0.1417 -2.4282  0.4300
 8744TIP3    H247648   4.529   4.719  10.483 -0.3932  2.6882 -0.0159
 8745TIP3   OH247649   4.950   1.086   1.834 -0.6891  0.1302 -1.4077
 8745TIP3    H147650   5.045   1.098   1.824 -0.9195  1.9066 -1.8984
 8745TIP3    H247651   4.942   1.021   1.903  0.8947 -0.2573 -1.5350
 8746TIP3   OH247652   5.267   2.013  16.765  0.5726  0.1622  0.4817
 8746TIP3    H147653   5.318   1.960  16.703  0.3488  0.4673  0.0271
 8746TIP3    H247654   5.320   2.092  16.778 -0.8818  1.7035 -2.0243
 8747TIP3   OH247655   3.737   6.731   0.673 -0.2216 -0.0975  0.1132
 8747TIP3    H147656   3.676   6.659   0.689 -1.3082  1.0814  1.6012
 8747TIP3    H247657   3.811   6.690   0.629 -1.1015 -1.9913  0.2798
 8748TIP3   OH247658   2.685   6.545   0.002 -0.3096 -0.3623 -0.3380
 8748TIP3    H147659   2.736   6.550   0.082  0.8506  1.1149 -1.1215
 8748TIP3    H247660   2.652   6.634  -0.011 -3.1498 -1.2554  0.1322
 8749TIP3   OH247661   5.786   0.221   4.401 -0.0470  0.3192  0.1492
 8749TIP3    H147662   5.734   0.141   4.402  0.1647  0.1876  0.5880
 8749TIP3    H247663   5.858   0.204   4.462  0.5483  0.4750 -0.4989
 8750TIP3   OH247664   4.025   4.333  14.391 -0.4743 -0.4625 -0.4789
 8750TIP3    H147665   4.016   4.422  14.425  2.6190 -0.0076 -0.5944
 8750TIP3    H247666   3.952   4.285  14.432 -2.8712  2.2456 -1.2143
 8751TIP3   OH247667   5.226   5.840   2.939  0.6788  0.0627 -0.3838
 8751TIP3    H147668   5.249   5.927   2.971  2.9962 -0.1655 -1.2519
 8751TIP3    H247669   5.250   5.841   2.847 -0.0509 -1.2496 -0.6145
 8752TIP3   OH247670   4.717   3.285   1.945  0.2397 -0.1974  0.2995
 8752TIP3    H147671   4.722   3.220   1.874  3.5907  0.2856 -0.0845
 8752TIP3    H247672   4.724   3.370   1.900  0.6339  0.2021  1.0944
 8753TIP3   OH247673   0.545   6.617  16.874  0.5484  0.1643 -0.2491
 8753TIP3    H147674   0.582   6.560  16.807  2.0332  0.2640  0.4570
 8753TIP3    H247675   0.468   6.656  16.832 -0.6533 -2.4842 -0.6842
 8754TIP3   OH247676   1.118   0.862  14.568  0.0004 -0.2299  0.2129
 8754TIP3    H147677   1.157   0.852  14.654 -0.0835 -0.6406  0.2045
 8754TIP3    H247678   1.082   0.776  14.547  1.7216 -0.6859 -1.0811
 8755TIP3   OH247679   3.078   5.369  15.468  0.0044  0.5336  0.0406
 8755TIP3    H147680   3.122   5.301  15.417 -0.0383 -1.4628  2.4911
 8755TIP3    H247681   3.149   5.425  15.500  0.3217 -0.0218  0.3089
 8756TIP3   OH247682   2.004   0.723   2.811 -0.3914  0.6813  0.0152
 8756TIP3    H147683   2.084   0.754   2.853 -1.4276  0.0904  2.6285
 8756TIP3    H247684   2.023   0.726   2.717  2.8002  0.1417  0.5480
 8757TIP3   OH247685   1.618   6.596   3.385 -0.4114  0.2432 -0.2763
 8757TIP3    H147686   1.548   6.658   3.408 -0.2179  0.1744  0.5381
 8757TIP3    H247687   1.580   6.542   3.315 -0.5735  1.2880 -1.0200
 8758TIP3   OH247688   4.482   2.007   0.523 -1.0250 -0.3797  0.3202
 8758TIP3    H147689   4.477   1.915   0.498 -1.9130 -0.0384 -0.8754
 8758TIP3    H247690   4.393   2.031   0.548 -0.5042 -0.2198  2.1498
 8759TIP3   OH247691   0.102   5.641  12.328  0.1287  0.0871  0.1995
 8759TIP3    H147692   0.052   5.695  12.390  1.4055 -0.2308  1.5645
 8759TIP3    H247693   0.186   5.686  12.321  0.1824 -0.1778 -0.9243
 8760TIP3   OH247694   2.255   1.642   1.571  0.2888  0.2049  0.5507
 8760TIP3    H147695   2.172   1.689   1.565 -0.4676 -1.0741  0.7436
 8760TIP3    H247696   2.287   1.660   1.659  0.7951  1.6077  0.1059
 8761TIP3   OH247697   4.589   2.290  15.389  0.3826  0.0391 -0.7283
 8761TIP3    H147698   4.496   2.284  15.410  0.3121 -0.1535 -1.0775
 8761TIP3    H247699   4.629   2.221  15.442  0.1540 -0.7001 -1.4938
 8762TIP3   OH247700   1.563   5.896   4.792  0.3197 -0.0815 -0.0816
 8762TIP3    H147701   1.601   5.946   4.720 -1.2572  2.0851  0.4718
 8762TIP3    H247702   1.627   5.905   4.863  1.2095 -1.0285 -0.7286
 8763TIP3   OH247703   1.241   2.217   1.117  0.2359 -0.5894  0.4256
 8763TIP3    H147704   1.333   2.190   1.122  0.2799 -0.3872  0.6990
 8763TIP3    H247705   1.239   2.286   1.051  0.2796 -0.6007  0.4126
 8764TIP3   OH247706   4.656   3.540  12.924  0.1229  0.5809  0.3524
 8764TIP3    H147707   4.710   3.583  12.857 -0.8239 -0.2968 -1.0439
 8764TIP3    H247708   4.685   3.449  12.922 -1.0800  0.1910 -0.1113
 8765TIP3   OH247709   4.468   6.233  10.867 -0.0665 -0.5607 -0.0776
 8765TIP3    H147710   4.481   6.301  10.801 -2.8162  0.5704  0.4056
 8765TIP3    H247711   4.452   6.282  10.948 -1.9878 -1.7397  0.3049
 8766TIP3   OH247712   5.733   4.435  11.643  0.7051  0.1383  0.7747
 8766TIP3    H147713   5.643   4.436  11.674  0.7520  0.5854  0.8978
 8766TIP3    H247714   5.785   4.452  11.722  1.0261 -2.1948  1.1431
 8767TIP3   OH247715   3.291   5.817   2.408  0.0246  0.3048  0.5732
 8767TIP3    H147716   3.288   5.899   2.457  0.2660  0.8173 -0.2546
 8767TIP3    H247717   3.384   5.797   2.399 -0.0319 -0.0396  0.7309
 8768TIP3   OH247718   4.225   3.382   2.164  0.2206  0.1874  0.3384
 8768TIP3    H147719   4.234   3.288   2.146 -0.0826 -0.1382  1.7829
 8768TIP3    H247720   4.314   3.410   2.189  0.0593 -0.0044  1.1490
 8769TIP3   OH247721   0.013   4.269  16.669 -0.2471  0.6238  0.7197
 8769TIP3    H147722  -0.007   4.312  16.586 -0.0230 -0.8340 -0.1321
 8769TIP3    H247723  -0.051   4.305  16.731 -0.4138  1.7362 -0.0759
 8770TIP3   OH247724   4.774   5.124  12.536 -0.9464  0.5641 -0.3140
 8770TIP3    H147725   4.684   5.108  12.562 -0.3675 -0.6678  1.0749
 8770TIP3    H247726   4.824   5.052  12.575  0.5106  0.6517 -1.8665
 8771TIP3   OH247727   3.517   0.076   4.993 -0.2221  0.1542  0.2322
 8771TIP3    H147728   3.484   0.143   5.052 -1.6315 -1.2719  1.1548
 8771TIP3    H247729   3.446   0.061   4.931  0.9211  1.0319 -1.3740
 8772TIP3   OH247730   4.063   1.691  16.019  0.1669  0.1655  0.2103
 8772TIP3    H147731   4.119   1.627  16.062  2.1113  2.5919  1.5442
 8772TIP3    H247732   3.989   1.703  16.079  1.0570  0.9180  1.1924
 8773TIP3   OH247733   2.134   5.925  12.441 -0.8969  0.7056 -0.3060
 8773TIP3    H147734   2.090   5.915  12.356  0.6008  0.7959 -1.1174
 8773TIP3    H247735   2.188   6.004  12.431 -1.5250  1.3494  1.1176
 8774TIP3   OH247736   5.220   3.476  16.545 -0.8060 -0.0752  0.0458
 8774TIP3    H147737   5.216   3.397  16.598  1.9807 -2.0261 -2.3370
 8774TIP3    H247738   5.310   3.478  16.512 -2.1519  1.2537 -4.1143
 8775TIP3   OH247739   3.794   6.176  16.139  0.0803  0.1023 -0.2435
 8775TIP3    H147740   3.802   6.091  16.096  0.9942  0.3640 -0.6190
 8775TIP3    H247741   3.881   6.215  16.132 -0.1709  0.8238  0.4483
 8776TIP3   OH247742   1.801   6.444  11.401 -0.1627 -0.5254 -0.1297
 8776TIP3    H147743   1.850   6.519  11.434 -1.2348 -0.2407  0.8986
 8776TIP3    H247744   1.864   6.394  11.349  1.7202 -1.0658  2.4374
 8777TIP3   OH247745   4.524   5.137   5.006  0.2646  0.2526 -0.4779
 8777TIP3    H147746   4.486   5.062   5.052  1.2467  0.0605  0.0635
 8777TIP3    H247747   4.559   5.100   4.925  1.7734 -0.1362  0.3048
 8778TIP3   OH247748   6.347   3.315   1.744 -0.1702  0.3135  0.5599
 8778TIP3    H147749   6.281   3.251   1.716  1.3533 -0.4602 -1.4510
 8778TIP3    H247750   6.315   3.346   1.829 -2.1675 -1.3768  0.5055
 8779TIP3   OH247751   6.220   2.625  12.617 -0.1987  0.1713 -0.6081
 8779TIP3    H147752   6.175   2.593  12.539  1.4786 -0.3176 -1.4244
 8779TIP3    H247753   6.217   2.721  12.607 -0.9456  0.1461 -0.6981
 8780TIP3   OH247754   2.670   5.846  16.345 -0.4986 -0.0153 -0.1303
 8780TIP3    H147755   2.703   5.934  16.365 -1.7754  0.5398 -0.3851
 8780TIP3    H247756   2.734   5.787  16.386  1.4171  0.9736 -1.5422
 8781TIP3   OH247757   2.319   0.375  12.500  0.2198  0.7191  0.2554
 8781TIP3    H147758   2.320   0.351  12.593  0.7632  0.7052  0.2537
 8781TIP3    H247759   2.410   0.402  12.482  1.4353 -3.5937 -1.3766
 8782TIP3   OH247760   5.916   1.713   3.452 -0.1699 -0.0606  0.1446
 8782TIP3    H147761   5.965   1.795   3.446 -0.0109 -0.1331  0.4206
 8782TIP3    H247762   5.923   1.674   3.365  0.4296 -0.1637  0.2369
 8783TIP3   OH247763   4.521   0.801  14.216  0.5027  0.2398  0.1199
 8783TIP3    H147764   4.581   0.739  14.174  0.0588 -1.0900  1.3448
 8783TIP3    H247765   4.577   0.850  14.277  0.4526 -0.7958  1.0463
 8784TIP3   OH247766   4.279   2.399   1.110 -0.3388 -0.6272 -0.0928
 8784TIP3    H147767   4.205   2.339   1.119 -0.2152 -0.7508  0.1080
 8784TIP3    H247768   4.347   2.346   1.068 -0.5862 -0.3288 -0.8867
 8785TIP3   OH247769   0.627   1.650  15.050 -0.3336 -0.1613 -0.9474
 8785TIP3    H147770   0.615   1.609  15.136 -2.3424  0.0931 -1.0576
 8785TIP3    H247771   0.664   1.736  15.070  1.2370 -0.9058 -0.5183
 8786TIP3   OH247772   3.710   5.045  10.707  0.5003 -0.3506  0.2639
 8786TIP3    H147773   3.780   5.052  10.642  0.8296 -0.3190  0.6111
 8786TIP3    H247774   3.720   5.123  10.761  0.2874 -0.4195  0.4021
 8787TIP3   OH247775   1.369   2.322  14.813  0.1557 -0.2821 -0.1059
 8787TIP3    H147776   1.436   2.253  14.806 -0.8883 -1.2252 -1.4362
 8787TIP3    H247777   1.372   2.349  14.904  1.5685 -1.1002  0.1287
 8788TIP3   OH247778   0.116   5.188  12.873 -0.2226  0.7628  0.2721
 8788TIP3    H147779   0.170   5.130  12.819  0.1311  0.2887  1.1102
 8788TIP3    H247780   0.152   5.178  12.962 -1.3590  0.8389  0.7554
 8789TIP3   OH247781   5.092   3.682   4.470 -0.0122 -0.4061 -0.1632
 8789TIP3    H147782   5.153   3.641   4.532 -1.1426  1.5661  2.4675
 8789TIP3    H247783   5.005   3.658   4.502 -0.7230  3.3298  1.2347
 8790TIP3   OH247784   5.245   0.186  12.403  0.4524  0.1576  0.6396
 8790TIP3    H147785   5.203   0.239  12.335  1.6888 -1.2366 -1.3105
 8790TIP3    H247786   5.181   0.116  12.421  0.3804  0.1835  0.4816
 8791TIP3   OH247787   4.892   5.875  16.027 -0.0068 -0.1871 -0.1337
 8791TIP3    H147788   4.884   5.841  16.116 -0.8188 -0.8016 -0.4379
 8791TIP3    H247789   4.834   5.951  16.025  0.1557 -0.0583 -0.0992
 8792TIP3   OH247790   0.258   6.770  14.752  0.2025  0.3038  0.4487
 8792TIP3    H147791   0.210   6.758  14.671  0.9603 -1.0869  0.1820
 8792TIP3    H247792   0.265   6.682  14.790 -2.4591  1.1620  3.4092
 8793TIP3   OH247793   1.146   2.813   5.707  1.0287  0.3876  0.4867
 8793TIP3    H147794   1.079   2.771   5.761 -0.6893  1.1429 -0.9133
 8793TIP3    H247795   1.110   2.901   5.689  1.2381  0.0293 -2.1810
 8794TIP3   OH247796   0.183   2.278   1.883  0.5040 -0.1280 -0.1246
 8794TIP3    H147797   0.254   2.320   1.932 -0.6400 -0.3116  1.7856
 8794TIP3    H247798   0.206   2.185   1.884  0.7475 -0.0706 -0.3842
 8795TIP3   OH247799   3.553   5.403   2.884 -0.2486  0.1570 -0.1161
 8795TIP3    H147800   3.630   5.459   2.894 -0.4927  0.4914 -0.0878
 8795TIP3    H247801   3.572   5.349   2.808  0.4340 -0.4501  0.4661
 8796TIP3   OH247802   4.725   5.621  13.614 -0.3973 -0.1082 -0.2912
 8796TIP3    H147803   4.708   5.682  13.687  1.2013  0.3937 -0.2932
 8796TIP3    H247804   4.686   5.539  13.642  0.6455 -0.0785  1.4090
 8797TIP3   OH247805   4.863   6.415   4.669  0.4297  0.4057 -0.0132
 8797TIP3    H147806   4.805   6.382   4.738  0.6121  0.6990  0.2858
 8797TIP3    H247807   4.902   6.337   4.631  0.7904  0.2619  0.6310
 8798TIP3   OH247808   2.930   3.362   3.871 -0.0803  0.0963  0.5740
 8798TIP3    H147809   3.008   3.308   3.880  0.2421  0.5847  0.7594
 8798TIP3    H247810   2.882   3.324   3.797  1.3241  0.9904 -0.8468
 8799TIP3   OH247811   1.199   1.882  16.859 -0.0187 -0.3415 -0.4572
 8799TIP3    H147812   1.211   1.939  16.935  0.9372  1.5968 -1.9942
 8799TIP3    H247813   1.281   1.832  16.853  0.3871  0.3784 -0.9160
 8800TIP3   OH247814   4.169   0.429   2.669 -0.0314  0.2415  0.1100
 8800TIP3    H147815   4.251   0.409   2.623  0.0637 -2.0974  1.1626
 8800TIP3    H247816   4.179   0.388   2.754 -1.6649  1.3708  0.9049
 8801TIP3   OH247817   1.963   4.628  15.933  0.0609  0.0985 -0.1316
 8801TIP3    H147818   1.959   4.690  15.860 -3.2529 -1.9009 -1.9294
 8801TIP3    H247819   1.880   4.639  15.979  1.1399 -0.2661  2.0578
 8802TIP3   OH247820   5.563   1.575  13.631  0.5165 -0.3785  0.4055
 8802TIP3    H147821   5.475   1.591  13.598  0.5717  1.1169  0.9196
 8802TIP3    H247822   5.620   1.628  13.575  1.1820 -1.7933 -0.3071
 8803TIP3   OH247823   3.030   4.428   4.430 -0.3560 -0.4789 -0.3014
 8803TIP3    H147824   3.053   4.337   4.451  0.4956 -0.7306 -2.1321
 8803TIP3    H247825   3.112   4.476   4.439 -0.1704 -0.4265 -1.9363
 8804TIP3   OH247826   5.368   6.507   0.235  0.5637  0.6433  0.6748
 8804TIP3    H147827   5.401   6.420   0.216  0.6764  0.8627 -0.1861
 8804TIP3    H247828   5.438   6.550   0.284 -0.3327 -0.4453  3.1013
 8805TIP3   OH247829   1.528   5.138  16.238  0.8101 -0.4880 -0.1097
 8805TIP3    H147830   1.535   5.043  16.232 -0.1563 -0.6050  0.4240
 8805TIP3    H247831   1.487   5.165  16.156 -0.7960 -0.7611  0.5744
 8806TIP3   OH247832   4.346   4.146   2.917  0.1762 -0.4424  0.0917
 8806TIP3    H147833   4.339   4.119   2.825 -2.0023 -0.1071  0.1028
 8806TIP3    H247834   4.278   4.095   2.962 -0.5066  1.2397  1.0496
 8807TIP3   OH247835   1.663   5.190  12.471  0.8469  0.2147  0.3622
 8807TIP3    H147836   1.590   5.129  12.455  0.5190  0.3450  1.2908
 8807TIP3    H247837   1.738   5.134  12.489  1.1710  0.0694 -1.3451
 8808TIP3   OH247838   4.751   0.834   2.339 -0.7905 -0.2664  0.2653
 8808TIP3    H147839   4.837   0.809   2.305 -0.5830  3.0790 -2.1878
 8808TIP3    H247840   4.771   0.873   2.424  0.4520  1.7481 -0.8606
 8809TIP3   OH247841   6.050   3.417  15.864  0.0655  0.1131 -0.4642
 8809TIP3    H147842   5.981   3.374  15.813 -0.1743  1.0125 -0.9049
 8809TIP3    H247843   6.030   3.395  15.955  0.3099 -1.2376 -0.7090
 8810TIP3   OH247844   2.538   5.602  11.099 -0.2443  0.3556 -0.2533
 8810TIP3    H147845   2.562   5.559  11.017 -0.5111 -1.2943  0.4801
 8810TIP3    H247846   2.551   5.534  11.166 -0.1452  1.6170  1.0566
 8811TIP3   OH247847   4.049   4.863  14.319 -0.4160  0.4081 -0.3101
 8811TIP3    H147848   4.051   4.956  14.340 -3.0026  0.1012  1.7897
 8811TIP3    H247849   4.035   4.820  14.403  1.2351 -1.9845 -1.1345
 8812TIP3   OH247850   2.772   3.558   2.225  0.2162  0.2266 -0.3392
 8812TIP3    H147851   2.751   3.475   2.268 -2.4633  1.4768  1.0157
 8812TIP3    H247852   2.868   3.560   2.222  0.3883 -2.2318  0.8995
 8813TIP3   OH247853   3.649   0.008   6.269 -0.1272  0.4063  0.1595
 8813TIP3    H147854   3.618  -0.071   6.225  0.2579  0.8745 -0.9825
 8813TIP3    H247855   3.595   0.015   6.348 -0.1053 -1.0369  0.3219
 8814TIP3   OH247856   1.751   2.540  12.649  1.0380 -0.0514 -0.3699
 8814TIP3    H147857   1.756   2.449  12.677  1.0771  0.1454  0.2660
 8814TIP3    H247858   1.701   2.584  12.718 -0.3785  0.0960 -1.4459
 8815TIP3   OH247859   6.479   4.181  14.260  0.1686  0.1866 -0.2046
 8815TIP3    H147860   6.483   4.145  14.348  0.7991 -1.5246 -0.8793
 8815TIP3    H247861   6.450   4.271  14.271  1.1433  0.3002  1.8182
 8816TIP3   OH247862   5.777   2.233   3.438 -0.0544  0.0786  0.2032
 8816TIP3    H147863   5.788   2.188   3.355  1.7417 -0.7794  0.8486
 8816TIP3    H247864   5.721   2.309   3.418  2.8507  1.7356 -2.4818
 8817TIP3   OH247865   4.297   1.345  16.411 -0.0457  0.3478 -0.2103
 8817TIP3    H147866   4.284   1.306  16.325 -1.5919 -0.2511  0.2790
 8817TIP3    H247867   4.334   1.275  16.465  1.9635  1.0183 -0.6224
 8818TIP3   OH247868   3.114   5.261  11.801  0.5823 -0.1053 -0.6064
 8818TIP3    H147869   3.124   5.257  11.706 -1.2187  0.7928 -0.8723
 8818TIP3    H247870   3.186   5.317  11.830  1.9665 -1.4707 -1.2453
 8819TIP3   OH247871   0.914   6.267  11.089 -0.0968  0.4898  0.4398
 8819TIP3    H147872   0.979   6.310  11.145 -0.2866  1.7821 -0.2952
 8819TIP3    H247873   0.964   6.205  11.036  0.5531  1.4261 -0.0699
 8820TIP3   OH247874   4.281   1.714  11.301  0.2710  0.4391  0.0784
 8820TIP3    H147875   4.266   1.788  11.243  1.5308  0.6643  0.0006
 8820TIP3    H247876   4.260   1.746  11.389  1.9432  1.3032  0.2045
 8821TIP3   OH247877   4.949   3.529  14.530 -0.3017 -0.0063 -0.1460
 8821TIP3    H147878   4.876   3.575  14.572 -0.5506 -0.2324 -0.3337
 8821TIP3    H247879   5.024   3.585  14.547 -0.9243  1.5206 -2.0927
 8822TIP3   OH247880   3.123   3.603  12.380  0.1847 -0.5104  0.2825
 8822TIP3    H147881   3.102   3.510  12.392 -0.5369 -0.3763  0.1244
 8822TIP3    H247882   3.038   3.644  12.361  0.6188  0.0431 -0.5037
 8823TIP3   OH247883   1.810   6.039   0.043  0.0032  0.2906 -0.4710
 8823TIP3    H147884   1.853   6.059   0.127 -0.3774 -2.1764  0.4006
 8823TIP3    H247885   1.882   6.031  -0.019  0.7751 -2.0637  0.5963
 8824TIP3   OH247886   6.052   6.021   0.349  0.6322 -0.3463  0.1128
 8824TIP3    H147887   6.049   5.935   0.308  0.1749 -0.6486  0.7747
 8824TIP3    H247888   5.977   6.068   0.313  1.1750 -0.0364 -0.6402
 8825TIP3   OH247889   4.527   5.113   2.672  0.1924 -0.3313 -0.3628
 8825TIP3    H147890   4.525   5.204   2.701  0.6526 -0.5574  0.3952
 8825TIP3    H247891   4.518   5.118   2.577  1.1104  0.5559 -0.4176
 8826TIP3   OH247892   1.451   5.074  11.694  0.4517 -0.2619  0.8588
 8826TIP3    H147893   1.539   5.052  11.664  0.5458  0.5661  0.5308
 8826TIP3    H247894   1.439   5.166  11.672 -1.4186 -0.9516 -1.3650
 8827TIP3   OH247895   4.724   3.276  12.865  0.7701  1.0714  0.0701
 8827TIP3    H147896   4.771   3.271  12.782  2.6905  0.7462  1.0994
 8827TIP3    H247897   4.632   3.273  12.841  1.2620  1.0825 -2.0393
 8828TIP3   OH247898   2.580   3.310  12.956  0.2311  0.0255  0.3831
 8828TIP3    H147899   2.642   3.265  12.898 -0.9612 -0.0491 -0.8742
 8828TIP3    H247900   2.635   3.348  13.025  2.1299  2.8246 -2.4572
 8829TIP3   OH247901   3.373   3.337  13.887  0.3903 -0.1916  0.4320
 8829TIP3    H147902   3.319   3.405  13.846 -2.3830 -1.3781  1.8889
 8829TIP3    H247903   3.422   3.298  13.814 -1.3561  0.4000 -1.1230
 8830TIP3   OH247904   2.337   6.370   1.641  0.3200 -0.3159  0.3782
 8830TIP3    H147905   2.277   6.323   1.583 -0.2602  1.8105 -0.8556
 8830TIP3    H247906   2.412   6.312   1.651 -0.8305 -1.9646 -0.1103
 8831TIP3   OH247907   3.176   5.165  11.493 -0.3738 -0.0816 -0.4682
 8831TIP3    H147908   3.220   5.132  11.414 -1.4722  0.0613 -1.1606
 8831TIP3    H247909   3.117   5.095  11.519  3.0460 -2.1078  2.9168
 8832TIP3   OH247910   1.379   4.977  13.684 -0.6108 -0.1259 -0.1910
 8832TIP3    H147911   1.464   5.012  13.708  0.2203 -1.5382 -0.9497
 8832TIP3    H247912   1.344   4.940  13.765  1.5142 -3.5319 -0.6517
 8833TIP3   OH247913   6.191   6.686   5.226 -0.0220 -0.2409 -0.0507
 8833TIP3    H147914   6.102   6.718   5.243  0.1942  0.7715 -0.7774
 8833TIP3    H247915   6.207   6.624   5.298 -0.5485  1.0816  1.2656
 8834TIP3   OH247916   1.255   3.256  13.708 -0.6176 -0.2554  0.4805
 8834TIP3    H147917   1.229   3.182  13.654 -1.0046  1.3215 -1.6270
 8834TIP3    H247918   1.173   3.299  13.731 -0.3610 -0.1017  1.1228
 8835TIP3   OH247919   0.592   6.344  11.738 -0.8624 -0.2365  0.1769
 8835TIP3    H147920   0.616   6.310  11.652 -0.1361 -0.4681  0.4724
 8835TIP3    H247921   0.608   6.438  11.731 -0.7418 -0.2638  0.0812
 8836TIP3   OH247922   5.047   4.167   2.390  0.1068 -0.8708  0.1248
 8836TIP3    H147923   5.053   4.173   2.295 -1.1362  1.8376  0.1300
 8836TIP3    H247924   5.121   4.218   2.422  0.0174 -1.0486  0.6269
 8837TIP3   OH247925   6.172   5.356  15.381 -0.2135  0.0203  1.2983
 8837TIP3    H147926   6.078   5.338  15.390 -0.3192 -1.1702 -1.2850
 8837TIP3    H247927   6.210   5.271  15.359  1.3892  0.6197  1.6418
 8838TIP3   OH247928   2.376   0.099   0.461  0.0620 -0.3946  0.2719
 8838TIP3    H147929   2.423   0.182   0.474 -0.0917 -0.2755  0.0779
 8838TIP3    H247930   2.384   0.082   0.367 -1.5357  0.3828 -0.0283
 8839TIP3   OH247931   2.821   0.607   1.642  0.2047 -0.0239  0.1501
 8839TIP3    H147932   2.778   0.528   1.673  0.7984 -1.0510 -1.5265
 8839TIP3    H247933   2.756   0.651   1.588  0.1318  0.2734  0.4668
 8840TIP3   OH247934   1.991   6.403   5.344  0.7206  0.3439 -0.1975
 8840TIP3    H147935   2.037   6.326   5.312  1.4738  1.0740 -0.9329
 8840TIP3    H247936   2.061   6.460   5.377  0.2420  0.9764 -0.2606
 8841TIP3   OH247937   6.663   5.407  16.016  0.0209 -0.1107 -0.7600
 8841TIP3    H147938   6.651   5.382  16.107  2.9433 -1.3437 -0.6051
 8841TIP3    H247939   6.670   5.502  16.017  0.7217 -0.1615  0.4306
 8842TIP3   OH247940   2.006   4.660   3.727 -0.0763  0.8015 -0.1283
 8842TIP3    H147941   2.093   4.632   3.755 -0.8593 -2.7516 -0.8255
 8842TIP3    H247942   1.946   4.616   3.788 -1.4559  0.8922 -1.3585
 8843TIP3   OH247943   0.560   5.912   1.723  0.2095  0.0359 -0.6275
 8843TIP3    H147944   0.470   5.919   1.754  0.3742 -1.8417  0.4758
 8843TIP3    H247945   0.566   5.972   1.649 -1.6957  0.8190 -0.1857
 8844TIP3   OH247946   4.255   2.512  15.560 -0.2340  0.1340 -0.6180
 8844TIP3    H147947   4.193   2.447  15.528  0.3519 -0.0150 -1.5039
 8844TIP3    H247948   4.335   2.495  15.510  0.5364  0.2842  0.5311
 8845TIP3   OH247949   5.466   4.985   5.526 -0.1493  0.6048  0.4667
 8845TIP3    H147950   5.485   4.891   5.520 -0.7108  0.5897 -2.1083
 8845TIP3    H247951   5.433   4.997   5.615 -0.7838 -1.7899  0.6183
 8846TIP3   OH247952   5.005   6.073  14.518 -0.1093  0.1574  0.0408
 8846TIP3    H147953   4.935   6.055  14.454 -1.6950  0.6270  1.5682
 8846TIP3    H247954   4.964   6.056  14.603  1.6563  0.4893  0.9917
 8847TIP3   OH247955   6.398   2.988   1.866  1.2346 -0.2044  0.2400
 8847TIP3    H147956   6.473   3.006   1.809  1.1544 -2.7944 -0.8115
 8847TIP3    H247957   6.427   2.918   1.924  0.7018  1.1426  2.2336
 8848TIP3   OH247958   4.449   4.742  13.693 -0.1785  0.4006  1.0050
 8848TIP3    H147959   4.375   4.687  13.720 -0.8472  0.4953 -0.5251
 8848TIP3    H247960   4.446   4.817  13.754 -2.1309  1.0213  0.2353
 8849TIP3   OH247961   3.956   6.061   1.451 -0.0813 -0.1481  0.6744
 8849TIP3    H147962   3.932   6.071   1.359 -0.9799  0.5356  0.9599
 8849TIP3    H247963   4.023   5.993   1.452 -0.2295 -0.3235 -0.4565
 8850TIP3   OH247964   6.211   0.574   0.517  0.4251 -0.4660 -0.5917
 8850TIP3    H147965   6.198   0.631   0.441  1.1437 -0.3528 -0.6355
 8850TIP3    H247966   6.256   0.498   0.481  0.2489 -0.6730 -0.3739
 8851TIP3   OH247967   2.477   5.547   3.372  0.5077 -0.1896  1.0858
 8851TIP3    H147968   2.495   5.505   3.288 -0.3253  1.3036  0.1147
 8851TIP3    H247969   2.411   5.492   3.413  0.0034 -0.2730  0.1938
 8852TIP3   OH247970   4.893   3.029  16.566  0.6111  0.2993 -0.6917
 8852TIP3    H147971   4.973   3.082  16.574 -0.0527  1.0955  1.6628
 8852TIP3    H247972   4.823   3.088  16.595 -0.7565 -0.6276 -1.9710
 8853TIP3   OH247973   4.177   3.033  14.718 -0.4783 -0.1353 -0.6166
 8853TIP3    H147974   4.147   3.119  14.746 -2.1962 -0.5463 -1.0874
 8853TIP3    H247975   4.262   3.050  14.676 -0.6515  1.2762 -0.4449
 8854TIP3   OH247976   2.254   6.271  16.747 -0.3411  0.0508 -0.0524
 8854TIP3    H147977   2.243   6.243  16.839  1.2644 -1.1822 -0.1801
 8854TIP3    H247978   2.241   6.191  16.697  0.1132  0.4410 -0.8009
 8855TIP3   OH247979   3.813   5.516   5.438  0.4397  0.6622 -0.4751
 8855TIP3    H147980   3.871   5.464   5.493 -0.7488 -0.4968 -0.2778
 8855TIP3    H247981   3.814   5.603   5.477 -0.3348 -0.1169  1.3761
 8856TIP3   OH247982   1.810   1.498  13.795 -0.2497 -0.1512  0.0730
 8856TIP3    H147983   1.819   1.516  13.702  0.5791  0.2150  0.2171
 8856TIP3    H247984   1.898   1.473  13.823  0.1484  2.3033  1.2907
 8857TIP3   OH247985   3.324   3.712   0.494  0.1791  0.1898  0.2279
 8857TIP3    H147986   3.347   3.633   0.446 -1.9011  0.7550 -1.8971
 8857TIP3    H247987   3.228   3.713   0.495  0.1483  1.9910  1.4016
 8858TIP3   OH247988   3.343   6.361  15.202 -0.1695 -0.1781  0.2226
 8858TIP3    H147989   3.269   6.418  15.182 -2.2801 -2.7297  0.1390
 8858TIP3    H247990   3.346   6.299  15.129  0.8719 -1.2234  1.1076
 8859TIP3   OH247991   1.189   5.652   0.492  0.0097  0.1122 -0.2197
 8859TIP3    H147992   1.204   5.560   0.512  0.4376  0.0560 -0.7872
 8859TIP3    H247993   1.099   5.669   0.522 -0.0119 -0.4415  0.0372
 8860TIP3   OH247994   4.693   4.392   4.252 -0.2795  0.1179 -0.0119
 8860TIP3    H147995   4.766   4.407   4.312  0.3371  1.6388 -1.0770
 8860TIP3    H247996   4.649   4.314   4.286  1.3706 -0.3674  1.1073
 8861TIP3   OH247997   0.754   6.590  13.085 -0.1149  0.1982  0.4752
 8861TIP3    H147998   0.674   6.561  13.129 -1.8480 -1.0066 -3.0890
 8861TIP3    H247999   0.738   6.681  13.062 -0.6458 -0.1217 -0.4818
 8862TIP3   OH248000   1.689   5.683  16.656 -0.6416 -0.2916  0.4995
 8862TIP3    H148001   1.771   5.714  16.615 -1.0447  1.1180  0.6841
 8862TIP3    H248002   1.694   5.588  16.651 -0.3284 -0.2281 -2.1748
 8863TIP3   OH248003   4.076   1.273   3.179  0.0083 -0.4005 -0.7459
 8863TIP3    H148004   4.164   1.237   3.171  0.0818 -0.1088 -1.2580
 8863TIP3    H248005   4.060   1.317   3.096 -0.3822  0.0772 -0.4263
 8864TIP3   OH248006   2.321   0.494  13.005 -0.4651 -0.1010 -0.4614
 8864TIP3    H148007   2.400   0.503  13.058 -1.2520  2.0075  0.4354
 8864TIP3    H248008   2.249   0.509  13.066 -1.6242 -2.0213 -1.2487
 8865TIP3   OH248009   3.177   2.487  16.277  0.4686  0.0580  0.1512
 8865TIP3    H148010   3.146   2.425  16.342 -0.0353 -0.4591 -0.5592
 8865TIP3    H248011   3.123   2.565  16.290  0.0690 -0.2042  0.0631
 8866TIP3   OH248012   4.557   5.412  13.358  0.4127 -0.1524 -0.4008
 8866TIP3    H148013   4.486   5.367  13.311  0.1523 -0.9437  0.7028
 8866TIP3    H248014   4.514   5.487  13.399  0.5124  0.1662 -0.8625
 8867TIP3   OH248015   6.590   0.118  12.367 -0.2868  0.2179 -0.2220
 8867TIP3    H148016   6.635   0.050  12.316 -2.2469  0.0195 -1.8043
 8867TIP3    H248017   6.515   0.072  12.405 -0.3108  0.9843  0.6608
 8868TIP3   OH248018   0.100   1.536  16.620  0.1356  0.1952  0.4282
 8868TIP3    H148019   0.184   1.504  16.587  0.3635 -0.3932  1.5070
 8868TIP3    H248020   0.080   1.477  16.693 -0.7125  0.9600  0.8272
 8869TIP3   OH248021   6.655   5.466  11.852  0.1643 -0.0367  0.1202
 8869TIP3    H148022   6.684   5.419  11.773 -1.3586  0.6241 -0.8808
 8869TIP3    H248023   6.564   5.440  11.862  0.4826 -0.5549  2.0458
 8870TIP3   OH248024   6.222   0.122  10.763  0.3018  0.5290  0.6850
 8870TIP3    H148025   6.306   0.154  10.730 -1.3366  3.1627 -1.3568
 8870TIP3    H248026   6.157   0.164  10.707 -2.4048 -1.9061  1.7528
 8871TIP3   OH248027   3.251   4.839   5.844  0.6909 -0.0591  0.1872
 8871TIP3    H148028   3.175   4.799   5.885 -0.0043  0.3423 -0.6924
 8871TIP3    H248029   3.318   4.770   5.846 -0.0935 -0.8450 -0.1858
 8872TIP3   OH248030   0.676   0.936  11.773 -0.3192 -0.0443  0.4328
 8872TIP3    H148031   0.612   0.977  11.715 -0.0115  0.3492  0.3699
 8872TIP3    H248032   0.736   1.006  11.797  1.3359 -0.8268 -1.1817
 8873TIP3   OH248033   4.421   0.592   2.046  0.1679 -0.3278  0.0143
 8873TIP3    H148034   4.348   0.567   2.103 -1.1889  0.3862 -1.3731
 8873TIP3    H248035   4.490   0.620   2.107  0.0285 -2.7728  1.4379
 8874TIP3   OH248036   6.770   0.668   5.619 -0.3458 -0.0349 -0.1525
 8874TIP3    H148037   6.728   0.634   5.698 -0.1196 -0.9219 -0.4068
 8874TIP3    H248038   6.831   0.600   5.593 -0.6207  0.1268 -1.2607
 8875TIP3   OH248039   3.565   3.783  13.359  0.0826 -0.4061  0.5970
 8875TIP3    H148040   3.484   3.800  13.311 -0.0958 -1.4111  0.5215
 8875TIP3    H248041   3.609   3.868  13.363  0.7298 -0.4809 -2.4835
 8876TIP3   OH248042   5.214   4.832   4.028  0.8331 -0.4118  0.7082
 8876TIP3    H148043   5.245   4.755   3.981 -1.1305 -0.8407  0.0348
 8876TIP3    H248044   5.165   4.882   3.962 -0.0277  0.1279  1.7326
 8877TIP3   OH248045   6.722   6.797  10.967 -0.1456 -0.0102 -0.1980
 8877TIP3    H148046   6.640   6.752  10.946 -0.3608  0.3054 -0.0576
 8877TIP3    H248047   6.758   6.824  10.883 -1.2213  1.6330 -0.1792
 8878TIP3   OH248048   4.922   5.903   4.817 -0.2278  0.0502 -0.1992
 8878TIP3    H148049   4.846   5.881   4.870  0.1308 -1.4502 -0.2493
 8878TIP3    H248050   4.886   5.923   4.730 -0.6186  0.1275 -0.0206
 8879TIP3   OH248051   4.512   2.445  12.240  0.2990 -0.6229 -0.1229
 8879TIP3    H148052   4.551   2.532  12.232  0.7847 -0.7907  0.4324
 8879TIP3    H248053   4.429   2.452  12.192 -0.2539  0.5134  0.9196
 8880TIP3   OH248054   6.647   3.257   5.998 -0.6386 -0.5244 -0.0689
 8880TIP3    H148055   6.706   3.308   5.942 -1.3076 -0.3803 -0.6658
 8880TIP3    H248056   6.699   3.235   6.075  0.2271 -0.5094 -0.6370
 8881TIP3   OH248057   0.517   3.887   0.188  0.0871  0.5552 -0.0616
 8881TIP3    H148058   0.543   3.854   0.274  2.2261 -0.5067 -1.0153
 8881TIP3    H248059   0.528   3.982   0.195  1.6443  0.3706  0.4580
 8882TIP3   OH248060   0.506   3.994  13.442  0.2929 -0.6862 -0.0432
 8882TIP3    H148061   0.472   4.021  13.527  0.7837  2.0794 -0.6180
 8882TIP3    H248062   0.588   3.949  13.462  1.0598  1.0445  0.9676
 8883TIP3   OH248063   2.722   0.711   6.094 -0.2007  0.7503  0.5714
 8883TIP3    H148064   2.649   0.716   6.033  0.4296  1.0990 -0.1796
 8883TIP3    H248065   2.761   0.798   6.091  0.4695  0.4607  0.6660
 8884TIP3   OH248066   3.469   0.935   2.126 -0.2484  0.1033  0.2778
 8884TIP3    H148067   3.498   0.845   2.136 -1.5469 -0.2448  1.2804
 8884TIP3    H248068   3.549   0.988   2.132  0.3903 -0.9071  0.9041
 8885TIP3   OH248069   0.217   6.010  16.307  0.3176 -0.0048  0.6991
 8885TIP3    H148070   0.286   6.002  16.242 -0.2276  2.6196 -0.3234
 8885TIP3    H248071   0.250   6.074  16.371  0.0661 -1.0886  1.9649
 8886TIP3   OH248072   1.085   1.624  15.084 -0.4083 -0.6083 -0.3240
 8886TIP3    H148073   1.035   1.656  15.009 -0.7704 -0.0587  0.1406
 8886TIP3    H248074   1.169   1.670  15.079 -1.4524  1.6662  1.1704
 8887TIP3   OH248075   2.789   2.578  13.750 -0.1075 -0.1737  0.3381
 8887TIP3    H148076   2.783   2.507  13.814 -0.5293 -0.1454  0.3305
 8887TIP3    H248077   2.783   2.658  13.802 -0.8035 -0.1541  0.2259
 8888TIP3   OH248078   4.834   0.529   1.034 -0.1700 -0.2454 -0.1514
 8888TIP3    H148079   4.852   0.623   1.022 -1.9514  0.2346  0.5437
 8888TIP3    H248080   4.758   0.513   0.978 -1.0728 -0.7997  1.1920
 8889TIP3   OH248081   0.769   0.026   3.130 -0.1706 -0.1666 -0.3080
 8889TIP3    H148082   0.830   0.000   3.061 -1.3671  0.9772 -1.8588
 8889TIP3    H248083   0.748   0.117   3.110 -3.7286 -0.9763 -0.9290
 8890TIP3   OH248084   1.008   4.781  16.532  0.2476  0.1272 -0.3928
 8890TIP3    H148085   1.014   4.875  16.514 -2.2458  0.2496 -0.8654
 8890TIP3    H248086   0.986   4.741  16.448 -2.5548 -0.3660  0.4810
 8891TIP3   OH248087   3.921   1.417   5.684  1.0507  0.1553 -0.0973
 8891TIP3    H148088   3.930   1.331   5.726  0.5695  0.4049  0.5332
 8891TIP3    H248089   4.010   1.439   5.658  1.0766 -0.8650 -0.9503
 8892TIP3   OH248090   1.507   2.297   0.178 -0.4857 -0.3413  0.0408
 8892TIP3    H148091   1.488   2.291   0.271 -0.6097  2.0834  0.2445
 8892TIP3    H248092   1.591   2.254   0.168  0.3980  0.8929  1.6389
 8893TIP3   OH248093   4.273   6.553  16.433  0.1547  0.3285 -0.5654
 8893TIP3    H148094   4.265   6.471  16.383  3.2049  1.2469 -2.8529
 8893TIP3    H248095   4.307   6.527  16.518 -0.3897 -0.8609 -0.6916
 8894TIP3   OH248096   0.065   4.775  11.444  0.0874  0.4727  0.3927
 8894TIP3    H148097   0.115   4.856  11.440 -0.1615  0.7541  2.1356
 8894TIP3    H248098   0.080   4.733  11.360  0.0362  2.4257 -0.6384
 8895TIP3   OH248099   3.009   1.518   1.856 -0.4147  0.3054 -0.3667
 8895TIP3    H148100   3.047   1.433   1.880 -1.5659 -0.2682 -0.4789
 8895TIP3    H248101   3.044   1.536   1.768 -0.0196  0.0293 -0.2676
 8896TIP3   OH248102   4.157   3.156  11.858  0.1648 -0.0071 -0.3009
 8896TIP3    H148103   4.091   3.167  11.926  1.2185 -1.3197  1.0113
 8896TIP3    H248104   4.235   3.124  11.905  1.4842  0.7277 -1.8929
 8897TIP3   OH248105   0.866   1.281   1.556  0.1232 -0.3117  0.0100
 8897TIP3    H148106   0.814   1.273   1.635 -1.3301  1.1366 -0.7325
 8897TIP3    H248107   0.828   1.357   1.510  1.7040 -0.3557 -1.4656
 8898TIP3   OH248108   6.363   5.606   1.603  0.3635 -0.2835 -0.0236
 8898TIP3    H148109   6.289   5.664   1.585 -0.5881 -1.4581 -0.0269
 8898TIP3    H248110   6.370   5.606   1.699  1.5147  1.1889 -0.0688
 8899TIP3   OH248111   5.076   2.797  14.641  0.1706 -0.1922  0.3983
 8899TIP3    H148112   5.080   2.728  14.575  1.4938 -0.7946  1.0602
 8899TIP3    H248113   5.121   2.760  14.717  0.4471  1.2125  0.9502
 8900TIP3   OH248114   0.729   5.483  16.079  0.6967 -0.1958 -0.2032
 8900TIP3    H148115   0.699   5.568  16.112  1.4121 -0.0336  0.0586
 8900TIP3    H248116   0.804   5.504  16.023  0.4642 -0.6050 -0.6743
 8901TIP3   OH248117   0.953   6.308  15.228  0.2186 -0.1015 -0.2185
 8901TIP3    H148118   0.888   6.265  15.172 -0.5599  0.1871  0.4459
 8901TIP3    H248119   0.932   6.401  15.223  0.6582  0.0078 -0.0880
 8902TIP3   OH248120   1.283   3.487  15.294 -0.6221  0.1009 -0.2526
 8902TIP3    H148121   1.302   3.401  15.257 -1.2190  0.7889 -2.2980
 8902TIP3    H248122   1.364   3.512  15.340  0.3342 -0.6359 -1.4817
 8903TIP3   OH248123   6.171   2.824   0.191 -0.1313 -0.3434 -0.0639
 8903TIP3    H148124   6.206   2.744   0.153 -0.8952 -0.4638 -0.5287
 8903TIP3    H248125   6.151   2.800   0.282  1.6936 -0.0526  0.4577
 8904TIP3   OH248126   5.023   6.133   4.956 -0.4600 -0.1491 -0.6055
 8904TIP3    H148127   5.088   6.064   4.946  0.1166  0.3895 -0.6269
 8904TIP3    H248128   4.939   6.088   4.950 -0.0958 -0.7434 -1.3603
 8905TIP3   OH248129   0.197   6.325  16.035 -0.0284  0.2650 -0.1283
 8905TIP3    H148130   0.136   6.253  16.051  0.3308  0.1811  0.9709
 8905TIP3    H248131   0.246   6.299  15.957 -0.4471 -0.3042 -0.2027
 8906TIP3   OH248132   2.146   5.853  15.907 -0.5491  0.1577 -0.1884
 8906TIP3    H148133   2.194   5.919  15.857 -1.1627  0.2904 -0.6187
 8906TIP3    H248134   2.142   5.778  15.848  0.5024 -0.4225  0.4541
 8907TIP3   OH248135   3.789   5.333  14.953 -0.3370  0.0650 -0.1831
 8907TIP3    H148136   3.881   5.346  14.932 -0.5589 -0.3052 -1.4911
 8907TIP3    H248137   3.747   5.415  14.928 -0.5713 -0.3030 -1.0506
 8908TIP3   OH248138   5.089   2.847  15.061  0.0922  0.1630  0.4133
 8908TIP3    H148139   5.014   2.894  15.024 -0.1106 -1.1877 -0.9686
 8908TIP3    H248140   5.161   2.910  15.056 -0.7564  1.2407  1.1238
 8909TIP3   OH248141   3.666   6.519   5.137 -0.2665  0.3825  0.1067
 8909TIP3    H148142   3.753   6.551   5.113 -0.0007  0.0026  0.5413
 8909TIP3    H248143   3.631   6.482   5.056  0.4314 -0.4697  0.1804
 8910TIP3   OH248144   0.708   0.176  13.375 -0.5085 -0.1124  0.1898
 8910TIP3    H148145   0.706   0.138  13.463 -2.9070  0.4460  0.4334
 8910TIP3    H248146   0.669   0.109  13.319  1.8612 -0.8520 -0.6868
 8911TIP3   OH248147   1.689   4.554   0.792 -0.1944  0.4928  0.3521
 8911TIP3    H148148   1.777   4.519   0.805 -1.0690 -1.2819  1.8933
 8911TIP3    H248149   1.697   4.647   0.816  0.8241 -0.1252  2.7377
 8912TIP3   OH248150   6.026   0.615  12.516 -0.0706 -0.1603  0.3560
 8912TIP3    H148151   5.951   0.584  12.464  0.6851 -1.4637  0.0086
 8912TIP3    H248152   6.016   0.572  12.601 -1.1758  1.7896  1.2900
 8913TIP3   OH248153   0.757   2.188   0.618 -0.5387 -0.0839 -0.0979
 8913TIP3    H148154   0.795   2.122   0.676 -0.3055 -2.2011 -2.4548
 8913TIP3    H248155   0.664   2.168   0.616 -0.3563 -0.8885 -1.4136
 8914TIP3   OH248156   3.739   5.116   6.289  0.3040 -0.1823  0.4931
 8914TIP3    H148157   3.738   5.093   6.382 -1.0335  0.1453  0.5874
 8914TIP3    H248158   3.647   5.137   6.269  0.5850 -0.1758 -0.8816
 8915TIP3   OH248159   3.217   0.943   4.323  0.5200  0.3279  0.0885
 8915TIP3    H148160   3.302   0.936   4.366  0.4932 -0.8459 -0.0068
 8915TIP3    H248161   3.169   0.866   4.354 -1.2367  1.9540  1.6737
 8916TIP3   OH248162   5.311   0.124   3.246 -0.4921  0.3923  0.2399
 8916TIP3    H148163   5.362   0.113   3.166  1.7281 -0.3838  1.6784
 8916TIP3    H248164   5.340   0.208   3.281  1.0166 -0.7488  1.8503
 8917TIP3   OH248165   2.231   4.282   4.372 -0.1379  0.2591 -0.3660
 8917TIP3    H148166   2.187   4.367   4.368 -0.7536 -0.1029 -1.6246
 8917TIP3    H248167   2.276   4.274   4.288  0.3086 -0.4603 -0.0665
 8918TIP3   OH248168   3.042   6.649   4.102 -0.1332 -0.5112  0.3451
 8918TIP3    H148169   2.959   6.677   4.064  0.3470 -0.3726 -0.6338
 8918TIP3    H248170   3.027   6.559   4.130 -1.3500  0.2689  2.4800
 8919TIP3   OH248171   3.158   5.267   1.658 -0.4534  0.3815  0.1956
 8919TIP3    H148172   3.223   5.224   1.601  0.9587 -1.2615  2.8521
 8919TIP3    H248173   3.082   5.208   1.655 -0.0955 -0.1031  0.6020
 8920TIP3   OH248174   6.497   0.134   3.995 -0.8110  0.3054  0.5679
 8920TIP3    H148175   6.424   0.102   3.943 -0.1440 -2.0539  0.9418
 8920TIP3    H248176   6.530   0.056   4.040 -0.3012  1.9188  3.2171
 8921TIP3   OH248177   1.785   1.031   5.212 -0.1469 -0.0231 -0.1832
 8921TIP3    H148178   1.781   1.052   5.119 -1.3757 -1.5354 -0.5369
 8921TIP3    H248179   1.803   1.114   5.256  4.2771  0.2013 -1.9284
 8922TIP3   OH248180   0.444   2.257   6.162 -0.1847  0.1673  0.1387
 8922TIP3    H148181   0.410   2.204   6.234 -0.0755 -0.0951 -0.0038
 8922TIP3    H248182   0.519   2.208   6.129 -1.5494 -0.8483 -1.6314
 8923TIP3   OH248183   0.657   6.771  10.791 -0.1976 -0.2096  0.3185
 8923TIP3    H148184   0.698   6.811  10.715 -1.6622 -0.5174 -0.6791
 8923TIP3    H248185   0.579   6.726  10.756 -2.4547  1.8475  2.2866
 8924TIP3   OH248186   5.815   5.052   2.554 -0.1551 -0.5683  0.5258
 8924TIP3    H148187   5.792   5.143   2.573 -0.1643 -0.6846  1.0762
 8924TIP3    H248188   5.867   5.058   2.474  1.7982  0.1802  1.7667
 8925TIP3   OH248189   1.144   1.387   1.712 -0.5679 -0.5741  0.4628
 8925TIP3    H148190   1.050   1.376   1.697 -0.7704  0.6338  0.7329
 8925TIP3    H248191   1.182   1.301   1.692 -1.5776 -0.7476 -0.8079
 8926TIP3   OH248192   2.076   4.532   2.795  0.0921  0.1733 -0.2860
 8926TIP3    H148193   2.053   4.478   2.719  0.7871 -0.0959 -0.3081
 8926TIP3    H248194   2.001   4.523   2.854  0.2825 -0.9745 -0.2035
 8927TIP3   OH248195   5.343   2.908   3.134  0.1443 -0.1986 -0.5936
 8927TIP3    H148196   5.353   2.821   3.173  1.7455  0.1405 -0.1547
 8927TIP3    H248197   5.427   2.952   3.152 -0.9726  1.7795  0.0524
 8928TIP3   OH248198   0.731   2.527   6.346 -0.2278  0.0313 -0.4089
 8928TIP3    H148199   0.740   2.434   6.368 -0.2060  0.5008  1.7229
 8928TIP3    H248200   0.805   2.545   6.288 -0.2080 -1.2572 -0.8103
 8929TIP3   OH248201   1.366   5.835  11.014 -0.6254  0.4298 -0.2980
 8929TIP3    H148202   1.390   5.873  11.099  0.8605  2.2997 -1.4739
 8929TIP3    H248203   1.449   5.825  10.968 -1.5495  1.6823 -2.3937
 8930TIP3   OH248204   0.168   3.132  16.344 -0.4104  0.1982  0.3633
 8930TIP3    H148205   0.118   3.213  16.350  1.3128  1.3201  0.3228
 8930TIP3    H248206   0.250   3.157  16.300  0.0671 -1.6108  0.1231
 8931TIP3   OH248207   4.791   2.064   5.919 -0.3776  0.7155  0.0387
 8931TIP3    H148208   4.757   2.117   5.990 -0.4623  1.1348 -0.3110
 8931TIP3    H248209   4.877   2.103   5.899  1.1484 -1.3506  2.0542
 8932TIP3   OH248210   5.680   2.706   5.696  0.3142  0.1227  0.6541
 8932TIP3    H148211   5.728   2.624   5.700 -0.7092 -0.4356  2.0141
 8932TIP3    H248212   5.596   2.683   5.656 -0.8459  0.0162  3.0063
 8933TIP3   OH248213   3.460   4.461  11.520  0.3595  0.0670 -0.1134
 8933TIP3    H148214   3.552   4.483  11.506 -0.0077  0.9791 -1.2859
 8933TIP3    H248215   3.461   4.372  11.554  1.6600 -0.0142 -0.3271
 8934TIP3   OH248216   2.697   0.128  15.053 -0.0105  0.4944  0.3459
 8934TIP3    H148217   2.677   0.098  15.142  1.3255 -0.1147  0.4514
 8934TIP3    H248218   2.636   0.201  15.039 -1.5601 -0.6159  1.0289
 8935TIP3   OH248219   1.744   1.026  15.092 -0.2023 -1.0113 -0.2655
 8935TIP3    H148220   1.746   1.098  15.155 -0.2281 -0.1042 -1.2662
 8935TIP3    H248221   1.668   0.974  15.118 -1.3535  0.4114 -0.6432
 8936TIP3   OH248222   3.020   4.660  10.757 -0.0988  0.0069  0.1740
 8936TIP3    H148223   3.094   4.702  10.713 -0.0612  1.2678  1.3681
 8936TIP3    H248224   2.945   4.679  10.701  0.2806 -0.2253 -0.4159
 8937TIP3   OH248225   2.238   0.749   3.025 -0.2946 -0.0692 -0.4036
 8937TIP3    H148226   2.327   0.751   3.060 -0.7357 -1.4628  0.8866
 8937TIP3    H248227   2.219   0.656   3.012 -2.7155 -0.1462  2.5457
 8938TIP3   OH248228   1.992   4.555  13.958 -0.5928  0.1984 -0.1465
 8938TIP3    H148229   1.944   4.636  13.946  0.3618  0.7774 -0.1684
 8938TIP3    H248230   1.940   4.489  13.912 -1.3420  0.8053 -0.1855
 8939TIP3   OH248231   2.833   3.450   4.889  0.1045 -0.3077 -0.5630
 8939TIP3    H148232   2.878   3.522   4.933  1.2743 -1.0528 -0.5105
 8939TIP3    H248233   2.796   3.490   4.811 -1.3741  0.8787  0.6634
 8940TIP3   OH248234   3.121   2.297   2.960  0.3302 -0.7203  0.1047
 8940TIP3    H148235   3.123   2.363   3.029 -0.0319 -0.4722 -0.1237
 8940TIP3    H248236   3.213   2.286   2.935  0.3944 -0.3410  0.1783
 8941TIP3   OH248237   1.627   6.052  12.974 -0.5104  0.7886 -0.1060
 8941TIP3    H148238   1.711   6.059  12.927 -0.9077 -1.3028 -1.2238
 8941TIP3    H248239   1.565   6.100  12.919 -0.5051  0.3309 -0.5172
 8942TIP3   OH248240   1.784   2.052   2.083  0.2570 -0.0911  0.4880
 8942TIP3    H148241   1.738   2.039   2.000  0.4718 -1.7584  0.5902
 8942TIP3    H248242   1.868   2.008   2.071 -0.0343 -1.0764  1.8490
 8943TIP3   OH248243   2.126   4.933  10.416 -0.1638 -0.0500  0.4974
 8943TIP3    H148244   2.176   4.979  10.348  0.5529  1.8734  2.2169
 8943TIP3    H248245   2.188   4.869  10.451 -0.5721 -1.1315 -0.6570
 8944TIP3   OH248246   0.913   6.307   5.959 -0.1890 -0.3249  0.0233
 8944TIP3    H148247   0.862   6.252   6.018  0.5611 -1.2832 -0.2021
 8944TIP3    H248248   0.848   6.343   5.898 -0.5047 -2.2613 -0.8388
 8945TIP3   OH248249   5.109   1.554  16.828 -0.0348 -0.2147  0.2317
 8945TIP3    H148250   5.095   1.491  16.898 -1.6098  0.5735  0.6898
 8945TIP3    H248251   5.172   1.616  16.863  1.6820 -1.5837 -0.2982
 8946TIP3   OH248252   0.187   5.338  15.884  0.5366  0.5369  0.1928
 8946TIP3    H148253   0.280   5.342  15.860  0.3190 -1.7308 -1.4330
 8946TIP3    H248254   0.146   5.405  15.830  0.9895  0.1354 -0.6764
 8947TIP3   OH248255   3.913   6.270  16.968  0.1312  0.1601 -0.7330
 8947TIP3    H148256   3.862   6.193  16.943  1.8083 -1.0557 -0.5876
 8947TIP3    H248257   3.964   6.241  17.043  0.5497  1.5317 -0.4665
 8948TIP3   OH248258   4.125   2.644  13.106  0.4113 -0.3886 -0.2841
 8948TIP3    H148259   4.103   2.722  13.157 -0.8001 -1.4320  0.8810
 8948TIP3    H248260   4.220   2.638  13.110  0.4676  0.6373  0.1969
 8949TIP3   OH248261   4.444   2.636   2.958 -0.1916 -0.1532 -0.1483
 8949TIP3    H148262   4.484   2.700   3.016 -0.6492  0.3504 -0.3689
 8949TIP3    H248263   4.423   2.686   2.878  1.7157 -1.1352 -1.3329
 8950TIP3   OH248264   1.356   4.065  15.783 -0.6608 -0.1994  0.1104
 8950TIP3    H148265   1.290   4.025  15.727 -1.8254  0.1215  1.2045
 8950TIP3    H248266   1.352   4.158  15.763 -1.5143 -0.0009  1.1259
 8951TIP3   OH248267   4.622   4.647  14.214  0.4278  0.3550  0.1048
 8951TIP3    H148268   4.706   4.655  14.170  0.8517  0.1128  0.8461
 8951TIP3    H248269   4.645   4.629  14.306 -0.4146  1.2829  0.5233
 8952TIP3   OH248270   3.156   1.030   2.809  0.1816 -0.0269 -0.1589
 8952TIP3    H148271   3.235   1.072   2.843 -0.5928 -0.0405  1.7701
 8952TIP3    H248272   3.180   0.937   2.800  0.9042  0.2518 -1.3256
 8953TIP3   OH248273   3.013   1.444   2.156 -0.5872  0.1294 -0.2041
 8953TIP3    H148274   2.936   1.483   2.195 -0.6672  0.9013 -1.1047
 8953TIP3    H248275   2.992   1.438   2.063 -0.4247 -1.7110 -0.1623
 8954TIP3   OH248276   3.772   1.674   1.847  0.2168  0.0470  0.4045
 8954TIP3    H148277   3.731   1.696   1.930 -0.6294 -1.6165  0.4729
 8954TIP3    H248278   3.846   1.618   1.870 -0.7837 -1.5019  0.0231
 8955TIP3   OH248279   1.575   5.766   5.136 -0.3573 -0.0526 -0.2007
 8955TIP3    H148280   1.606   5.713   5.062  1.0012  1.3074 -0.6566
 8955TIP3    H248281   1.481   5.776   5.119 -0.6499 -2.2008 -0.1291
 8956TIP3   OH248282   1.482   3.504  13.465  0.2810 -0.4428 -0.4712
 8956TIP3    H148283   1.571   3.539  13.474 -0.0102 -0.0529  1.2501
 8956TIP3    H248284   1.425   3.577  13.489 -0.4411 -1.1626  0.0401
 8957TIP3   OH248285   5.186   4.590   4.931  0.4865  0.2884  0.2829
 8957TIP3    H148286   5.215   4.662   4.986  1.9608  0.4286 -0.6385
 8957TIP3    H248287   5.209   4.511   4.981 -0.0480  0.4251  0.7583
 8958TIP3   OH248288   3.722   4.574  13.612  0.3501 -0.8757  0.2025
 8958TIP3    H148289   3.682   4.488  13.602  1.8020 -1.5287 -0.3806
 8958TIP3    H248290   3.816   4.558  13.601  0.7208  0.6779  0.7968
 8959TIP3   OH248291   5.959   0.698  14.766  0.1664 -0.2626  0.4483
 8959TIP3    H148292   5.905   0.715  14.844 -2.0541  2.1445 -1.4256
 8959TIP3    H248293   6.014   0.777  14.758 -0.9420  0.3840 -1.3380
 8960TIP3   OH248294   2.916   4.695   0.908 -0.1781  0.5323 -0.1999
 8960TIP3    H148295   2.856   4.679   0.981 -1.2391  1.0537 -0.9345
 8960TIP3    H248296   2.968   4.771   0.936 -0.3887  0.5603  0.1217
 8961TIP3   OH248297   5.297   1.931   3.461 -0.4185  0.2691  0.1917
 8961TIP3    H148298   5.380   1.966   3.492 -0.2919 -0.6561  0.9523
 8961TIP3    H248299   5.316   1.840   3.438 -1.0936  0.2093 -0.1658
 8962TIP3   OH248300   4.763   3.674   0.210  0.6837  0.0425 -0.3640
 8962TIP3    H148301   4.781   3.745   0.271 -2.5450 -0.6600  1.6389
 8962TIP3    H248302   4.845   3.625   0.205  1.4571  0.8873  2.4146
 8963TIP3   OH248303   0.736   4.733  10.256  0.4700  0.0236 -0.7156
 8963TIP3    H148304   0.755   4.720  10.349  1.5424  0.1626 -0.9003
 8963TIP3    H248305   0.653   4.781  10.254 -0.2424 -1.1100  0.1304
 8964TIP3   OH248306   4.077   3.979  16.484 -0.0911 -0.0131 -0.1424
 8964TIP3    H148307   4.172   3.991  16.483  0.2607 -2.2998  0.0429
 8964TIP3    H248308   4.057   3.944  16.570 -0.9361 -0.5805 -0.5458
 8965TIP3   OH248309   4.707   6.455   4.109  0.5181  0.3172 -0.2715
 8965TIP3    H148310   4.623   6.420   4.079  0.8910 -2.4743  1.6056
 8965TIP3    H248311   4.773   6.408   4.059  1.0002 -0.2521  0.8599
 8966TIP3   OH248312   4.928   1.056   1.172 -0.0942  0.4062 -0.4033
 8966TIP3    H148313   4.951   1.114   1.244  1.1718 -0.5525 -0.0018
 8966TIP3    H248314   4.974   0.974   1.191 -1.2776 -0.5052 -1.3121
 8967TIP3   OH248315   1.843   5.255   0.547 -0.5304 -0.2407 -0.1585
 8967TIP3    H148316   1.817   5.339   0.587  0.3442 -0.4296  0.8367
 8967TIP3    H248317   1.775   5.194   0.576 -0.5140 -0.1361  0.1047
 8968TIP3   OH248318   2.914   0.162   0.031 -0.3743  0.0550  0.6201
 8968TIP3    H148319   2.890   0.118  -0.050  0.2401  0.1080  0.4019
 8968TIP3    H248320   2.997   0.206   0.011 -0.5180  0.5620  1.0976
 8969TIP3   OH248321   4.875   2.952  11.890 -1.0983 -0.1949 -0.4855
 8969TIP3    H148322   4.876   3.033  11.940 -1.9913 -1.3569  1.5047
 8969TIP3    H248323   4.959   2.910  11.909 -1.2883 -0.4726 -0.2598
 8970TIP3   OH248324   3.698   5.548   4.086 -0.2658  0.4347  0.2120
 8970TIP3    H148325   3.747   5.514   4.011  0.0457 -1.6835  1.2977
 8970TIP3    H248326   3.762   5.597   4.137  0.2063 -0.4310  0.4685
 8971TIP3   OH248327   3.684   0.571  12.995 -0.3171  0.1300 -0.1996
 8971TIP3    H148328   3.618   0.502  12.999 -0.3526  0.1774  0.0197
 8971TIP3    H248329   3.680   0.614  13.080  1.4157 -1.1846  0.6058
 8972TIP3   OH248330   0.137   1.927   5.109  0.1312 -0.3152  0.0163
 8972TIP3    H148331   0.154   1.987   5.182 -0.1467 -0.5173  0.2462
 8972TIP3    H248332   0.146   1.839   5.147  0.0627 -0.4219 -0.2116
 8973TIP3   OH248333   6.591   3.797  16.444  0.0492  0.0610  0.8008
 8973TIP3    H148334   6.504   3.794  16.483 -0.4220 -3.1474 -0.1476
 8973TIP3    H248335   6.590   3.727  16.378  2.7845  1.1076 -0.5184
 8974TIP3   OH248336   0.930   1.584  12.696  0.9028  0.0454 -0.2988
 8974TIP3    H148337   0.965   1.629  12.620  1.1402 -0.1592 -0.3116
 8974TIP3    H248338   0.844   1.624  12.710  1.3669  0.9503  0.0794
 8975TIP3   OH248339   5.852   4.203   5.810  0.8947  0.1342  0.1764
 8975TIP3    H148340   5.872   4.155   5.890 -0.9757  1.4562  1.5063
 8975TIP3    H248341   5.907   4.282   5.815  0.3855  0.4735  0.4237
 8976TIP3   OH248342   1.148   0.660  12.836  0.1187  0.6446 -0.4419
 8976TIP3    H148343   1.067   0.615  12.860 -0.3876  0.8509 -1.7126
 8976TIP3    H248344   1.217   0.608  12.877 -0.3957 -1.6018 -2.2089
 8977TIP3   OH248345   6.324   2.592  15.403 -0.2586 -0.3580 -0.1350
 8977TIP3    H148346   6.304   2.615  15.494 -0.7596  1.3645 -0.6326
 8977TIP3    H248347   6.410   2.631  15.387 -0.2871 -0.4344 -0.4653
 8978TIP3   OH248348   5.175   1.113  13.247 -0.4477 -0.0969 -0.2645
 8978TIP3    H148349   5.143   1.199  13.218 -2.6692 -0.2064  1.5864
 8978TIP3    H248350   5.163   1.114  13.342  1.7407 -1.6122  0.1086
 8979TIP3   OH248351   6.583   3.298   1.868  0.0702  0.2768  0.9090
 8979TIP3    H148352   6.502   3.297   1.816 -0.3122  0.4331  1.4892
 8979TIP3    H248353   6.562   3.245   1.945  0.7827 -0.3397  0.6799
 8980TIP3   OH248354   1.964   5.947   5.339 -0.4336 -0.1809  0.1063
 8980TIP3    H148355   1.905   5.904   5.402 -3.0068 -1.6048 -2.9708
 8980TIP3    H248356   2.020   5.877   5.307  2.8865  1.0736  2.6319
 8981TIP3   OH248357   3.993   1.487  15.351 -0.0924 -0.5092 -0.8676
 8981TIP3    H148358   4.053   1.529  15.290 -1.2786  1.1190 -0.9730
 8981TIP3    H248359   3.976   1.554  15.417  0.2100 -1.8221  0.6048
 8982TIP3   OH248360   3.768   4.643  16.308  0.0077  0.3604 -0.1283
 8982TIP3    H148361   3.809   4.596  16.381 -1.6561 -0.6515  0.2246
 8982TIP3    H248362   3.824   4.624  16.233  1.2139  0.6161  0.6793
 8983TIP3   OH248363   6.618   3.439   2.604  0.0164  0.4268 -0.1229
 8983TIP3    H148364   6.670   3.364   2.630 -2.4451 -0.6859  2.0235
 8983TIP3    H248365   6.634   3.505   2.672  0.2852  0.9202 -0.6548
 8984TIP3   OH248366   6.667   2.374   0.776  0.3952  0.5535 -0.4935
 8984TIP3    H148367   6.581   2.410   0.757  0.1321  0.3555  0.2929
 8984TIP3    H248368   6.650   2.297   0.830  0.9760 -0.5299 -1.7881
 8985TIP3   OH248369   1.358   0.619  17.020  0.7797 -0.6115 -1.1587
 8985TIP3    H148370   1.313   0.612  16.936 -0.5425  1.5538 -0.6888
 8985TIP3    H248371   1.415   0.695  17.011  2.8739 -2.0515 -0.9976
 8986TIP3   OH248372   1.444   2.418  13.586 -0.0364  0.1425 -0.9438
 8986TIP3    H148373   1.425   2.326  13.570 -0.5554 -0.3615  1.9156
 8986TIP3    H248374   1.383   2.466  13.529 -1.3234 -1.3408 -0.8692
 8987TIP3   OH248375   0.636   5.946   0.047 -0.0176  0.1421 -0.2060
 8987TIP3    H148376   0.677   6.032   0.053 -0.2333  0.2925 -0.8359
 8987TIP3    H248377   0.615   5.936  -0.046 -0.0747 -0.5520 -0.1207
 8988TIP3   OH248378   3.143   4.608   4.951  0.1376 -0.1416  0.2545
 8988TIP3    H148379   3.176   4.695   4.932 -0.8460 -0.1015 -1.5065
 8988TIP3    H248380   3.072   4.621   5.014  1.4519  0.0473  1.7765
 8989TIP3   OH248381   0.515   3.612   0.515  0.1612  0.4108 -0.1691
 8989TIP3    H148382   0.493   3.520   0.502  2.8651 -0.5271  0.9686
 8989TIP3    H248383   0.443   3.648   0.567 -0.2165 -1.5023  0.7101
 8990TIP3   OH248384   2.731   3.602   5.393 -0.2800 -0.5889 -0.2831
 8990TIP3    H148385   2.672   3.541   5.349 -0.8571 -1.5407  1.6962
 8990TIP3    H248386   2.809   3.550   5.412  0.2235 -0.0097 -0.7394
 8991TIP3   OH248387   3.146   5.409   0.311 -0.5617  0.1059 -1.1771
 8991TIP3    H148388   3.090   5.381   0.239 -0.6736 -0.7381 -0.7654
 8991TIP3    H248389   3.112   5.495   0.335 -1.0985 -0.0044 -1.5285
 8992TIP3   OH248390   2.073   3.057   0.910  0.8163  0.8115 -0.0423
 8992TIP3    H148391   1.988   3.102   0.911  1.0794  1.3895 -1.2671
 8992TIP3    H248392   2.127   3.106   0.971  0.0113 -0.1581  1.5177
 8993TIP3   OH248393   1.331   4.926  13.953  0.1315 -0.7631 -0.4773
 8993TIP3    H148394   1.395   4.902  14.019  2.1278  1.7235 -1.3148
 8993TIP3    H248395   1.296   5.010  13.983 -0.8701 -0.8597 -1.3058
 8994TIP3   OH248396   0.023   6.605  12.378 -0.5944 -0.3337  0.4375
 8994TIP3    H148397   0.085   6.536  12.355  2.2753  2.5768 -1.4720
 8994TIP3    H248398  -0.021   6.627  12.296 -1.6225  0.0465  1.0594
 8995TIP3   OH248399   1.260   0.066  14.050  0.3606 -0.5789 -0.0525
 8995TIP3    H148400   1.164   0.074  14.056  0.4831  0.8764  0.3723
 8995TIP3    H248401   1.279   0.083  13.958  0.3418  1.2187  0.2374
 8996TIP3   OH248402   3.015   3.990   0.573  0.5480  0.4877  0.1261
 8996TIP3    H148403   3.078   3.991   0.645 -0.9996  2.4994  1.5742
 8996TIP3    H248404   2.973   4.076   0.577 -0.2535  0.3044 -2.6200
 8997TIP3   OH248405   1.067   0.324   0.778  0.0293  0.0189 -0.3177
 8997TIP3    H148406   1.022   0.408   0.765  0.4274  0.4730  1.1454
 8997TIP3    H248407   1.145   0.331   0.723 -0.8903 -0.1868 -1.7174
 8998TIP3   OH248408   4.812   3.122  16.281 -1.1679 -0.1338 -0.2809
 8998TIP3    H148409   4.873   3.068  16.331 -0.4654  0.6747 -0.2377
 8998TIP3    H248410   4.740   3.063  16.259 -1.5428 -0.5223  1.7368
 8999TIP3   OH248411   5.538   3.412  11.008 -0.0487  0.0410  0.3628
 8999TIP3    H148412   5.522   3.347  10.940 -0.6395 -0.2340  0.7606
 8999TIP3    H248413   5.585   3.482  10.963  0.3577 -0.5322 -0.1311
 9000TIP3   OH248414   1.296   5.560   4.228 -0.3452 -0.4870 -0.4778
 9000TIP3    H148415   1.364   5.607   4.179  0.5365 -1.2169  0.0245
 9000TIP3    H248416   1.276   5.483   4.174 -1.3676  0.1307 -1.0147
 9001TIP3   OH248417   1.083   1.950   3.219  0.2831  0.0619  0.3130
 9001TIP3    H148418   1.064   1.926   3.310  1.4993 -0.0073  0.5774
 9001TIP3    H248419   0.999   1.978   3.183 -0.0809  0.9038  1.7215
 9002TIP3   OH248420   5.985   6.595   1.441  0.1772 -0.7458  0.3736
 9002TIP3    H148421   5.910   6.538   1.429 -1.4861  1.3466  0.1895
 9002TIP3    H248422   6.020   6.608   1.353  0.5010 -1.3574  0.4048
 9003TIP3   OH248423   3.978   3.824   0.138  0.2944  0.4954 -0.0505
 9003TIP3    H148424   3.975   3.917   0.162 -1.4486  1.2055 -2.6700
 9003TIP3    H248425   3.904   3.785   0.185  1.0448  0.3674  1.0769
 9004TIP3   OH248426   2.667   1.983   0.886  0.3489  0.3193 -0.5167
 9004TIP3    H148427   2.693   1.899   0.850  0.6938 -0.1305  0.7359
 9004TIP3    H248428   2.589   2.008   0.836  0.0107 -0.9271 -0.6392
 9005TIP3   OH248429   5.208   6.161   3.509  0.6230 -0.6138 -0.0237
 9005TIP3    H148430   5.233   6.234   3.453  1.1449  0.0918  1.1129
 9005TIP3    H248431   5.112   6.163   3.510  0.6167  1.6014  1.9359
 9006TIP3   OH248432   6.543   3.820   1.892  0.0173 -0.2707 -0.0207
 9006TIP3    H148433   6.608   3.825   1.962 -0.6718 -1.3172  0.7221
 9006TIP3    H248434   6.472   3.877   1.921 -0.1982 -0.5793  0.0637
 9007TIP3   OH248435   1.087   3.510   0.249  0.3833 -0.4612  0.1079
 9007TIP3    H148436   1.129   3.596   0.248 -0.7923  0.1423  0.8005
 9007TIP3    H248437   1.046   3.502   0.163 -3.0079  1.5268  1.3190
 9008TIP3   OH248438   0.605   0.306   1.995 -0.2077  0.0347 -0.1412
 9008TIP3    H148439   0.586   0.345   1.909 -0.8839  0.2496  0.1018
 9008TIP3    H248440   0.627   0.380   2.051  2.6610 -0.2775 -0.7067
 9009TIP3   OH248441   1.709   3.293   5.219  0.0760  0.3330  0.5697
 9009TIP3    H148442   1.638   3.345   5.256 -2.2000 -1.0800 -1.4676
 9009TIP3    H248443   1.700   3.207   5.260  0.5488  0.1175  0.2359
 9010TIP3   OH248444   4.439   6.031  14.845 -0.1138 -0.0130  0.8413
 9010TIP3    H148445   4.369   5.966  14.840  0.8042 -1.0412  0.7644
 9010TIP3    H248446   4.404   6.108  14.801 -0.2790 -1.3636 -1.5809
 9011TIP3   OH248447   5.004   1.764  17.063  0.0672 -0.3597 -0.1943
 9011TIP3    H148448   5.001   1.841  17.120 -1.1467  0.8054 -1.7445
 9011TIP3    H248449   5.030   1.693  17.121 -0.3209  0.9026  1.6297
 9012TIP3   OH248450   4.357   6.742  12.076  0.3913 -0.0767  0.4576
 9012TIP3    H148451   4.429   6.771  12.132  0.1481  0.7145  0.3851
 9012TIP3    H248452   4.321   6.824  12.041  0.1663 -0.5279 -0.3791
 9013TIP3   OH248453   6.059   4.474   1.830 -0.2240  0.2795  0.4765
 9013TIP3    H148454   6.060   4.463   1.925 -0.6734 -2.6328  0.2186
 9013TIP3    H248455   6.151   4.476   1.804 -0.1098 -0.2421  0.8436
 9014TIP3   OH248456   6.720   0.582  15.089 -0.0355  0.4728 -0.0868
 9014TIP3    H148457   6.814   0.572  15.102 -0.0163  1.8984  1.1281
 9014TIP3    H248458   6.701   0.672  15.115 -1.6973  0.3221 -0.6127
 9015TIP3   OH248459   6.455   4.739  13.157 -0.1150  0.5330 -0.1169
 9015TIP3    H148460   6.425   4.827  13.176 -0.0133  0.4183  0.6153
 9015TIP3    H248461   6.480   4.741  13.065 -1.4648  0.8791 -0.4907
 9016TIP3   OH248462   1.542   2.513  12.460  0.0034  0.0983 -0.5330
 9016TIP3    H148463   1.619   2.525  12.515 -0.1997  3.0106 -0.6782
 9016TIP3    H248464   1.471   2.496  12.521 -0.0963  2.6418  0.1837
 9017TIP3   OH248465   0.804   2.540   0.863  0.1867  0.2703  0.2405
 9017TIP3    H148466   0.711   2.519   0.852  0.5879 -1.1006 -0.8752
 9017TIP3    H248467   0.844   2.513   0.780  1.4697  1.5264  0.4291
 9018TIP3   OH248468   2.016   2.096  14.307  0.1350  0.0721 -0.4937
 9018TIP3    H148469   2.064   2.026  14.263 -1.7312 -0.4574 -1.8369
 9018TIP3    H248470   2.014   2.071  14.399 -0.4167 -1.6334 -0.9409
 9019TIP3   OH248471   1.144   0.714   1.081  0.1195  0.2082 -0.3962
 9019TIP3    H148472   1.068   0.772   1.075 -0.7425 -0.7266  0.9040
 9019TIP3    H248473   1.150   0.691   1.173  0.7724 -1.3074 -0.7732
 9020TIP3   OH248474   3.365   0.574  12.357 -0.1721 -0.0205 -0.0318
 9020TIP3    H148475   3.384   0.552  12.265  2.0002 -0.2992  0.4145
 9020TIP3    H248476   3.400   0.500  12.407 -3.5494 -1.1055  1.0068
 9021TIP3   OH248477   4.461   1.935  11.776  0.0019  0.0091 -0.0274
 9021TIP3    H148478   4.555   1.919  11.782  0.5804  2.7967 -0.4259
 9021TIP3    H248479   4.442   1.996  11.848 -0.8451  1.9038 -1.7587
 9022TIP3   OH248480   2.165   1.000  10.960 -0.0242 -0.0213  0.0073
 9022TIP3    H148481   2.222   0.974  11.033 -1.0917 -0.0789  0.8600
 9022TIP3    H248482   2.090   1.042  11.003 -0.3890  0.4913 -1.1094
 9023TIP3   OH248483   1.464   0.418   1.029  0.2276  0.3368  0.2641
 9023TIP3    H148484   1.511   0.341   0.996  0.2226  0.5898 -0.3366
 9023TIP3    H248485   1.433   0.463   0.951  0.6491  1.2144  0.5854
 9024TIP3   OH248486   3.781   0.899  16.584  0.2559  0.5729  0.2355
 9024TIP3    H148487   3.760   0.981  16.628 -0.2274  1.2318 -1.1615
 9024TIP3    H248488   3.805   0.839  16.655 -0.4015  1.6056  1.3697
 9025TIP3   OH248489   2.078   3.902   3.310  0.0166  0.2061 -0.3432
 9025TIP3    H148490   2.005   3.841   3.298  0.8667 -0.6071 -1.6743
 9025TIP3    H248491   2.093   3.938   3.222  0.9069  0.7197  0.0103
 9026TIP3   OH248492   1.374   6.680  10.886  0.0675  0.2902 -0.1811
 9026TIP3    H148493   1.347   6.606  10.941  3.0911 -0.7328  0.0974
 9026TIP3    H248494   1.303   6.689  10.821 -0.8582 -2.1878  0.3796
 9027TIP3   OH248495   2.389   6.293   5.266  0.1905  0.6314 -0.0718
 9027TIP3    H148496   2.477   6.259   5.286  0.1138  1.2675  1.4917
 9027TIP3    H248497   2.336   6.215   5.252  0.5312  0.1571  1.1736
 9028TIP3   OH248498   1.759   6.612  16.138 -0.5966  0.6094  0.4029
 9028TIP3    H148499   1.807   6.621  16.220  0.6398  0.6325 -0.3123
 9028TIP3    H248500   1.825   6.593  16.072 -1.4279  1.5813 -0.7824
 9029TIP3   OH248501   1.894   0.022  14.363 -0.0828 -0.1679 -0.3571
 9029TIP3    H148502   1.950  -0.054  14.380 -0.3137 -0.2272  0.1836
 9029TIP3    H248503   1.849   0.036  14.446  0.6404  1.1303 -0.1608
 9030TIP3   OH248504   1.301   5.230   6.466 -0.5142  0.0456 -0.3963
 9030TIP3    H148505   1.287   5.154   6.409 -0.2082 -0.6312  0.4184
 9030TIP3    H248506   1.270   5.304   6.414 -1.8809 -0.7524 -0.7952
 9031TIP3   OH248507   5.146   5.785  16.706  0.2394 -0.2679  0.6141
 9031TIP3    H148508   5.159   5.698  16.671  0.9118 -0.3363  1.0282
 9031TIP3    H248509   5.199   5.842  16.651 -1.0258  0.0495 -0.3350
 9032TIP3   OH248510   0.130   1.442   2.805 -0.4231 -0.4951 -0.1259
 9032TIP3    H148511   0.092   1.494   2.734  2.1228 -0.0375 -1.2743
 9032TIP3    H248512   0.113   1.351   2.780  1.5791 -0.3980 -2.1228
 9033TIP3   OH248513   4.626   0.903  15.128  0.6281 -0.0010  0.0749
 9033TIP3    H148514   4.641   0.864  15.042  1.0041 -0.7419  0.4692
 9033TIP3    H248515   4.673   0.847  15.188 -0.2570  0.0793  0.8639
 9034TIP3   OH248516   2.310   3.207  12.386 -0.1387  1.1636  0.0311
 9034TIP3    H148517   2.368   3.134  12.367  0.2939  1.9964 -2.1897
 9034TIP3    H248518   2.369   3.282  12.399 -0.5220  1.0737  3.1049
 9035TIP3   OH248519   4.100   4.228   3.168  0.1931  0.7975  0.0830
 9035TIP3    H148520   4.044   4.268   3.102  0.1425  0.1847 -0.2483
 9035TIP3    H248521   4.112   4.297   3.234  2.2172  2.2561 -1.6962
 9036TIP3   OH248522   3.276   3.145  11.356 -0.1188 -0.2080 -0.4853
 9036TIP3    H148523   3.213   3.177  11.290  0.8531  0.0109 -1.3397
 9036TIP3    H248524   3.317   3.224  11.390  0.2523 -0.3920 -0.5039
 9037TIP3   OH248525   1.455   2.518   0.446  0.2028  0.0893  0.1102
 9037TIP3    H148526   1.445   2.613   0.453  0.7098  0.5077 -3.2461
 9037TIP3    H248527   1.550   2.503   0.448  0.2037 -0.1327 -0.9186
 9038TIP3   OH248528   4.366   0.324   3.859  0.5675 -1.1527 -0.3726
 9038TIP3    H148529   4.339   0.366   3.940  0.6525 -1.6919 -0.0574
 9038TIP3    H248530   4.305   0.356   3.793  1.7917  0.9799 -0.5664
 9039TIP3   OH248531   2.141   5.445   5.522 -0.6067  0.4206  0.3453
 9039TIP3    H148532   2.150   5.480   5.434 -2.0180 -0.7110 -0.3120
 9039TIP3    H248533   2.217   5.389   5.534 -1.6543 -1.4767 -1.2418
 9040TIP3   OH248534   4.307   1.819   1.544 -0.4762  1.0262  0.0588
 9040TIP3    H148535   4.335   1.858   1.627 -0.8941 -1.5479  1.5323
 9040TIP3    H248536   4.222   1.781   1.564 -0.0328 -0.7144 -1.1863
 9041TIP3   OH248537   6.795   2.882   5.066 -0.3108 -0.1235 -0.2427
 9041TIP3    H148538   6.714   2.882   5.014  0.4383  0.1629 -1.4370
 9041TIP3    H248539   6.796   2.968   5.108 -0.9434 -0.3729  0.3112
 9042TIP3   OH248540   4.103   3.005   3.423 -0.5172  0.0697 -0.2742
 9042TIP3    H148541   4.050   3.079   3.452  0.2091 -0.1258  1.6672
 9042TIP3    H248542   4.168   3.043   3.364  0.0529  1.0577  0.9580
 9043TIP3   OH248543   3.109   2.233   5.020  0.0657  0.3247  0.1951
 9043TIP3    H148544   3.119   2.245   5.114  0.0673 -0.2305  0.2690
 9043TIP3    H248545   3.149   2.148   5.002  0.4999  0.6408 -0.3840
 9044TIP3   OH248546   5.639   5.124   1.428  0.2645  0.2623 -0.0051
 9044TIP3    H148547   5.644   5.053   1.492 -2.4500 -0.6388 -0.6254
 9044TIP3    H248548   5.546   5.148   1.427  0.3679  0.8815 -2.9161
 9045TIP3   OH248549   3.274   3.228  15.821  0.2293  0.0353  0.6516
 9045TIP3    H148550   3.276   3.206  15.728  0.0629  0.0193  0.6516
 9045TIP3    H248551   3.212   3.166  15.859  0.4936 -0.1260  0.8180
 9046TIP3   OH248552   3.816   2.470  14.306  0.7830 -0.2460 -0.4114
 9046TIP3    H148553   3.789   2.556  14.339 -1.1323 -1.1083  0.3942
 9046TIP3    H248554   3.911   2.477  14.297  1.2158  0.7752  3.2768
 9047TIP3   OH248555   2.591   1.525  15.450 -0.5386  0.5525  0.5081
 9047TIP3    H148556   2.572   1.468  15.524  0.3216 -0.8619 -0.3222
 9047TIP3    H248557   2.661   1.582  15.480 -0.3330  0.1181  0.8538
 9048TIP3   OH248558   2.103   5.009   3.154 -0.4298 -0.2778  0.0739
 9048TIP3    H148559   2.067   4.972   3.074 -0.2485 -2.3079  0.8590
 9048TIP3    H248560   2.054   5.091   3.167 -2.2731 -1.1836 -0.7545
 9049TIP3   OH248561   0.049   4.620  12.798  0.1516  0.0305  0.3725
 9049TIP3    H148562   0.126   4.667  12.830  0.0292  0.4998 -0.0120
 9049TIP3    H248563   0.027   4.663  12.716 -1.4911  0.9591  1.2682
 9050TIP3   OH248564   4.271   3.733   1.417  0.9024  0.6336 -0.7548
 9050TIP3    H148565   4.269   3.646   1.457  0.5886 -0.2920 -2.6653
 9050TIP3    H248566   4.363   3.749   1.400  0.9258  0.4634 -0.7962
 9051TIP3   OH248567   1.689   2.258  12.703  0.2308 -0.3699  0.5117
 9051TIP3    H148568   1.615   2.236  12.645  0.4075 -0.5693  0.3584
 9051TIP3    H248569   1.655   2.243  12.791 -0.2342  0.5141  0.4992
 9052TIP3   OH248570   5.677   6.580  13.991  0.2160  0.4174  0.4828
 9052TIP3    H148571   5.766   6.593  13.958  0.9314  0.6901  2.3637
 9052TIP3    H248572   5.657   6.488  13.972  0.6500  0.5066 -0.4735
 9053TIP3   OH248573   5.993   1.471  16.586 -0.5831 -0.4009  0.0135
 9053TIP3    H148574   6.064   1.535  16.580 -1.6480  0.7176 -1.0698
 9053TIP3    H248575   6.015   1.406  16.518 -0.0844 -0.6096  0.3652
 9054TIP3   OH248576   4.527   4.104  12.044  0.0150 -0.2743  0.1721
 9054TIP3    H148577   4.524   4.199  12.060 -2.0104 -0.3182  0.2475
 9054TIP3    H248578   4.539   4.096  11.949 -3.0703  0.1467 -0.3410
 9055TIP3   OH248579   4.589   5.236   6.356  0.2124 -0.1274 -0.4532
 9055TIP3    H148580   4.508   5.190   6.334  0.3639 -0.3615 -0.5241
 9055TIP3    H248581   4.647   5.167   6.387  0.2387  0.1047  0.0101
 9056TIP3   OH248582   2.081   0.497  16.098 -0.2254 -0.1895 -0.4367
 9056TIP3    H148583   2.068   0.564  16.165 -0.6905 -0.3767 -0.3365
 9056TIP3    H248584   2.049   0.537  16.018  2.6540  1.0139 -1.1223
 9057TIP3   OH248585   2.395   1.414   4.129 -0.0074  0.1186 -0.4405
 9057TIP3    H148586   2.430   1.438   4.043  0.2507 -0.5609 -0.5279
 9057TIP3    H248587   2.383   1.319   4.124 -0.9696  0.2116 -0.0852
 9058TIP3   OH248588   1.301   1.034   3.380  0.2832 -0.1180 -0.3932
 9058TIP3    H148589   1.231   1.013   3.443 -0.7549  0.8749 -1.1648
 9058TIP3    H248590   1.324   1.124   3.401  0.9245 -0.2455 -0.5452
 9059TIP3   OH248591   6.066   6.726  16.945 -0.2315 -0.2123 -0.1042
 9059TIP3    H148592   6.002   6.783  16.902 -0.4293 -1.0690 -0.9741
 9059TIP3    H248593   6.051   6.639  16.907  2.6043 -0.1311 -1.6593
 9060TIP3   OH248594   6.444   2.605  12.246  0.0805  0.7034 -0.2832
 9060TIP3    H148595   6.393   2.558  12.312 -0.8834 -1.1117 -2.2016
 9060TIP3    H248596   6.518   2.548  12.227  0.0233  0.9138 -1.1731
 9061TIP3   OH248597   6.649   1.989   0.761  0.1853  0.4834  0.3261
 9061TIP3    H148598   6.562   1.953   0.775 -0.2323  0.6290 -1.6155
 9061TIP3    H248599   6.673   2.029   0.845 -1.3338 -0.1285  1.0705
 9062TIP3   OH248600   4.401   6.001  13.373 -0.0104  0.0662 -0.0333
 9062TIP3    H148601   4.389   6.088  13.410  0.8798 -0.1040  0.6878
 9062TIP3    H248602   4.486   5.972  13.406  0.0390 -0.7781 -0.8617
 9063TIP3   OH248603   0.471   6.299   3.594 -0.5912  0.3466 -0.2874
 9063TIP3    H148604   0.541   6.237   3.574  0.8218  1.7709  0.0450
 9063TIP3    H248605   0.492   6.331   3.682 -1.7449  0.7050 -0.1350
 9064TIP3   OH248606   4.941   5.703   4.081  0.3995  0.6051 -0.1713
 9064TIP3    H148607   4.872   5.691   4.145  0.5341 -0.1446 -0.1577
 9064TIP3    H248608   4.907   5.770   4.021 -0.7745 -0.4542 -0.7497
 9065TIP3   OH248609   5.498   5.542  13.829  0.0996  0.1618 -0.2261
 9065TIP3    H148610   5.435   5.475  13.801 -0.6321 -0.2979  2.3083
 9065TIP3    H248611   5.583   5.499  13.823 -0.1366 -0.2666 -0.6211
 9066TIP3   OH248612   0.097   2.098   3.502  0.1395  0.2472  0.1241
 9066TIP3    H148613   0.073   2.007   3.516 -0.4809  0.2382 -0.8839
 9066TIP3    H248614   0.110   2.106   3.407  1.6799  0.8596  0.3467
 9067TIP3   OH248615   3.747   4.362  16.487 -0.0833  0.1153 -0.0103
 9067TIP3    H148616   3.785   4.277  16.469 -0.9831 -0.1655 -0.6579
 9067TIP3    H248617   3.822   4.418  16.507  0.4133 -1.1642  1.9311
 9068TIP3   OH248618   0.308   4.144  12.280  0.7570  0.2001  0.0138
 9068TIP3    H148619   0.229   4.147  12.227  2.1424  1.6202 -2.1197
 9068TIP3    H248620   0.356   4.068  12.248  0.6963 -0.1225  0.6671
 9069TIP3   OH248621   0.404   5.943   4.129 -0.3814  0.6257 -0.4539
 9069TIP3    H148622   0.490   5.912   4.157 -0.8030  0.5491  0.8406
 9069TIP3    H248623   0.350   5.864   4.125 -1.4375  1.0394  2.7757
 9070TIP3   OH248624   0.327   2.693   2.742  0.4460  0.1189  0.0487
 9070TIP3    H148625   0.393   2.659   2.804  1.1618  1.4012  0.0176
 9070TIP3    H248626   0.299   2.615   2.693  1.0404 -0.6579  0.8967
 9071TIP3   OH248627   0.078   6.343   3.206 -0.0331 -0.4064  0.3115
 9071TIP3    H148628   0.078   6.403   3.281 -0.8726 -0.2888  0.2238
 9071TIP3    H248629   0.053   6.397   3.132  1.5991 -0.3352 -0.2345
 9072TIP3   OH248630   4.586   2.973  13.599  0.1823 -0.2807 -0.4006
 9072TIP3    H148631   4.678   2.948  13.596  0.1048 -1.1247  2.1320
 9072TIP3    H248632   4.540   2.900  13.559  0.5122 -0.6910 -0.0452
 9073TIP3   OH248633   5.631   1.203   2.846 -0.2117 -0.3276  0.1232
 9073TIP3    H148634   5.571   1.139   2.809  1.6685 -2.2085  0.1845
 9073TIP3    H248635   5.625   1.279   2.787 -0.8709 -1.3883 -1.2145
 9074TIP3   OH248636   4.259   2.507   1.734 -0.1108 -0.4979  0.1906
 9074TIP3    H148637   4.260   2.527   1.640  2.6374 -0.6127  0.1035
 9074TIP3    H248638   4.266   2.411   1.738 -0.7576 -0.5350  0.5345
 9075TIP3   OH248639   3.604   6.733   2.196 -0.4422  0.0995  0.0268
 9075TIP3    H148640   3.540   6.662   2.199 -2.7404  1.7476 -3.2340
 9075TIP3    H248641   3.647   6.723   2.112  0.5119  1.5134  0.3193
 9076TIP3   OH248642   6.248   2.175   2.620  0.2294  0.4032 -0.4891
 9076TIP3    H148643   6.236   2.242   2.688 -0.2097 -0.6078  0.4517
 9076TIP3    H248644   6.342   2.160   2.617  0.1751 -0.1834  0.5373
 9077TIP3   OH248645   0.558   6.070   5.017  0.0864 -0.8104 -0.5858
 9077TIP3    H148646   0.628   6.006   5.032  0.1750 -0.8733 -1.2301
 9077TIP3    H248647   0.579   6.143   5.075  1.0365 -0.5628 -1.2207
 9078TIP3   OH248648   6.122   0.777  11.437  0.3515 -0.2091  0.3839
 9078TIP3    H148649   6.040   0.730  11.453  0.6114 -0.7408  0.1819
 9078TIP3    H248650   6.164   0.782  11.522 -0.1897  0.6464  0.6110
 9079TIP3   OH248651   1.460   2.152   2.942  0.6859 -0.4066  0.6177
 9079TIP3    H148652   1.422   2.117   3.022 -1.4273  0.9703  0.2888
 9079TIP3    H248653   1.469   2.246   2.959 -2.5917  0.4748 -1.6818
 9080TIP3   OH248654   2.052   1.342   0.407  0.3997 -0.2396 -0.0789
 9080TIP3    H148655   2.046   1.260   0.359 -1.0225 -1.4944  2.0496
 9080TIP3    H248656   1.970   1.346   0.457  0.9743  1.8812  0.7838
 9081TIP3   OH248657   6.699   6.524  15.062 -0.8119 -0.9559  0.5634
 9081TIP3    H148658   6.660   6.470  15.131 -1.3915 -1.2612  0.0152
 9081TIP3    H248659   6.774   6.474  15.032 -0.6537 -0.8994  0.8589
 9082TIP3   OH248660   6.372   1.367  11.136  0.0462  0.3387  0.2196
 9082TIP3    H148661   6.399   1.346  11.225 -0.4690  0.2053  0.3486
 9082TIP3    H248662   6.429   1.439  11.110 -0.4331  1.0080  0.9990
 9083TIP3   OH248663   1.289   5.070   5.821 -0.0923  0.0908  0.2108
 9083TIP3    H148664   1.237   5.093   5.899 -0.0909 -0.0446  0.2527
 9083TIP3    H248665   1.378   5.096   5.843  0.0464 -0.6325  0.5562
 9084TIP3   OH248666   0.048   0.954   3.154  0.6674  0.1052 -0.8021
 9084TIP3    H148667   0.116   0.927   3.093  0.3422 -1.6022 -0.4774
 9084TIP3    H248668   0.003   0.872   3.177  1.1789  0.5521  2.1922
 9085TIP3   OH248669   3.341   3.074  11.046 -0.0723  0.2203  0.1065
 9085TIP3    H148670   3.250   3.102  11.056 -0.5875 -0.9695 -1.1236
 9085TIP3    H248671   3.352   3.005  11.112  0.0088  0.4798  0.3710
 9086TIP3   OH248672   1.770   2.292   2.241  0.2545  0.0074 -0.5091
 9086TIP3    H148673   1.700   2.357   2.238  1.2578  1.0627 -2.2598
 9086TIP3    H248674   1.748   2.230   2.171 -0.2955 -1.1892  0.6629
 9087TIP3   OH248675   0.353   0.982   2.187 -0.1362  0.6292  0.1724
 9087TIP3    H148676   0.353   1.047   2.117  0.0481 -1.4216 -1.8409
 9087TIP3    H248677   0.431   1.004   2.239 -0.8173  2.7804  0.3900
 9088TIP3   OH248678   2.237   0.449  14.326 -0.2701  0.5692  0.4384
 9088TIP3    H148679   2.287   0.382  14.373 -1.9971 -0.0103  1.5576
 9088TIP3    H248680   2.159   0.402  14.295 -0.3742  1.5431 -0.8303
 9089TIP3   OH248681   0.845   3.258   1.477 -0.0513 -0.1118 -0.8318
 9089TIP3    H148682   0.926   3.217   1.506 -0.4306 -0.4240 -0.2077
 9089TIP3    H248683   0.803   3.192   1.422 -0.5913 -0.5191  0.0536
 9090TIP3   OH248684   6.138   6.651  11.655  0.8494  0.1923 -0.0871
 9090TIP3    H148685   6.118   6.621  11.566  1.5282 -0.3068 -0.0807
 9090TIP3    H248686   6.233   6.643  11.662  0.9395  1.4143  0.2668
 9091TIP3   OH248687   5.977   3.770   3.801  0.1556  0.0543  0.5007
 9091TIP3    H148688   5.920   3.717   3.857  0.7185 -0.7484  0.3196
 9091TIP3    H248689   6.064   3.734   3.814  0.1538 -0.8921 -1.7369
 9092TIP3   OH248690   1.388   5.141  14.881 -0.0732 -0.1406  1.0358
 9092TIP3    H148691   1.451   5.082  14.839 -0.8375 -0.3785  0.1963
 9092TIP3    H248692   1.442   5.209  14.921  0.7310 -0.4346  0.4756
 9093TIP3   OH248693   2.854   6.557  15.768 -0.2972 -0.3791 -0.3052
 9093TIP3    H148694   2.877   6.468  15.793 -0.0175  0.0420  0.9868
 9093TIP3    H248695   2.935   6.592  15.729 -0.1012 -0.3722  0.1028
 9094TIP3   OH248696   5.062   4.928   0.315 -0.4400 -0.1179  0.3504
 9094TIP3    H148697   5.083   5.000   0.257 -1.4800  0.3772  0.5539
 9094TIP3    H248698   5.076   4.963   0.403 -0.3400 -0.3724  0.4377
 9095TIP3   OH248699   6.756   4.001   4.396  0.5756 -0.2585 -0.1039
 9095TIP3    H148700   6.728   3.910   4.390 -2.1781  0.2246  2.7248
 9095TIP3    H248701   6.744   4.024   4.488  2.4611  2.6326 -0.4430
 9096TIP3   OH248702   6.803   0.684   5.298 -0.1681 -0.6178 -0.3874
 9096TIP3    H148703   6.893   0.697   5.327 -0.1288 -0.8992 -0.3849
 9096TIP3    H248704   6.787   0.590   5.308 -0.4363 -0.5823 -0.4610
 9097TIP3   OH248705   3.978   5.817  12.955 -0.2719 -0.2504  0.2175
 9097TIP3    H148706   4.022   5.836  13.038  0.5673  0.5559 -0.3830
 9097TIP3    H248707   4.001   5.727  12.936 -0.6285 -0.5024  0.9504
 9098TIP3   OH248708   1.930   5.092   4.486 -0.6908  0.4334  0.6227
 9098TIP3    H148709   1.840   5.116   4.507 -0.8145 -1.2380  2.3960
 9098TIP3    H248710   1.972   5.174   4.462 -3.0194  1.0445 -1.8036
 9099TIP3   OH248711   1.267   5.204   2.798  0.3649  0.3431  0.3150
 9099TIP3    H148712   1.266   5.109   2.800 -1.6296  0.3169  0.3531
 9099TIP3    H248713   1.195   5.230   2.855 -0.2436  1.8074 -1.0437
 9100TIP3   OH248714   5.529   5.170   1.143 -0.6455  0.1821 -0.1067
 9100TIP3    H148715   5.441   5.198   1.169 -1.6219 -1.7763 -1.0771
 9100TIP3    H248716   5.530   5.182   1.048 -0.5696 -1.5711 -0.3465
 9101TIP3   OH248717   1.463   0.967  15.073 -0.1896  0.0837  0.3100
 9101TIP3    H148718   1.398   0.962  15.144  0.3330 -1.0665  0.7298
 9101TIP3    H248719   1.412   0.990  14.995 -0.6263  2.5467  1.2172
 9102TIP3   OH248720   3.841   4.421  15.355 -0.6142 -0.8023 -0.3577
 9102TIP3    H148721   3.850   4.447  15.264 -0.1596 -0.8223 -0.3168
 9102TIP3    H248722   3.894   4.341  15.363  0.8955  0.2348  0.3743
 9103TIP3   OH248723   0.159   2.121   3.241  0.1579  0.3285 -0.3814
 9103TIP3    H148724   0.102   2.115   3.165  0.1890  0.1698 -0.3941
 9103TIP3    H248725   0.247   2.132   3.204 -0.0335  2.1901 -0.3425
 9104TIP3   OH248726   6.458   1.953   3.992  0.5382 -0.1821  0.3190
 9104TIP3    H148727   6.380   1.978   4.042  0.3289 -1.1026  0.4798
 9104TIP3    H248728   6.487   2.033   3.950 -0.8510  0.0540 -0.2215
 9105TIP3   OH248729   5.390   6.175  11.502  0.0314  0.3093  0.0248
 9105TIP3    H148730   5.481   6.145  11.496  0.0651 -0.1060  1.8788
 9105TIP3    H248731   5.381   6.204  11.593 -1.9572 -0.6001  0.1736
 9106TIP3   OH248732   3.026   3.164   1.471  0.0501 -0.1264 -0.3213
 9106TIP3    H148733   3.034   3.242   1.526 -1.9073 -0.4139  0.4568
 9106TIP3    H248734   2.962   3.109   1.516 -0.5926 -0.9886 -2.1802
 9107TIP3   OH248735   3.980   5.221   4.096 -0.1184  0.1722  0.3670
 9107TIP3    H148736   4.063   5.251   4.058 -1.0136  0.3035 -1.6069
 9107TIP3    H248737   3.945   5.299   4.140  0.9463  0.0150  1.5564
 9108TIP3   OH248738   5.441   0.663   0.153 -0.5767 -0.2583 -0.7122
 9108TIP3    H148739   5.468   0.601   0.221 -0.2434  0.1925 -0.4328
 9108TIP3    H248740   5.489   0.635   0.075 -0.4299 -0.3512 -0.5899
 9109TIP3   OH248741   0.238   4.629   4.493 -0.4328  0.1853 -0.4872
 9109TIP3    H148742   0.192   4.545   4.491 -2.3426  1.1751 -2.1022
 9109TIP3    H248743   0.324   4.611   4.455 -0.5367 -1.1610 -0.1398
 9110TIP3   OH248744   1.666   5.115  11.938 -0.3755 -0.0348 -0.0133
 9110TIP3    H148745   1.614   5.066  12.002 -0.4628  0.6802  0.4679
 9110TIP3    H248746   1.601   5.168  11.891 -0.3146 -0.5642 -0.7146
 9111TIP3   OH248747   5.737   0.136   0.641  0.0431  0.3582 -0.2769
 9111TIP3    H148748   5.672   0.072   0.669  0.2395  0.8374  1.3213
 9111TIP3    H248749   5.817   0.084   0.629 -0.2510  0.0164 -0.8211
 9112TIP3   OH248750   3.515   2.733  11.429  0.2642  0.4518 -0.4705
 9112TIP3    H148751   3.517   2.828  11.424  0.5222  0.5408  0.8543
 9112TIP3    H248752   3.593   2.704  11.381  0.0225  0.8906 -1.1278
 9113TIP3   OH248753   5.806   5.019  15.262  0.5335  0.0004 -0.0582
 9113TIP3    H148754   5.738   5.069  15.217 -0.4060 -0.3910  0.8720
 9113TIP3    H248755   5.843   5.080  15.325  1.1929  0.2705 -0.6974
 9114TIP3   OH248756   1.093   6.471   0.640  0.0869 -0.4356  0.2302
 9114TIP3    H148757   1.058   6.461   0.552 -0.4789 -0.1214  0.4142
 9114TIP3    H248758   1.045   6.406   0.692 -0.4436  0.1926  0.5403
 9115TIP3   OH248759   2.547   2.416  11.819 -0.4690  0.5963  0.8307
 9115TIP3    H148760   2.482   2.347  11.833  0.2749 -0.0658  1.1768
 9115TIP3    H248761   2.629   2.376  11.849  0.4559  0.7136 -1.3467
 9116TIP3   OH248762   5.409   1.068  10.455  0.4694  0.1936 -0.2862
 9116TIP3    H148763   5.345   1.024  10.399  0.7701  0.8401 -1.1537
 9116TIP3    H248764   5.488   1.013  10.448  0.0147 -0.6281  0.8189
 9117TIP3   OH248765   3.463   5.481  10.148  0.1739 -0.1981  0.3954
 9117TIP3    H148766   3.530   5.474  10.217 -0.9620 -0.8880  1.4610
 9117TIP3    H248767   3.380   5.484  10.195 -0.5188  2.1442 -0.8332
 9118TIP3   OH248768   5.053   4.198  16.849  0.0643 -0.1468 -0.1425
 9118TIP3    H148769   5.076   4.129  16.911  1.8220  1.1101  0.6813
 9118TIP3    H248770   4.978   4.242  16.888  0.3941 -0.1395  0.4927
 9119TIP3   OH248771   1.906   6.506  13.764  0.4683 -0.0789  0.1478
 9119TIP3    H148772   2.000   6.484  13.762  0.4454 -0.2260  0.5615
 9119TIP3    H248773   1.871   6.466  13.685  0.8503  0.4281 -0.2902
 9120TIP3   OH248774   0.829   1.022   5.478  0.2600  0.1971 -0.1521
 9120TIP3    H148775   0.779   0.971   5.542  1.2111 -0.6196 -0.0319
 9120TIP3    H248776   0.861   1.097   5.527 -2.0869  1.5978 -0.5958
 9121TIP3   OH248777   6.492   4.744  16.337  0.7247 -0.5882  0.0935
 9121TIP3    H148778   6.443   4.799  16.399 -0.7758 -0.5499 -1.0554
 9121TIP3    H248779   6.487   4.656  16.375 -1.7256 -0.8940 -0.7670
 9122TIP3   OH248780   5.446   1.383   3.024  0.4626 -0.0200  0.2456
 9122TIP3    H148781   5.379   1.351   3.084  1.3849 -2.3892  0.1111
 9122TIP3    H248782   5.528   1.346   3.056  1.5357  1.6393 -0.4238
 9123TIP3   OH248783   0.281   4.373   2.419 -0.2524 -0.4989  0.6692
 9123TIP3    H148784   0.370   4.370   2.454  0.7031  2.7492 -1.1078
 9123TIP3    H248785   0.290   4.342   2.329  0.2512  4.1667 -1.1504
 9124TIP3   OH248786   1.042   0.696   0.049 -0.6591  0.2910  0.3368
 9124TIP3    H148787   1.118   0.737   0.091  0.1281 -1.0372  0.2591
 9124TIP3    H248788   0.994   0.656   0.122 -1.1347  0.8917  0.3539
 9125TIP3   OH248789   4.882   6.775  15.513 -0.7569 -0.1427  0.1157
 9125TIP3    H148790   4.973   6.773  15.542  0.2679  0.3813 -2.7071
 9125TIP3    H248791   4.847   6.689  15.538  1.1884 -1.2085 -0.5952
 9126TIP3   OH248792   4.130   0.232  16.329 -0.1308 -0.2214 -0.4442
 9126TIP3    H148793   4.172   0.146  16.338 -0.1035 -0.3287 -1.4647
 9126TIP3    H248794   4.036   0.213  16.330 -0.1235 -0.3283 -1.1301
 9127TIP3   OH248795   3.499   3.839   4.351 -0.4633 -0.2420 -0.4796
 9127TIP3    H148796   3.526   3.898   4.421 -2.0115 -1.6817  1.4556
 9127TIP3    H248797   3.525   3.883   4.270  0.1494  2.1481  0.9343
 9128TIP3   OH248798   4.063   1.289  15.700  0.2823 -0.3789 -0.3227
 9128TIP3    H148799   4.038   1.381  15.684 -0.1251 -0.4380 -0.0461
 9128TIP3    H248800   4.155   1.284  15.673 -0.3473 -0.4818 -2.7058
 9129TIP3   OH248801   2.204   6.429  13.786  0.2329  0.3468  0.0854
 9129TIP3    H148802   2.261   6.389  13.720 -0.1160  0.4009 -0.2493
 9129TIP3    H248803   2.198   6.521  13.760  0.9570  0.6140  0.7991
 9130TIP3   OH248804   5.086   1.629   6.510  0.6880 -0.4017  0.6577
 9130TIP3    H148805   5.144   1.640   6.585  0.8129 -0.5684  0.5849
 9130TIP3    H248806   5.114   1.547   6.470  0.4799 -0.4228  0.5545
 9131TIP3   OH248807   5.405   5.770  13.666 -0.9046 -0.3071 -0.1341
 9131TIP3    H148808   5.490   5.806  13.689 -1.0723  0.9542 -1.4107
 9131TIP3    H248809   5.398   5.690  13.719  1.7112 -1.2813 -1.0955
 9132TIP3   OH248810   3.339   2.796  13.984 -0.3547  0.0761  0.5788
 9132TIP3    H148811   3.331   2.890  13.968 -0.0795  0.9230  4.4110
 9132TIP3    H248812   3.249   2.766  13.995 -0.3866  0.8483  3.1956
 9133TIP3   OH248813   0.445   3.919  12.176  0.2692 -0.5500 -0.4928
 9133TIP3    H148814   0.473   3.849  12.234  0.1991 -0.1140  0.0729
 9133TIP3    H248815   0.482   3.896  12.091  0.3510 -1.2056 -0.2856
 9134TIP3   OH248816   0.300   1.746   1.886  0.0459  0.5380  0.8294
 9134TIP3    H148817   0.229   1.726   1.948 -1.7974  1.5771 -0.8234
 9134TIP3    H248818   0.345   1.663   1.873 -2.6263 -0.8905 -0.1307
 9135TIP3   OH248819   3.091   0.572   4.085  0.6177 -0.0215  0.0272
 9135TIP3    H148820   3.072   0.543   4.174 -0.0741 -0.7212 -0.3353
 9135TIP3    H248821   3.183   0.600   4.088  0.1893  1.3835  1.3070
 9136TIP3   OH248822   4.025   5.776   3.557 -0.4426 -0.1928 -0.6276
 9136TIP3    H148823   4.012   5.780   3.462 -0.0985 -0.5675 -0.6975
 9136TIP3    H248824   4.068   5.692   3.571  0.0112  0.1045 -0.1990
 9137TIP3   OH248825   4.434   3.373  15.472  0.1345 -0.1559  0.2461
 9137TIP3    H148826   4.401   3.284  15.458  0.7417  0.0221 -3.2397
 9137TIP3    H248827   4.488   3.390  15.395 -0.3059  3.4196  0.6005
 9138TIP3   OH248828   0.520   5.346  13.637  0.5422  0.0604 -0.3096
 9138TIP3    H148829   0.466   5.316  13.563  0.1682  0.4590 -0.2045
 9138TIP3    H248830   0.499   5.439  13.646  0.9855  0.1380 -0.0383
 9139TIP3   OH248831   1.161   2.338   1.336  0.3296  0.2789 -0.1533
 9139TIP3    H148832   1.110   2.276   1.389 -0.4166  1.0994  0.1052
 9139TIP3    H248833   1.184   2.287   1.258 -0.9594 -0.1092 -0.3144
 9140TIP3   OH248834   0.238   6.484  15.749 -0.1475 -0.0065 -0.4542
 9140TIP3    H148835   0.332   6.471  15.733  0.3566  0.5926  1.7393
 9140TIP3    H248836   0.198   6.400  15.728  0.7129  0.0097 -2.3604
 9141TIP3   OH248837   2.856   2.896   0.617  0.3296  0.2065  0.7718
 9141TIP3    H148838   2.824   2.976   0.659 -1.5976 -0.3560  0.4582
 9141TIP3    H248839   2.907   2.926   0.542 -0.5158  1.1486  0.5631
 9142TIP3   OH248840   1.131   4.768   0.714  0.1374 -0.1482 -0.4829
 9142TIP3    H148841   1.039   4.779   0.738  0.0328 -1.3620 -0.2889
 9142TIP3    H248842   1.138   4.808   0.627 -0.3181  0.9094 -0.0593
 9143TIP3   OH248843   1.904   2.219   5.518  0.0740 -0.7457 -0.4923
 9143TIP3    H148844   1.952   2.301   5.510 -0.5453 -0.3128  0.0696
 9143TIP3    H248845   1.972   2.151   5.522  0.5766 -0.3105 -1.4155
 9144TIP3   OH248846   4.681   2.331   1.808  0.4092  0.0723 -0.1250
 9144TIP3    H148847   4.711   2.249   1.847 -0.8403  0.6895  2.3984
 9144TIP3    H248848   4.594   2.311   1.774  1.3027 -0.3366 -2.3354
 9145TIP3   OH248849   6.702   5.486   0.557 -0.4692 -0.4818 -0.7075
 9145TIP3    H148850   6.744   5.400   0.551 -0.3282 -0.3299 -2.1393
 9145TIP3    H248851   6.651   5.493   0.477  1.0325  1.5495 -1.5547
 9146TIP3   OH248852   1.996   3.308  15.642 -0.4830  0.3791  0.3698
 9146TIP3    H148853   1.937   3.383  15.649 -1.4282 -0.2604 -0.4764
 9146TIP3    H248854   1.998   3.271  15.730 -1.2595  0.4828  0.4388
 9147TIP3   OH248855   5.261   3.677  16.329  0.2430  0.0412  0.1249
 9147TIP3    H148856   5.189   3.734  16.301 -0.0757 -0.6665 -0.5143
 9147TIP3    H248857   5.242   3.659  16.421  0.7030  1.4872  0.5359
 9148TIP3   OH248858   3.114   4.269   0.870  1.1011  0.1765  0.2547
 9148TIP3    H148859   3.167   4.274   0.789  0.9055  1.4438  0.1782
 9148TIP3    H248860   3.037   4.323   0.851  0.6443 -0.2069  1.0002
 9149TIP3   OH248861   0.387   0.486  12.350  0.1296  0.1280 -0.4216
 9149TIP3    H148862   0.365   0.538  12.428 -1.0526 -1.8221  0.6168
 9149TIP3    H248863   0.376   0.395  12.378  1.1424 -0.6782 -2.4678
 9150TIP3   OH248864   3.668   3.922  14.517  0.2187  0.5173 -0.0003
 9150TIP3    H148865   3.720   3.931  14.597  1.8423  0.7115 -1.0408
 9150TIP3    H248866   3.668   3.828  14.499  0.1937  0.5146  0.0144
 9151TIP3   OH248867   0.531   2.433   4.687  0.2373 -0.0980  0.0464
 9151TIP3    H148868   0.465   2.461   4.749 -0.0155  1.9073 -1.0519
 9151TIP3    H248869   0.505   2.344   4.662 -2.1399  0.7035 -0.4863
 9152TIP3   OH248870   0.628   2.249  12.692  0.8998  0.1002 -0.5097
 9152TIP3    H148871   0.669   2.302  12.623  0.8673  2.4366  1.1373
 9152TIP3    H248872   0.701   2.214  12.742  0.9490 -2.2866 -2.0998
 9153TIP3   OH248873   6.317   4.255  15.159  0.3691 -0.0851  0.4277
 9153TIP3    H148874   6.270   4.325  15.204  0.4765 -1.5439  2.9730
 9153TIP3    H248875   6.251   4.187  15.145  0.5274  0.0164 -0.9920
 9154TIP3   OH248876   6.301   0.438   4.020 -0.2354  0.0301  0.1737
 9154TIP3    H148877   6.354   0.484   4.084  2.7867 -1.5644 -0.9655
 9154TIP3    H248878   6.274   0.357   4.064  1.7534 -1.0170 -0.3911
 9155TIP3   OH248879   6.146   5.632  16.064  0.4812 -0.0746  0.5456
 9155TIP3    H148880   6.159   5.561  16.127 -0.5257  0.7661  1.7523
 9155TIP3    H248881   6.229   5.638  16.017  0.6176 -1.9876  0.4534
 9156TIP3   OH248882   4.512   6.156  12.243  0.5020 -0.7802  0.3853
 9156TIP3    H148883   4.429   6.178  12.201  1.2060 -0.5423 -0.9184
 9156TIP3    H248884   4.549   6.240  12.270 -0.0038 -0.9372  1.6622
 9157TIP3   OH248885   5.020   5.229   1.696 -0.1771  0.0097 -0.7486
 9157TIP3    H148886   4.951   5.221   1.630  1.8510 -0.5785 -2.9242
 9157TIP3    H248887   5.101   5.212   1.648  1.5277  0.8421  1.6625
 9158TIP3   OH248888   5.118   6.712  16.047 -0.4875  0.4624 -0.6755
 9158TIP3    H148889   5.095   6.745  16.134 -0.4226  1.2825 -0.9654
 9158TIP3    H248890   5.037   6.719  15.997 -0.6576 -0.4828 -0.5478
 9159TIP3   OH248891   4.741   6.713   4.245 -0.2203  0.5044  0.2004
 9159TIP3    H148892   4.731   6.659   4.167  2.0786  0.0004  0.1774
 9159TIP3    H248893   4.777   6.796   4.213  3.7098 -0.7494  0.8393
 9160TIP3   OH248894   3.558   6.187   0.200  0.1274  0.5075 -0.0112
 9160TIP3    H148895   3.601   6.257   0.151 -0.0003  0.8540  0.3675
 9160TIP3    H248896   3.621   6.115   0.199 -0.6583 -0.2600 -2.4471
 9161TIP3   OH248897   0.697   0.457  12.760 -0.3371 -0.3623  0.0632
 9161TIP3    H148898   0.681   0.457  12.666 -2.6040  3.4627  0.2246
 9161TIP3    H248899   0.627   0.402  12.796 -1.9907  1.3238 -0.3833
 9162TIP3   OH248900   5.641   6.652   5.178 -0.7434 -0.1713  0.7034
 9162TIP3    H148901   5.592   6.671   5.098 -0.7697  0.9046  0.9583
 9162TIP3    H248902   5.634   6.557   5.189  0.1023 -0.4750 -1.1006
 9163TIP3   OH248903   3.176   1.296   2.291 -0.5047 -0.1831  0.1524
 9163TIP3    H148904   3.109   1.358   2.263  0.0547  0.7368  0.7715
 9163TIP3    H248905   3.188   1.237   2.217 -0.9616  0.5321 -0.4980
 9164TIP3   OH248906   0.609   0.218   3.822 -0.0329  0.5890 -0.4942
 9164TIP3    H148907   0.655   0.173   3.751 -0.6349 -0.2139 -0.3948
 9164TIP3    H248908   0.645   0.180   3.902 -0.5477  0.2695 -0.4084
 9165TIP3   OH248909   0.082   5.943   4.009 -0.3150 -0.2412 -0.0151
 9165TIP3    H148910   0.026   5.941   3.932  0.3153 -0.2385 -0.4790
 9165TIP3    H248911   0.066   6.028   4.048  0.0774  0.1488 -0.6874
 9166TIP3   OH248912   3.751   1.330   4.459 -0.1351 -0.5975 -0.1680
 9166TIP3    H148913   3.704   1.411   4.439  0.5854 -0.2766 -0.5978
 9166TIP3    H248914   3.833   1.359   4.499  0.3979 -1.0778 -0.8745
 9167TIP3   OH248915   0.060   6.362   1.034  0.2815  0.9506 -0.1702
 9167TIP3    H148916   0.037   6.326   1.120  2.3325  0.8496  0.3888
 9167TIP3    H248917   0.127   6.303   1.000  2.0870  2.9247 -0.2362
 9168TIP3   OH248918   1.218   5.946   2.818  0.1964  0.5762  0.1359
 9168TIP3    H148919   1.296   5.892   2.807  0.3309  0.6633  0.6081
 9168TIP3    H248920   1.170   5.937   2.736  0.8645  0.7764 -0.2859
 9169TIP3   OH248921   4.887   0.345  16.344 -0.0256 -0.8722  0.3349
 9169TIP3    H148922   4.818   0.363  16.280  0.2239 -0.9611  0.0334
 9169TIP3    H248923   4.849   0.367  16.429 -0.8338 -2.0235  0.3017
 9170TIP3   OH248924   5.981   1.632   6.190  0.3550 -0.2068  0.1220
 9170TIP3    H148925   5.971   1.587   6.106 -0.4451 -1.4960  0.8763
 9170TIP3    H248926   6.070   1.612   6.218  1.2105  1.5680 -1.1291
 9171TIP3   OH248927   5.587   0.538  17.038  0.3762  0.4345 -0.1423
 9171TIP3    H148928   5.608   0.457  16.992  1.3997  0.4900  0.2004
 9171TIP3    H248929   5.577   0.603  16.968  0.2252  0.1528 -0.3806
 9172TIP3   OH248930   2.163   6.719  15.011  0.4214  0.3056 -0.1601
 9172TIP3    H148931   2.099   6.786  14.987  0.6062  0.6186  0.1979
 9172TIP3    H248932   2.140   6.643  14.958 -1.6995 -0.3968  1.6412
 9173TIP3   OH248933   2.105   4.805   4.805 -0.2647 -0.4090  0.4606
 9173TIP3    H148934   2.183   4.759   4.837 -0.0070 -0.5904 -0.3904
 9173TIP3    H248935   2.130   4.897   4.808  0.0161 -0.4691  0.1358
 9174TIP3   OH248936   3.640   0.176   2.978  0.2952  0.1605  0.2308
 9174TIP3    H148937   3.670   0.266   2.995  0.1894  0.2139  0.1347
 9174TIP3    H248938   3.560   0.167   3.029  0.2605  0.1473  0.1735
 9175TIP3   OH248939   4.116   4.463  12.897 -0.1370 -0.4163  0.2463
 9175TIP3    H148940   4.091   4.539  12.844  0.5078 -0.2998  0.1056
 9175TIP3    H248941   4.202   4.485  12.931  0.9363 -1.8743 -1.3813
 9176TIP3   OH248942   1.570   6.436  13.333 -0.5663  0.5591 -0.4995
 9176TIP3    H148943   1.556   6.353  13.286  1.2686  0.1375 -0.3793
 9176TIP3    H248944   1.568   6.503  13.265 -3.1259  0.6209 -0.4820
 9177TIP3   OH248945   5.123   3.670  16.029  0.1036  0.7773  0.1615
 9177TIP3    H148946   5.102   3.762  16.046 -1.7664  0.3768  0.2566
 9177TIP3    H248947   5.149   3.668  15.937 -0.2072  1.3593  0.0548
 9178TIP3   OH248948   4.425   3.272  11.681  0.1950  0.5165 -0.3070
 9178TIP3    H148949   4.514   3.245  11.657  0.0971  1.7680 -2.2561
 9178TIP3    H248950   4.373   3.192  11.673  0.8869  0.0692 -0.5033
 9179TIP3   OH248951   1.166   2.286  15.221  0.7444 -0.0510  0.1807
 9179TIP3    H148952   1.193   2.257  15.309  1.6407  0.0278 -0.0619
 9179TIP3    H248953   1.173   2.207  15.167 -0.2911 -0.2190  0.2785
 9180TIP3   OH248954   3.863   2.120   2.592 -0.0755  0.6207 -0.0175
 9180TIP3    H148955   3.809   2.047   2.562  0.0523 -0.6542  2.5478
 9180TIP3    H248956   3.941   2.078   2.630  2.1005  2.3327 -2.2273
 9181TIP3   OH248957   3.883   4.817  12.187  0.3639 -0.2475  0.3318
 9181TIP3    H148958   3.793   4.849  12.189 -0.0795 -1.1957 -1.7241
 9181TIP3    H248959   3.877   4.726  12.219  0.2923 -0.8355 -1.2745
 9182TIP3   OH248960   5.903   5.807  14.688 -0.0617 -0.0531  0.1131
 9182TIP3    H148961   5.992   5.773  14.690  0.3766  0.9102 -1.4637
 9182TIP3    H248962   5.886   5.825  14.596 -1.0902  1.8531  0.6259
 9183TIP3   OH248963   3.778   4.553   1.952  0.3020 -0.4755 -0.5403
 9183TIP3    H148964   3.858   4.542   1.900  1.9850 -1.0273  1.9707
 9183TIP3    H248965   3.717   4.490   1.914  1.2015 -0.3765 -2.2531
 9184TIP3   OH248966   6.288   4.912  12.273 -0.2943  0.1465  0.0503
 9184TIP3    H148967   6.334   4.835  12.307 -0.1327  0.4652  0.5624
 9184TIP3    H248968   6.296   4.905  12.178 -1.1012 -0.9715  0.0476
 9185TIP3   OH248969   6.315   1.156  13.301  0.3397 -0.4277 -0.2605
 9185TIP3    H148970   6.228   1.143  13.336 -0.1658  0.4884 -1.1168
 9185TIP3    H248971   6.338   1.246  13.325  1.4624 -0.9652  0.7929
 9186TIP3   OH248972   3.848   2.638   4.212 -0.2292 -0.3452  0.3960
 9186TIP3    H148973   3.894   2.722   4.215 -0.0769 -0.2172 -2.2985
 9186TIP3    H248974   3.910   2.575   4.247  0.5520  0.3616  0.3253
 9187TIP3   OH248975   3.078   4.534  13.247 -0.8467 -0.4518  0.2465
 9187TIP3    H148976   3.034   4.469  13.301  1.2627 -0.4932  2.0766
 9187TIP3    H248977   3.038   4.618  13.272 -0.2583 -0.5332  1.5674
 9188TIP3   OH248978   2.663   0.039  14.213 -0.1867  0.4996  0.3715
 9188TIP3    H148979   2.581   0.013  14.171  0.9755 -1.1475 -1.0167
 9188TIP3    H248980   2.648   0.023  14.306 -1.4554  0.2889  0.1511
 9189TIP3   OH248981   3.265   6.623   3.245 -0.4288  0.3610 -0.1023
 9189TIP3    H148982   3.195   6.582   3.297 -0.7565  0.1926 -0.6676
 9189TIP3    H248983   3.295   6.696   3.299 -2.4515  1.7150 -0.7358
 9190TIP3   OH248984   2.038   1.314  15.992  0.0344 -0.2769 -0.1633
 9190TIP3    H148985   2.120   1.319  16.041 -0.2229 -0.7487  0.3212
 9190TIP3    H248986   2.008   1.404  15.986  1.0881  0.0323 -1.2108
 9191TIP3   OH248987   2.088   4.611  16.562  0.0011 -0.4547  0.3731
 9191TIP3    H148988   2.167   4.572  16.525 -1.4915 -2.1073 -1.2125
 9191TIP3    H248989   2.039   4.537  16.598 -0.3370  0.6816  2.4139
 9192TIP3   OH248990   3.375   2.959   4.795 -0.0954 -0.5107  0.4845
 9192TIP3    H148991   3.320   2.922   4.864  0.9355  0.4106  1.8680
 9192TIP3    H248992   3.443   2.893   4.781  0.8504  0.1177  1.8425
 9193TIP3   OH248993   0.679   4.156   0.298 -0.0774  0.8406  0.0775
 9193TIP3    H148994   0.769   4.174   0.272 -0.1213  0.3047 -0.4636
 9193TIP3    H248995   0.686   4.116   0.385  0.3753 -1.0930 -0.7875
 9194TIP3   OH248996   4.506   0.967   6.202 -0.2588 -0.1300  0.3201
 9194TIP3    H148997   4.433   0.926   6.155  2.1145 -1.8452 -2.2005
 9194TIP3    H248998   4.523   1.047   6.153  0.8004 -0.7909 -0.4390
 9195TIP3   OH248999   0.170   2.519  12.763  0.0948  0.0679  0.4759
 9195TIP3    H149000   0.240   2.566  12.809 -0.2386  0.8235  0.2319
 9195TIP3    H249001   0.116   2.483  12.832 -0.2037  0.8953  0.6925
 9196TIP3   OH249002   0.058   5.206   1.679  0.3983  0.2538 -0.6778
 9196TIP3    H149003   0.054   5.188   1.773  1.4811 -0.4882 -0.7602
 9196TIP3    H249004  -0.034   5.206   1.651 -0.1033  2.4562  0.7013
 9197TIP3   OH249005   1.547   2.837  16.799 -0.5985 -0.4784 -0.1589
 9197TIP3    H149006   1.562   2.906  16.863 -0.9275 -0.9338  0.4097
 9197TIP3    H249007   1.484   2.778  16.840  1.5871 -2.5367  0.4519
 9198TIP3   OH249008   2.999   0.527  13.464  0.1257  0.1017  0.4012
 9198TIP3    H149009   3.044   0.558  13.385  0.4953 -1.5668 -0.0694
 9198TIP3    H249010   3.069   0.503  13.524 -0.1533  1.3092  1.2598
 9199TIP3   OH249011   0.911   0.702   5.747  0.1575 -0.6309  0.5750
 9199TIP3    H149012   0.819   0.722   5.764  0.5921  1.1392  1.1144
 9199TIP3    H249013   0.951   0.699   5.834  0.7406 -0.6430  0.3109
 9200TIP3   OH249014   0.613   4.498   0.994  0.0658 -0.1323 -0.0288
 9200TIP3    H149015   0.540   4.551   0.961  0.8546 -0.5070 -2.5785
 9200TIP3    H249016   0.676   4.562   1.026  0.0307  0.3722 -0.9456
 9201TIP3   OH249017   0.287   3.524  12.928  0.1273 -0.6664  0.5594
 9201TIP3    H149018   0.320   3.569  12.850 -0.8688  0.0354  0.5127
 9201TIP3    H249019   0.288   3.592  12.996 -0.7753 -0.7473  0.6616
 9202TIP3   OH249020   4.935   3.003   3.884  0.4629  0.4976 -0.2481
 9202TIP3    H149021   4.918   2.917   3.921  1.6685  0.4064  0.1235
 9202TIP3    H249022   4.848   3.037   3.861 -0.2362  0.0812  1.6084
 9203TIP3   OH249023   2.857   1.538  15.070 -0.2711 -0.4545 -0.0246
 9203TIP3    H149024   2.947   1.554  15.043 -0.1209 -2.5440 -0.9140
 9203TIP3    H249025   2.842   1.602  15.141  0.8743  1.9480 -1.8056
 9204TIP3   OH249026   0.695   0.614   0.075 -0.1139 -0.8004 -0.0572
 9204TIP3    H149027   0.686   0.646  -0.015 -0.6592  3.5846  1.3422
 9204TIP3    H249028   0.605   0.594   0.103  0.1103 -2.7258 -0.5488
 9205TIP3   OH249029   6.371   2.204  12.131 -0.9154 -0.4165  0.3237
 9205TIP3    H149030   6.438   2.269  12.110 -0.2004 -1.6661 -1.4705
 9205TIP3    H249031   6.418   2.138  12.184 -1.0630 -0.6236  0.1975
 9206TIP3   OH249032   3.813   3.701   0.319 -0.1228  0.1948 -0.6338
 9206TIP3    H149033   3.739   3.644   0.338 -0.1554  0.5203  0.2546
 9206TIP3    H249034   3.890   3.647   0.339 -0.1584  0.6515  0.8626
 9207TIP3   OH249035   5.045   1.561  14.468  0.6353  0.6458 -0.0564
 9207TIP3    H149036   5.068   1.636  14.413 -0.6633  0.5257 -0.7954
 9207TIP3    H249037   4.957   1.537  14.440  0.7124 -0.6478  0.7459
 9208TIP3   OH249038   1.826   4.542  13.151  0.1298  0.0784  0.5355
 9208TIP3    H149039   1.799   4.481  13.082 -1.1606  1.5988 -0.3538
 9208TIP3    H249040   1.872   4.612  13.105 -0.7634  1.1257  1.2057
 9209TIP3   OH249041   2.726   0.744   5.365 -0.2407 -0.1574 -0.1833
 9209TIP3    H149042   2.631   0.737   5.372 -0.3087  0.7097 -0.0824
 9209TIP3    H249043   2.760   0.665   5.405 -0.9242 -0.5093 -0.2959
 9210TIP3   OH249044   3.108   6.446   1.596 -0.4649  0.5351  0.0923
 9210TIP3    H149045   3.139   6.516   1.653  0.5649 -0.7993  1.2234
 9210TIP3    H249046   3.060   6.492   1.527 -0.8678  2.2615  1.4453
 9211TIP3   OH249047   0.360   4.933  15.185  0.6548  0.4266 -0.1877
 9211TIP3    H149048   0.388   4.842  15.188  0.8687  0.5051  1.1391
 9211TIP3    H249049   0.420   4.975  15.123  1.4127 -0.0757  0.1854
 9212TIP3   OH249050   3.993   1.625   3.146  0.2027  0.3308 -0.2976
 9212TIP3    H149051   3.904   1.592   3.138  0.2813  0.4555 -2.0050
 9212TIP3    H249052   4.048   1.556   3.110  0.8973 -0.0746  1.4424
 9213TIP3   OH249053   6.156   3.951  11.885 -0.0917  0.2706  0.6054
 9213TIP3    H149054   6.160   4.006  11.807  1.5532  0.1482  0.5603
 9213TIP3    H249055   6.182   4.010  11.957  1.7721 -0.4120  0.5438
 9214TIP3   OH249056   6.014   1.392   1.891  0.3524  0.4452 -0.1810
 9214TIP3    H149057   6.105   1.386   1.918  0.3561 -1.8268 -0.4703
 9214TIP3    H249058   6.014   1.367   1.798 -0.6841 -1.1830  0.2009
 9215TIP3   OH249059   2.320   0.066  11.764 -0.0973 -0.3783  0.4917
 9215TIP3    H149060   2.399   0.061  11.818  0.3135  2.8238  0.3406
 9215TIP3    H249061   2.249   0.079  11.827  0.0531  0.8181  0.4281
 9216TIP3   OH249062   4.013   5.634   3.016  0.2037 -0.5423  1.0023
 9216TIP3    H149063   3.924   5.669   3.024  0.2501 -0.2737  0.3595
 9216TIP3    H249064   4.038   5.652   2.926  0.7720 -0.9580  1.0727
 9217TIP3   OH249065   0.243   5.590   0.047 -0.1361 -0.0796  0.4069
 9217TIP3    H149066   0.160   5.621   0.083  0.6348  1.3135  1.0635
 9217TIP3    H249067   0.259   5.507   0.092  0.3966  1.2104  2.7548
 9218TIP3   OH249068   5.732   1.288   1.903  0.6482 -0.7434 -0.1284
 9218TIP3    H149069   5.828   1.289   1.895  0.5545 -0.8272 -1.6443
 9218TIP3    H249070   5.709   1.378   1.924  0.9862 -0.3662 -1.2749
 9219TIP3   OH249071   0.137   6.542  16.418  0.5664 -0.3187 -0.4745
 9219TIP3    H149072   0.090   6.498  16.489  0.6846 -0.6779 -0.6149
 9219TIP3    H249073   0.228   6.516  16.430  1.0435  1.6928  0.7839
 9220TIP3   OH249074   3.315   6.594   4.844  0.1502 -0.2358 -0.1916
 9220TIP3    H149075   3.250   6.552   4.900 -0.3563  0.7525 -0.0214
 9220TIP3    H249076   3.395   6.543   4.857  0.2005  0.3035  1.8689
 9221TIP3   OH249077   4.827   3.553   0.710  0.0398  0.0732  0.0772
 9221TIP3    H149078   4.894   3.499   0.752  1.2209  1.0836 -0.4454
 9221TIP3    H249079   4.853   3.556   0.618 -1.7910 -1.0495 -0.5349
 9222TIP3   OH249080   1.773   1.431  11.642 -0.0012 -0.2111 -0.1529
 9222TIP3    H149081   1.850   1.381  11.616  0.4398  0.8921 -1.0606
 9222TIP3    H249082   1.720   1.437  11.562  0.4266  1.5678 -0.3367
 9223TIP3   OH249083   3.838   0.811  11.935 -0.6771  0.0323 -0.8614
 9223TIP3    H149084   3.859   0.729  11.889  0.4165 -1.1616  1.5679
 9223TIP3    H249085   3.913   0.868  11.917  0.4699 -0.9594  0.5062
 9224TIP3   OH249086   2.156   4.910   3.780  0.8787 -0.1598 -0.0925
 9224TIP3    H149087   2.119   4.822   3.781 -0.6177  0.2597 -3.6430
 9224TIP3    H249088   2.092   4.963   3.827  1.1994 -0.7046  1.0090
 9225TIP3   OH249089   4.161   6.704  14.179 -0.1629 -0.3687  0.5519
 9225TIP3    H149090   4.105   6.627  14.167 -0.4004 -0.3369  1.4056
 9225TIP3    H249091   4.241   6.669  14.218  0.6803 -0.4992 -1.1709
 9226TIP3   OH249092   1.937   1.609  13.324 -0.8086 -0.3219  0.5447
 9226TIP3    H149093   1.995   1.683  13.340 -2.2834  1.5583 -2.0195
 9226TIP3    H249094   1.965   1.573  13.240 -1.7373 -1.0013  0.5093
 9227TIP3   OH249095   3.530   6.292   0.460  0.0062 -0.3672 -0.6330
 9227TIP3    H149096   3.555   6.249   0.378 -1.2174 -0.3048 -1.0589
 9227TIP3    H249097   3.466   6.233   0.499 -0.7180  0.4423 -0.5844
 9228TIP3   OH249098   0.406   0.568   1.651 -0.3159  0.2012  0.3111
 9228TIP3    H149099   0.349   0.568   1.575  1.3271 -2.3271 -1.0467
 9228TIP3    H249100   0.347   0.570   1.726 -2.0555  0.2176 -1.0091
 9229TIP3   OH249101   1.828   0.536  11.463  0.1969  0.5317 -0.2231
 9229TIP3    H149102   1.748   0.588  11.455 -1.3850 -1.5578  1.0319
 9229TIP3    H249103   1.824   0.473  11.392  0.8675  0.5727 -0.3057
 9230TIP3   OH249104   1.194   5.941   1.237 -0.0681 -0.2344 -0.0199
 9230TIP3    H149105   1.207   5.855   1.276 -1.5400  0.3454  1.9146
 9230TIP3    H249106   1.106   5.937   1.200  0.2436  0.1399 -0.8321
 9231TIP3   OH249107   3.438   1.412   3.189  0.3808 -0.4909  0.0320
 9231TIP3    H149108   3.418   1.360   3.267  1.1054 -1.2748 -0.2870
 9231TIP3    H249109   3.466   1.497   3.223  0.7673 -0.8518  0.6340
 9232TIP3   OH249110   1.558   0.766  10.649  0.3234  0.2946  0.2899
 9232TIP3    H149111   1.590   0.677  10.666  1.4967  0.2154 -1.9984
 9232TIP3    H249112   1.531   0.765  10.557 -1.0992  1.9148  0.6495
 9233TIP3   OH249113   0.973   3.633  11.782 -0.1701 -0.1364  0.0138
 9233TIP3    H149114   0.981   3.555  11.727 -0.3513 -0.1870  0.0582
 9233TIP3    H249115   1.012   3.608  11.865 -0.1315 -0.1441 -0.0067
 9234TIP3   OH249116   5.800   4.699   2.047 -0.1829 -0.0910 -0.7573
 9234TIP3    H149117   5.873   4.758   2.067  0.7023 -0.2991 -3.0628
 9234TIP3    H249118   5.824   4.616   2.086 -0.9328  0.7177  1.5833
 9235TIP3   OH249119   4.286   2.324  11.404  0.1293 -0.2116 -0.2035
 9235TIP3    H149120   4.205   2.273  11.411  0.5592 -1.2354 -1.9898
 9235TIP3    H249121   4.320   2.328  11.493 -1.2861 -0.7537  0.3974
 9236TIP3   OH249122   5.160   3.264  13.204  0.3163  0.5271  0.0362
 9236TIP3    H149123   5.230   3.229  13.259 -0.0511  0.7030  0.6213
 9236TIP3    H249124   5.199   3.341  13.162  0.7278  0.1504 -0.2789
 9237TIP3   OH249125   5.702   2.169   3.178  0.6890 -0.8082 -0.1201
 9237TIP3    H149126   5.689   2.083   3.138  2.2276  0.0856 -2.7774
 9237TIP3    H249127   5.655   2.229   3.120  1.1086  0.3455  0.7048
 9238TIP3   OH249128   5.911   0.395  14.350  0.4969 -1.0474  0.2873
 9238TIP3    H149129   5.940   0.473  14.398 -3.2680  1.5286 -1.1240
 9238TIP3    H249130   5.871   0.339  14.416  0.2360 -0.1266  0.9303
 9239TIP3   OH249131   4.603   4.413   6.106 -0.2492 -0.5568 -0.0981
 9239TIP3    H149132   4.682   4.447   6.150  0.7181 -2.2325 -0.4594
 9239TIP3    H249133   4.533   4.426   6.170  0.5817 -0.3068  0.7875
 9240TIP3   OH249134   4.612   2.875   2.322 -0.1874 -0.4452  0.6895
 9240TIP3    H149135   4.614   2.796   2.377 -0.7054 -0.6426  0.4361
 9240TIP3    H249136   4.543   2.929   2.361 -0.8172 -0.7519  0.0182
 9241TIP3   OH249137   0.126   5.867   1.895 -0.2711  0.1328  0.4980
 9241TIP3    H149138   0.141   5.808   1.822 -0.9366  0.4180  0.1215
 9241TIP3    H249139   0.031   5.883   1.894 -0.5239 -1.0097  2.3219
 9242TIP3   OH249140   2.669   2.804  16.361 -0.6825 -0.0882 -0.0263
 9242TIP3    H149141   2.625   2.830  16.280 -2.2045 -0.2022  0.7192
 9242TIP3    H249142   2.647   2.874  16.423 -0.0119 -0.2891  0.4490
 9243TIP3   OH249143   5.417   0.370  12.213  0.0931 -0.4843 -0.4166
 9243TIP3    H149144   5.489   0.414  12.258  0.6536 -0.5546 -1.2268
 9243TIP3    H249145   5.459   0.308  12.154 -0.6126 -0.2273 -1.2119
 9244TIP3   OH249146   2.796   4.717   4.774  0.0923 -0.0100 -0.6153
 9244TIP3    H149147   2.849   4.796   4.777  1.8033 -1.1192  0.4078
 9244TIP3    H249148   2.817   4.678   4.689  0.6554 -0.2493 -0.3746
 9245TIP3   OH249149   0.518   5.799   6.045 -0.2530 -0.6599 -0.4521
 9245TIP3    H149150   0.611   5.812   6.027  0.0199 -0.1357  1.1628
 9245TIP3    H249151   0.484   5.887   6.060 -0.5900 -0.9651  0.7280
 9246TIP3   OH249152   6.451   3.763   1.101  0.6602 -0.3173 -0.4221
 9246TIP3    H149153   6.357   3.758   1.090  0.7262 -0.0065 -1.1849
 9246TIP3    H249154   6.474   3.685   1.153  0.0269 -0.5370 -0.4733
 9247TIP3   OH249155   2.750   0.253  14.469  0.2851  0.2892 -0.7830
 9247TIP3    H149156   2.664   0.293  14.455  0.5288  0.7226 -1.1061
 9247TIP3    H249157   2.811   0.314  14.426  0.7268 -0.1254 -0.7496
 9248TIP3   OH249158   4.082   3.211   5.650 -0.0893 -0.4162  0.1693
 9248TIP3    H149159   4.071   3.154   5.726 -0.9391  0.1400  0.4800
 9248TIP3    H249160   3.994   3.246   5.634  0.2966  0.3070 -0.4169
 9249TIP3   OH249161   5.356   5.909  11.150 -0.0777  0.0432 -0.1987
 9249TIP3    H149162   5.419   5.976  11.124  0.2557 -1.3043 -3.3246
 9249TIP3    H249163   5.271   5.946  11.127 -0.0291  0.0582 -0.3587
 9250TIP3   OH249164   1.262   1.983  14.520  0.3202 -0.3630 -0.0346
 9250TIP3    H149165   1.234   2.030  14.599  0.4218  1.0409 -0.7994
 9250TIP3    H249166   1.180   1.949  14.483  0.0531  0.5252 -0.2781
 9251TIP3   OH249167   2.905   2.981   3.399 -0.1321  0.2871 -0.0174
 9251TIP3    H149168   2.931   3.070   3.375  0.7295 -0.1545 -0.7606
 9251TIP3    H249169   2.810   2.980   3.389  0.0949  0.3038 -2.9735
 9252TIP3   OH249170   0.924   1.171  13.747 -0.0656 -0.1728  0.0851
 9252TIP3    H149171   0.984   1.102  13.718 -0.0735 -0.6372  1.1349
 9252TIP3    H249172   0.918   1.230  13.672 -0.3820 -1.5254 -0.9844
 9253TIP3   OH249173   2.532   0.913   0.764 -0.2416  0.2469 -0.2759
 9253TIP3    H149174   2.620   0.948   0.774  0.1297 -0.6156 -0.5153
 9253TIP3    H249175   2.537   0.855   0.688 -0.5102 -1.4030  0.9098
 9254TIP3   OH249176   5.441   1.598   4.062 -0.7744  0.1979 -0.3554
 9254TIP3    H149177   5.519   1.580   4.114 -0.5401 -1.5485 -1.2496
 9254TIP3    H249178   5.429   1.693   4.068  1.1653  0.4410  0.1360
 9255TIP3   OH249179   4.707   0.004   0.200  0.2540  0.1113  0.4304
 9255TIP3    H149180   4.705   0.047   0.115  0.4066 -0.2820  0.2278
 9255TIP3    H249181   4.634  -0.058   0.197 -0.0758  0.4712  0.7877
 9256TIP3   OH249182   3.625   6.497  13.010 -0.9657 -0.1700 -0.3903
 9256TIP3    H149183   3.684   6.423  13.027 -0.3004 -0.1504 -2.3462
 9256TIP3    H249184   3.548   6.457  12.969 -1.1229  0.0859 -0.3430
 9257TIP3   OH249185   3.481   0.956  12.071  0.1003 -0.2179 -0.3477
 9257TIP3    H149186   3.415   1.024  12.083  0.6136  0.1700  0.2819
 9257TIP3    H249187   3.552   0.979  12.130  1.5253  0.2575 -2.1406
 9258TIP3   OH249188   2.609   0.670  13.298 -0.3129 -0.1418 -0.2561
 9258TIP3    H149189   2.515   0.651  13.302  0.0555 -1.9618  1.6456
 9258TIP3    H249190   2.642   0.615  13.227 -0.0832 -3.0528  1.9195
 9259TIP3   OH249191   0.297   2.725   5.453 -0.6558  0.0341 -0.7895
 9259TIP3    H149192   0.292   2.636   5.417  0.4630  0.3054 -1.7060
 9259TIP3    H249193   0.304   2.713   5.547  1.5368 -0.9937 -1.0214
 9260TIP3   OH249194   1.668   6.151  10.820  0.0277  0.3116  0.3555
 9260TIP3    H149195   1.761   6.171  10.808 -0.4015  1.9795 -0.4986
 9260TIP3    H249196   1.663   6.055  10.813  1.5251  0.2756 -0.7175
 9261TIP3   OH249197   4.978   6.709   1.778  0.4018 -0.0212  0.3464
 9261TIP3    H149198   4.998   6.789   1.826  2.4231 -0.0565 -0.3506
 9261TIP3    H249199   5.060   6.660   1.776 -1.0564 -2.7749  1.8271
 9262TIP3   OH249200   2.803   1.197  11.847  0.5413 -0.1729  0.7756
 9262TIP3    H149201   2.786   1.291  11.856  0.0314 -0.2856  1.0214
 9262TIP3    H249202   2.722   1.162  11.811  1.4614 -0.1993 -1.4071
 9263TIP3   OH249203   1.768   5.614  13.441  0.6658  0.1635 -0.0829
 9263TIP3    H149204   1.711   5.592  13.514  0.4999 -1.3535 -0.6323
 9263TIP3    H249205   1.727   5.690  13.400  0.3903  0.5960  0.9804
 9264TIP3   OH249206   3.469   2.312   6.018  0.2920 -0.2135  0.0168
 9264TIP3    H149207   3.519   2.345   6.093  1.3139 -0.5965 -0.4834
 9264TIP3    H249208   3.418   2.387   5.989 -1.7164 -0.5568  2.3349
 9265TIP3   OH249209   2.344   1.272   2.858 -0.1028 -0.1669 -0.0240
 9265TIP3    H149210   2.352   1.291   2.952  0.5011  2.0698 -0.4830
 9265TIP3    H249211   2.298   1.188   2.855 -0.8085  0.0663  2.2674
 9266TIP3   OH249212   0.650   2.818  11.028  0.1249 -0.5201 -0.1652
 9266TIP3    H149213   0.719   2.812  10.962  0.2770 -2.0580  0.0996
 9266TIP3    H249214   0.582   2.759  10.997 -0.5463  0.0417  0.2087
 9267TIP3   OH249215   5.319   5.658  12.355  0.2630  0.3580  0.4256
 9267TIP3    H149216   5.411   5.680  12.340 -0.0929  0.6711 -1.6213
 9267TIP3    H249217   5.277   5.743  12.371  0.0477  0.4506 -0.5376
 9268TIP3   OH249218   3.666   1.052  15.403  0.6489 -0.0373  0.0845
 9268TIP3    H149219   3.760   1.065  15.393  0.4958 -0.3573 -2.3873
 9268TIP3    H249220   3.658   0.987  15.474  2.3561 -0.9069 -0.4645
 9269TIP3   OH249221   5.747   2.830   3.734  0.0201 -0.0303  0.1641
 9269TIP3    H149222   5.804   2.797   3.665 -0.5578 -1.5457  0.3777
 9269TIP3    H249223   5.684   2.760   3.749 -0.4660  0.6646  1.5529
 9270TIP3   OH249224   4.829   5.223   4.914 -0.1562  0.4706 -0.1742
 9270TIP3    H149225   4.768   5.149   4.909 -0.2323  0.5831 -1.3345
 9270TIP3    H249226   4.783   5.288   4.966 -0.2814 -0.1144  0.4643
 9271TIP3   OH249227   4.197   0.515  13.941 -0.2588 -0.0409 -0.2239
 9271TIP3    H149228   4.131   0.579  13.915  0.5146  0.7052 -0.3823
 9271TIP3    H249229   4.280   0.563  13.938  0.4144 -1.1916 -0.9360
 9272TIP3   OH249230   4.984   1.656  12.650 -0.7764  0.3510  0.0877
 9272TIP3    H149231   5.077   1.665  12.626 -1.1601  1.9858 -0.9868
 9272TIP3    H249232   4.967   1.732  12.706 -1.8126  0.9559 -1.0020
 9273TIP3   OH249233   2.034   0.642  16.606 -0.2635  0.4680  0.0103
 9273TIP3    H149234   2.101   0.646  16.538 -2.7683 -1.2697 -2.8590
 9273TIP3    H249235   1.990   0.727  16.600  0.5338  0.9387  0.6589
 9274TIP3   OH249236   3.209   1.637   0.231 -0.3029  0.3506  0.3329
 9274TIP3    H149237   3.127   1.615   0.186 -0.2253  1.5909 -0.4602
 9274TIP3    H249238   3.205   1.732   0.244  1.6466  0.6828 -1.0917
 9275TIP3   OH249239   6.040   2.973   4.023  0.0244  0.6849 -0.8282
 9275TIP3    H149240   6.074   2.894   4.065 -1.2021 -0.3663 -1.7459
 9275TIP3    H249241   6.103   2.992   3.954  1.2605  1.5749  0.4733
 9276TIP3   OH249242   0.132   3.389   1.558 -0.1973  0.3005 -0.4446
 9276TIP3    H149243   0.059   3.375   1.499 -0.8102 -0.5326  0.4755
 9276TIP3    H249244   0.093   3.384   1.646  0.9934 -0.4471  0.0695
 9277TIP3   OH249245   6.508   3.310  13.581 -0.0859 -0.0315 -0.5086
 9277TIP3    H149246   6.480   3.231  13.626  0.4568  0.1954  0.2313
 9277TIP3    H249247   6.582   3.343  13.632 -0.7211  1.3175 -0.4104
 9278TIP3   OH249248   4.360   0.894   3.960 -0.3419 -0.1674 -0.1390
 9278TIP3    H149249   4.438   0.888   3.904 -1.0727 -0.6131 -1.1368
 9278TIP3    H249250   4.349   0.805   3.995  0.2603  0.1631  0.9636
 9279TIP3   OH249251   5.781   0.028  11.966 -0.5585 -0.2326 -0.3569
 9279TIP3    H149252   5.869   0.045  11.999 -0.1699 -0.1992 -1.3873
 9279TIP3    H249253   5.792  -0.040  11.900 -1.6000 -1.8277  1.0115
 9280TIP3   OH249254   1.533   5.736  12.548 -0.1065  0.3151  0.7283
 9280TIP3    H149255   1.521   5.647  12.580  0.1609  0.1635  0.4189
 9280TIP3    H249256   1.533   5.790  12.627  0.9172 -0.0901  1.0280
 9281TIP3   OH249257   5.560   5.801  15.704  1.0317  0.2653  0.2944
 9281TIP3    H149258   5.468   5.823  15.691  0.2244 -2.0009  1.5677
 9281TIP3    H249259   5.590   5.771  15.618  0.6676  1.2161 -0.1760
 9282TIP3   OH249260   2.116   3.869   1.083 -0.5115 -0.1781 -0.3062
 9282TIP3    H149261   2.163   3.889   1.002  1.0581 -1.0712  0.3554
 9282TIP3    H249262   2.038   3.925   1.079  0.4143  1.1002 -1.5997
 9283TIP3   OH249263   4.478   3.880  11.300 -0.2902 -0.0834  0.9914
 9283TIP3    H149264   4.398   3.855  11.253  0.4406  0.6172 -0.7237
 9283TIP3    H249265   4.543   3.815  11.272  1.0889  2.2802 -1.9134
 9284TIP3   OH249266   1.908   2.506   0.046  0.3741  0.9413 -0.2840
 9284TIP3    H149267   1.954   2.588   0.064  1.2844  0.7496 -1.5673
 9284TIP3    H249268   1.975   2.448   0.010 -0.4395 -0.0806 -0.2200
 9285TIP3   OH249269   4.599   2.153  16.563 -0.3168 -0.4235  0.1734
 9285TIP3    H149270   4.584   2.061  16.542 -1.9239 -0.0528 -0.4486
 9285TIP3    H249271   4.631   2.191  16.481  0.7372 -0.4977  0.5408
 9286TIP3   OH249272   2.474   2.980  12.365  0.4147  0.2137  0.2580
 9286TIP3    H149273   2.549   2.920  12.361  1.6895  1.6634  1.3331
 9286TIP3    H249274   2.398   2.924  12.348  1.6824 -1.3920 -0.4001
 9287TIP3   OH249275   3.580   2.529  13.040  0.2276  0.1851  0.3587
 9287TIP3    H149276   3.675   2.542  13.046  0.2715 -0.4349  1.1217
 9287TIP3    H249277   3.561   2.460  13.104 -0.7608  0.4233  0.3387
 9288TIP3   OH249278   1.044   3.243  15.406  0.0497 -0.0446 -0.0923
 9288TIP3    H149279   1.072   3.152  15.421  0.1149 -0.5990 -2.9949
 9288TIP3    H249280   0.960   3.250  15.450 -0.2862 -1.7520 -0.4098
 9289TIP3   OH249281   3.364   3.238   3.982 -0.5010  0.7788 -0.6026
 9289TIP3    H149282   3.280   3.193   3.975  0.1002 -0.1966 -2.0721
 9289TIP3    H249283   3.375   3.254   4.076 -1.7635 -0.1547 -0.2685
 9290TIP3   OH249284   0.051   5.921   3.653  0.2001 -0.4000  0.1289
 9290TIP3    H149285   0.060   5.833   3.615  0.8708  0.6957 -2.4016
 9290TIP3    H249286   0.129   5.968   3.625 -0.4435  1.2120  0.9307
 9291TIP3   OH249287   3.760   6.420   0.896 -0.7591  0.1924 -0.7878
 9291TIP3    H149288   3.677   6.443   0.937  0.9484  0.5888  2.8249
 9291TIP3    H249289   3.821   6.488   0.925  1.7208 -2.2607  0.2829
 9292TIP3   OH249290   5.240   4.961  12.401 -0.0481 -0.5439 -0.4078
 9292TIP3    H149291   5.270   4.984  12.489  0.8639 -0.6683 -0.6735
 9292TIP3    H249292   5.144   4.960  12.407 -0.0069  0.0568  0.4228
 9293TIP3   OH249293   5.450   0.512   1.132 -0.0637 -0.0711 -0.1482
 9293TIP3    H149294   5.470   0.421   1.109 -0.3195 -0.2611  0.3678
 9293TIP3    H249295   5.533   0.548   1.161 -0.4946 -1.0159  2.5120
 9294TIP3   OH249296   1.225   6.313  11.925 -0.1788  0.7318  0.2330
 9294TIP3    H149297   1.281   6.391  11.930 -0.5203  0.9661  0.3790
 9294TIP3    H249298   1.139   6.343  11.953 -0.4164  0.4043 -0.1374
 9295TIP3   OH249299   5.079   1.588   0.173 -0.4085 -0.1409  0.3079
 9295TIP3    H149300   5.081   1.492   0.172  2.3677 -0.1639  1.0102
 9295TIP3    H249301   5.025   1.610   0.249 -0.8254 -1.1112  0.3110
 9296TIP3   OH249302   2.220   1.594  11.863  0.5151  0.0623 -0.2460
 9296TIP3    H149303   2.164   1.588  11.786  1.1614 -0.7085 -0.6617
 9296TIP3    H249304   2.180   1.536  11.928 -0.3088  1.0906  0.1926
 9297TIP3   OH249305   5.637   5.596  17.002 -0.5267 -0.0639  0.6585
 9297TIP3    H149306   5.629   5.690  17.014 -0.7791  0.1094 -0.7078
 9297TIP3    H249307   5.587   5.577  16.922 -2.3712 -1.6874  2.0716
 9298TIP3   OH249308   1.988   4.167   5.112 -0.1404  0.0732  0.9695
 9298TIP3    H149309   1.902   4.183   5.151 -0.9740 -0.2186 -0.6577
 9298TIP3    H249310   1.990   4.073   5.095 -0.6933  0.4275 -1.5072
 9299TIP3   OH249311   0.287   3.117   3.277  0.8924 -0.0066  0.2918
 9299TIP3    H149312   0.359   3.139   3.336  1.3441 -0.7451  0.0331
 9299TIP3    H249313   0.211   3.111   3.335  1.1844  0.0334  0.6877
 9300TIP3   OH249314   3.117   5.062  14.377  0.7776 -0.5290 -0.2788
 9300TIP3    H149315   3.133   5.041  14.469  1.8856  0.2495 -0.2718
 9300TIP3    H249316   3.148   5.152  14.368  0.5837 -0.5638 -1.3899
 9301TIP3   OH249317   0.522   1.134   3.134 -0.1380  0.3092 -0.0615
 9301TIP3    H149318   0.538   1.045   3.166  2.1392  0.5320 -0.3612
 9301TIP3    H249319   0.455   1.169   3.192 -0.4178 -1.2883  0.6350
 9302TIP3   OH249320   5.205   5.752   5.642 -0.0021 -0.4049  0.0315
 9302TIP3    H149321   5.281   5.695   5.657 -0.2328 -1.2090 -1.6013
 9302TIP3    H249322   5.238   5.841   5.656  0.8340 -0.8296  0.8524
 9303TIP3   OH249323   3.505   5.465  12.582 -0.1107 -0.9799 -0.6092
 9303TIP3    H149324   3.485   5.555  12.607 -0.4039 -1.5425  1.2822
 9303TIP3    H249325   3.601   5.462  12.576 -0.0189 -0.8813  0.7026
 9304TIP3   OH249326   0.748   4.711   0.480 -0.5796  0.6801  0.9206
 9304TIP3    H149327   0.702   4.634   0.514  1.0723  0.2215  2.2365
 9304TIP3    H249328   0.772   4.688   0.391  1.1732 -0.9715  1.7634
 9305TIP3   OH249329   5.700   5.842  13.662  0.5564 -0.4837  0.4478
 9305TIP3    H149330   5.660   5.919  13.703 -1.1907 -0.8146 -0.5396
 9305TIP3    H249331   5.734   5.874  13.579 -0.8846 -0.8804 -0.3336
 9306TIP3   OH249332   3.252   5.781  11.948  0.6274 -0.1350  0.2032
 9306TIP3    H149333   3.346   5.784  11.963  0.8387  2.1623 -1.0759
 9306TIP3    H249334   3.230   5.869  11.917 -2.2440 -0.0529  2.0912
 9307TIP3   OH249335   3.414   6.233  11.804  0.3431  0.4453  0.0791
 9307TIP3    H149336   3.388   6.322  11.827 -1.1978 -0.0602  0.4039
 9307TIP3    H249337   3.363   6.177  11.862  1.7433 -0.6583  0.3134
 9308TIP3   OH249338   2.835   0.988  16.197  0.7624  0.5089 -0.0526
 9308TIP3    H149339   2.773   1.061  16.206  1.2528  0.8329  0.8507
 9308TIP3    H249340   2.787   0.921  16.149 -0.3966  0.6336  0.9082
 9309TIP3   OH249341   0.417   4.678  11.734 -0.2829  0.0001 -0.1371
 9309TIP3    H149342   0.336   4.644  11.772 -1.8250  2.8438 -0.5145
 9309TIP3    H249343   0.398   4.685  11.640 -0.2740  2.0890 -0.0449
 9310TIP3   OH249344   3.940   1.212   1.394 -0.4095 -0.1421  0.2686
 9310TIP3    H149345   3.919   1.300   1.426 -0.7111  0.5991 -1.7972
 9310TIP3    H249346   4.030   1.196   1.422 -0.3209  0.8721  0.5881
 9311TIP3   OH249347   0.648   1.754   0.632 -0.6164  0.2126  0.1293
 9311TIP3    H149348   0.731   1.708   0.643 -0.4502  0.3997 -0.3375
 9311TIP3    H249349   0.649   1.786   0.542 -2.5278 -2.4412 -0.9782
 9312TIP3   OH249350   2.783   5.351  11.716 -0.3028  0.2061  0.4311
 9312TIP3    H149351   2.864   5.349  11.665  0.0281 -1.2228  0.9689
 9312TIP3    H249352   2.719   5.306  11.660  0.5015 -3.0264  1.8820
 9313TIP3   OH249353   6.530   4.052   3.963  0.2980 -0.2356 -0.1276
 9313TIP3    H149354   6.575   4.137   3.964 -1.9707  1.0680  0.3948
 9313TIP3    H249355   6.553   4.012   4.047  0.7698  0.2472 -0.0183
 9314TIP3   OH249356   5.488   1.222   0.814  0.4134 -0.2972 -0.4347
 9314TIP3    H149357   5.421   1.256   0.873 -1.2744 -2.5878 -0.8725
 9314TIP3    H249358   5.446   1.222   0.728  1.9385  0.6175 -1.2239
 9315TIP3   OH249359   2.960   0.929   1.837  0.2350  0.3774  0.1154
 9315TIP3    H149360   2.950   0.973   1.921 -1.2872  0.9214 -0.3311
 9315TIP3    H249361   2.982   0.838   1.860  0.9390  0.7707  1.0622
 9316TIP3   OH249362   0.268   4.442   1.870 -0.2542  0.4450  0.7534
 9316TIP3    H149363   0.279   4.403   1.956  3.0375  0.6498  0.5755
 9316TIP3    H249364   0.250   4.535   1.887  3.6998  1.2846  1.4847
 9317TIP3   OH249365   5.397   1.452   5.451  0.1561 -0.6710  0.4475
 9317TIP3    H149366   5.348   1.533   5.441 -1.5135 -1.8514 -1.9902
 9317TIP3    H249367   5.471   1.461   5.391  1.1127 -0.1934  1.6729
 9318TIP3   OH249368   0.788   4.830  11.250  0.2927 -0.4242  0.3168
 9318TIP3    H149369   0.720   4.887  11.214  0.6687  0.4276  0.9359
 9318TIP3    H249370   0.757   4.742  11.231 -0.3535 -0.0248 -0.5630
 9319TIP3   OH249371   1.729   2.895   2.609  0.1148  0.8993 -0.4925
 9319TIP3    H149372   1.814   2.856   2.590 -0.1161  0.6405 -1.0095
 9319TIP3    H249373   1.750   2.974   2.659  0.6481  0.7536 -0.4776
 9320TIP3   OH249374   0.659   0.485   1.762 -0.2361  0.2791 -0.3604
 9320TIP3    H149375   0.694   0.446   1.682  0.5618 -0.2826  0.2353
 9320TIP3    H249376   0.570   0.510   1.740  0.3368  1.1883 -1.7605
 9321TIP3   OH249377   0.391   0.039   4.559  0.1850 -0.4293  0.0032
 9321TIP3    H149378   0.460   0.104   4.547 -0.1426 -0.0126  0.3247
 9321TIP3    H249379   0.435  -0.036   4.600  0.9674 -1.2035 -2.1233
 9322TIP3   OH249380   1.599   4.790   2.227 -0.2841  0.1993  0.1417
 9322TIP3    H149381   1.608   4.710   2.278 -1.3965 -0.2387 -0.3050
 9322TIP3    H249382   1.688   4.814   2.202 -0.0807 -2.5944 -2.2658
 9323TIP3   OH249383   1.816   3.660  16.477  0.3815  0.2259 -0.2561
 9323TIP3    H149384   1.771   3.669  16.393 -0.6706  0.9599  0.3481
 9323TIP3    H249385   1.760   3.602  16.529  0.3006  0.8619  0.3906
 9324TIP3   OH249386   6.316   3.316   5.265  0.4643 -0.1352  0.1312
 9324TIP3    H149387   6.296   3.317   5.171 -1.1591  2.5598  0.4013
 9324TIP3    H249388   6.386   3.381   5.274 -1.0774  1.4963  1.0041
 9325TIP3   OH249389   5.823   4.939  17.094 -0.4070  0.2579  0.0538
 9325TIP3    H149390   5.847   5.017  17.145  1.4439  0.4109 -0.9633
 9325TIP3    H249391   5.790   4.974  17.011  1.9124  0.0392 -1.0462
 9326TIP3   OH249392   2.841   2.986   3.818 -0.0935  0.0389 -0.7397
 9326TIP3    H149393   2.751   2.961   3.841 -0.0960  0.7334  0.0650
 9326TIP3    H249394   2.894   2.951   3.890  0.1412  0.5879 -0.6418
 9327TIP3   OH249395   4.166   4.433  16.935 -0.3352  0.6532  0.0977
 9327TIP3    H149396   4.184   4.353  16.984  0.4543 -0.4407 -1.8398
 9327TIP3    H249397   4.212   4.501  16.983 -0.2516 -0.2178  1.2989
 9328TIP3   OH249398   6.635   6.384   5.699  0.1276  0.2127 -0.1562
 9328TIP3    H149399   6.626   6.468   5.744 -1.6602 -0.8635  1.6693
 9328TIP3    H249400   6.597   6.320   5.759 -0.4895 -1.6325 -2.3490
 9329TIP3   OH249401   0.963   5.322   2.135  0.1051  0.6202  0.1696
 9329TIP3    H149402   0.981   5.279   2.052 -1.1834 -1.5137  0.9119
 9329TIP3    H249403   0.867   5.319   2.143  0.2555 -0.8385  2.4662
 9330TIP3   OH249404   6.220   5.577  12.950 -0.8882 -0.6022  0.0265
 9330TIP3    H149405   6.163   5.602  12.877 -0.9550  0.5867  0.4593
 9330TIP3    H249406   6.165   5.524  13.007 -1.3622 -0.0696  0.0749
 9331TIP3   OH249407   1.490   0.287   2.267  0.2534  0.0272 -0.1847
 9331TIP3    H149408   1.429   0.339   2.318  0.7279  1.4967 -1.0588
 9331TIP3    H249409   1.487   0.326   2.179 -0.6036 -2.4474 -1.3569
 9332TIP3   OH249410   0.236   4.946   2.118  0.6155  0.3846 -0.3262
 9332TIP3    H149411   0.156   4.938   2.170  1.7000  0.0185  1.3755
 9332TIP3    H249412   0.236   5.037   2.089  0.1084  0.6840  0.5538
 9333TIP3   OH249413   5.013   1.545  15.357 -0.1303  0.7856 -0.2039
 9333TIP3    H149414   5.026   1.512  15.446 -1.0522  0.5402 -0.1522
 9333TIP3    H249415   4.962   1.625  15.369 -1.4608  0.0164 -0.5866
 9334TIP3   OH249416   1.406   2.686   6.472  0.0676  0.2400  0.1570
 9334TIP3    H149417   1.465   2.612   6.487  0.4093  0.2227 -1.1162
 9334TIP3    H249418   1.403   2.695   6.377 -0.5926  1.3704  0.2655
 9335TIP3   OH249419   1.191   2.921   5.388 -0.5187  0.0743 -0.2001
 9335TIP3    H149420   1.110   2.879   5.358 -1.8047  2.0523  0.3248
 9335TIP3    H249421   1.165   2.975   5.462  1.5333 -0.1576  0.7571
 9336TIP3   OH249422   2.379   3.898  15.042 -0.0841 -0.0449 -0.7103
 9336TIP3    H149423   2.435   3.937  15.110  0.3470 -0.5344 -0.7874
 9336TIP3    H249424   2.389   3.956  14.967  0.1551 -0.0102 -0.6540
 9337TIP3   OH249425   0.574   5.948  14.886  0.2226 -0.1251  0.5859
 9337TIP3    H149426   0.561   5.876  14.948  1.0175 -1.0534 -0.2946
 9337TIP3    H249427   0.609   6.019  14.939 -1.0876 -0.1731  1.5771
 9338TIP3   OH249428   6.656   6.751   4.990  0.3166 -0.2607  1.0365
 9338TIP3    H149429   6.724   6.690   4.963  0.4337 -0.0965  0.9639
 9338TIP3    H249430   6.623   6.715   5.073  1.1773  0.1908  1.5940
 9339TIP3   OH249431   2.458   0.772   5.348  0.7069  0.2264 -0.2621
 9339TIP3    H149432   2.424   0.703   5.406  0.1562  0.5964 -0.1377
 9339TIP3    H249433   2.387   0.837   5.344  0.2847 -0.3034 -2.2461
 9340TIP3   OH249434   0.141   1.497   3.117  0.3270 -0.1205 -0.1057
 9340TIP3    H149435   0.125   1.416   3.067 -2.7034  0.7312 -0.7322
 9340TIP3    H249436   0.075   1.495   3.186  2.5531  0.1714  2.1627
 9341TIP3   OH249437   1.106   3.502  11.989  0.4951  0.1253  0.4390
 9341TIP3    H149438   1.085   3.409  11.975  0.3340 -0.1390  2.2064
 9341TIP3    H249439   1.184   3.500  12.044 -0.1530  1.0259  1.4106
 9342TIP3   OH249440   6.228   0.865   3.448 -0.5399 -0.0016  0.3462
 9342TIP3    H149441   6.198   0.847   3.537  0.6100 -2.5390  0.2939
 9342TIP3    H249442   6.283   0.790   3.425 -1.0847  0.4013 -2.6558
 9343TIP3   OH249443   0.260   2.576  12.273 -0.0175  0.1212 -0.3445
 9343TIP3    H149444   0.350   2.544  12.286  0.1817  0.1411 -1.6100
 9343TIP3    H249445   0.205   2.503  12.303  0.4033  0.1171  0.4649
 9344TIP3   OH249446   2.255   6.743  10.036 -0.1736 -0.1343 -0.2118
 9344TIP3    H149447   2.314   6.801   9.987  1.1462 -1.2982 -0.0552
 9344TIP3    H249448   2.168   6.767  10.006 -0.0319  3.8838  1.8477
 9345TIP3   OH249449   0.733   3.409   6.709 -0.2856 -0.1599 -0.3804
 9345TIP3    H149450   0.723   3.445   6.797 -2.5640  0.1168 -0.6968
 9345TIP3    H249451   0.793   3.335   6.720  0.7556  0.8514  1.0877
 9346TIP3   OH249452   0.405   4.629  15.461  0.7474 -0.1789  0.0892
 9346TIP3    H149453   0.489   4.675  15.462  0.4675  0.3522  1.4784
 9346TIP3    H249454   0.343   4.693  15.497 -0.4365 -0.2454 -1.7311
 9347TIP3   OH249455   6.728   5.632   0.978  0.4482 -0.4135 -0.4003
 9347TIP3    H149456   6.808   5.595   0.940  0.1426 -0.5781 -0.8909
 9347TIP3    H249457   6.749   5.724   0.994  0.3462 -0.1519 -1.6709
 9348TIP3   OH249458   1.010   1.115   6.167 -0.4657  0.2152 -0.0516
 9348TIP3    H149459   1.096   1.156   6.180 -1.3850  3.1116 -2.1221
 9348TIP3    H249460   0.957   1.146   6.241 -0.6451  1.3621 -0.6358
 9349TIP3   OH249461   5.846   2.068   0.571 -0.0545  0.6500 -0.4466
 9349TIP3    H149462   5.777   2.028   0.623 -0.2985 -0.4416 -1.5430
 9349TIP3    H249463   5.891   2.128   0.631 -2.0853  1.5836  0.2152
 9350TIP3   OH249464   0.351   4.435  16.541 -0.2260  0.3009 -0.0425
 9350TIP3    H149465   0.281   4.386  16.498  0.0868  0.7003 -1.0499
 9350TIP3    H249466   0.425   4.428  16.481  0.0952  1.2471  0.2266
 9351TIP3   OH249467   0.588   6.277   5.222  0.0413 -0.1676  0.2244
 9351TIP3    H149468   0.666   6.310   5.267 -0.2142  1.2351 -0.3109
 9351TIP3    H249469   0.545   6.221   5.286  1.2859 -0.6834  0.6535
 9352TIP3   OH249470   1.098   5.864   3.680 -0.4798  0.2058 -0.1923
 9352TIP3    H149471   1.076   5.775   3.706  1.0140  0.1515  1.0515
 9352TIP3    H249472   1.030   5.888   3.617 -0.8322 -1.8444 -0.6651
 9353TIP3   OH249473   6.180   0.962   0.885 -0.3391 -0.1874  0.2115
 9353TIP3    H149474   6.104   0.913   0.917  0.6340 -1.9906 -0.1232
 9353TIP3    H249475   6.215   1.005   0.963 -2.1560  1.3775  0.2253
 9354TIP3   OH249476   5.430   3.631  16.706  0.1635 -0.2249 -0.3037
 9354TIP3    H149477   5.495   3.690  16.744  0.2023 -0.5220  0.1032
 9354TIP3    H249478   5.473   3.595  16.628 -0.3141  1.1960 -1.2559
 9355TIP3   OH249479   5.566   1.244   4.065  0.2615 -0.0469 -0.5635
 9355TIP3    H149480   5.628   1.316   4.058  0.3275 -0.1025 -0.5612
 9355TIP3    H249481   5.517   1.246   3.983  0.3531 -0.0808 -0.6195
 9356TIP3   OH249482   4.404   4.914  11.224 -0.2485 -0.3458  0.4805
 9356TIP3    H149483   4.354   4.845  11.266  1.2956 -1.6976  0.2054
 9356TIP3    H249484   4.440   4.966  11.296 -1.8868  0.5715  0.6779
 9357TIP3   OH249485   3.971   0.213   4.733 -0.3533  0.0004 -0.3173
 9357TIP3    H149486   3.882   0.245   4.745 -0.7275 -0.2712 -2.0761
 9357TIP3    H249487   3.969   0.123   4.765 -0.5328  0.1858  0.2098
 9358TIP3   OH249488   2.482   3.732   4.213  0.0057 -0.0318  0.0447
 9358TIP3    H149489   2.403   3.784   4.232 -0.6797 -0.7181 -0.8535
 9358TIP3    H249490   2.547   3.797   4.185  0.0890  0.6487  1.7300
 9359TIP3   OH249491   4.252   3.668   0.335 -0.0609 -0.0586  0.0425
 9359TIP3    H149492   4.189   3.704   0.396 -0.4129 -1.5862  0.6175
 9359TIP3    H249493   4.326   3.641   0.389  0.6265  0.6955 -0.4947
 9360TIP3   OH249494   5.526   0.916   1.781  0.1863  0.4755 -0.9852
 9360TIP3    H149495   5.604   0.861   1.774  1.3824  1.5985  2.0496
 9360TIP3    H249496   5.555   1.002   1.751 -0.3186  0.5744 -1.1971
 9361TIP3   OH249497   6.512   4.808  14.013 -0.0703  0.4128  0.3421
 9361TIP3    H149498   6.454   4.874  13.974 -1.3933 -1.4310 -0.9789
 9361TIP3    H249499   6.582   4.796  13.949 -0.0457  0.2335  0.4025
 9362TIP3   OH249500   2.637   1.807  12.240  0.1775 -0.1328  0.4741
 9362TIP3    H149501   2.656   1.802  12.146  2.3878 -1.1968  0.9257
 9362TIP3    H249502   2.547   1.774  12.247 -0.2243  0.4441 -1.2935
 9363TIP3   OH249503   0.784   3.641  11.591 -0.0232  0.0790 -0.3752
 9363TIP3    H149504   0.790   3.549  11.615  1.5583  0.6357  1.6882
 9363TIP3    H249505   0.856   3.683  11.637 -1.1052  2.4753 -0.6737
 9364TIP3   OH249506   2.399   5.724  11.584  0.0038 -0.0419 -0.1601
 9364TIP3    H149507   2.457   5.676  11.526 -1.5538 -0.8461 -1.1212
 9364TIP3    H249508   2.443   5.808  11.599  0.9888 -0.2914 -1.5285
 9365TIP3   OH249509   2.913   1.889   3.645  0.6984 -0.5781  0.1225
 9365TIP3    H149510   2.928   1.946   3.720 -0.3992  0.1381 -0.1762
 9365TIP3    H249511   2.852   1.823   3.676  1.2334 -1.0400  0.2049
 9366TIP3   OH249512   1.961   0.015   3.045 -0.2315 -0.4579  0.0255
 9366TIP3    H149513   1.946   0.006   2.951 -1.5141 -0.9325  0.2559
 9366TIP3    H249514   1.877  -0.007   3.085  0.5267 -1.0916  1.3291
 9367TIP3   OH249515   1.304   2.548   5.613 -0.7205 -0.3424 -0.4235
 9367TIP3    H149516   1.349   2.610   5.556 -0.6267  1.9796  1.9738
 9367TIP3    H249517   1.212   2.551   5.586 -0.5222 -0.0480 -1.0643
 9368TIP3   OH249518   4.323   0.284  13.885  0.0287  0.3054  0.0381
 9368TIP3    H149519   4.276   0.203  13.906  0.9671 -0.5684 -1.0614
 9368TIP3    H249520   4.273   0.353  13.928 -0.8659 -0.8447  0.9055
 9369TIP3   OH249521   5.661   3.732  17.028 -0.2428 -0.3023 -0.2173
 9369TIP3    H149522   5.629   3.820  17.047 -0.6389 -0.4078 -0.3783
 9369TIP3    H249523   5.675   3.731  16.933  0.6432 -0.1282 -0.0940
 9370TIP3   OH249524   2.762   4.822   3.963 -0.3853  0.1117  0.4631
 9370TIP3    H149525   2.751   4.763   4.037 -1.3596  1.2115  1.2412
 9370TIP3    H249526   2.847   4.863   3.976  0.9066 -1.9922 -0.7825
 9371TIP3   OH249527   3.434   2.606   5.741  0.0342  0.0256  0.0401
 9371TIP3    H149528   3.528   2.597   5.753  0.5358  0.9950 -2.4855
 9371TIP3    H249529   3.424   2.632   5.649 -2.7607 -0.9685 -0.0352
 9372TIP3   OH249530   0.451   1.315   6.310 -0.0148  0.2576  0.1288
 9372TIP3    H149531   0.522   1.326   6.372 -0.6195  1.3233  0.6640
 9372TIP3    H249532   0.466   1.382   6.243 -0.9500  1.0676  0.6943
 9373TIP3   OH249533   5.194   1.676  15.592 -0.0103 -0.1496  0.0965
 9373TIP3    H149534   5.126   1.644  15.651  0.0478 -0.8788 -0.2227
 9373TIP3    H249535   5.276   1.663  15.640  0.1089 -1.4369 -0.4071
 9374TIP3   OH249536   6.463   6.372  13.315  0.9220  0.0704 -0.6024
 9374TIP3    H149537   6.488   6.280  13.304  0.7650 -0.1379  0.6621
 9374TIP3    H249538   6.536   6.411  13.363  0.2967  0.2376  0.2140
 9375TIP3   OH249539   5.986   2.497  16.396 -0.0269  0.1729  0.0527
 9375TIP3    H149540   5.960   2.406  16.380  0.7515 -0.3744  1.6238
 9375TIP3    H249541   5.988   2.505  16.492 -0.2654  1.9119 -0.0534
 9376TIP3   OH249542   1.135   2.279   4.777  0.0059  0.5114 -0.4424
 9376TIP3    H149543   1.205   2.238   4.828 -1.0962  0.8702  1.4399
 9376TIP3    H249544   1.165   2.369   4.764  0.5551  0.2594 -0.9408
 9377TIP3   OH249545   5.379   2.854  14.201  0.1050  0.3448 -0.8288
 9377TIP3    H149546   5.365   2.780  14.260 -0.5155 -1.6967 -3.3489
 9377TIP3    H249547   5.323   2.923  14.236  0.4941 -0.4373  1.4676
 9378TIP3   OH249548   4.770   1.781  15.156 -0.0534  0.7258  0.9838
 9378TIP3    H149549   4.768   1.853  15.093  0.1809  0.7656  1.0189
 9378TIP3    H249550   4.823   1.714  15.112 -2.6342 -0.6120 -0.3036
 9379TIP3   OH249551   5.203   2.593   3.347 -0.5373 -0.2609 -0.2591
 9379TIP3    H149552   5.183   2.522   3.408  0.3767 -0.6154 -0.3512
 9379TIP3    H249553   5.199   2.672   3.401 -1.1575 -0.4188 -0.0645
 9380TIP3   OH249554   2.000   5.089  13.036 -0.5918  0.3123  0.0076
 9380TIP3    H149555   1.979   5.175  13.000 -1.6057  0.1741  0.2539
 9380TIP3    H249556   2.038   5.107  13.122 -0.0472  0.5402 -0.2721
 9381TIP3   OH249557   1.358   2.184   5.620 -0.9650 -0.1357 -0.2218
 9381TIP3    H149558   1.448   2.202   5.647 -1.0027 -0.8348  0.4118
 9381TIP3    H249559   1.352   2.217   5.531 -0.1610  0.1699 -0.1673
 9382TIP3   OH249560   2.457   4.925   5.167 -0.0322  0.3344  0.5908
 9382TIP3    H149561   2.509   4.852   5.201 -0.2943  0.5086  1.4075
 9382TIP3    H249562   2.366   4.894   5.172 -0.1666  0.7931  1.1908
 9383TIP3   OH249563   6.339   5.623   4.278  0.9807 -0.4566 -0.8223
 9383TIP3    H149564   6.303   5.675   4.206 -2.2712  0.2229  1.1029
 9383TIP3    H249565   6.303   5.535   4.265 -0.2452 -0.1571  0.2605
 9384TIP3   OH249566   1.642   0.488  10.912 -0.4308 -0.1686  0.6410
 9384TIP3    H149567   1.601   0.470  10.828 -1.7732 -0.0699  1.2375
 9384TIP3    H249568   1.687   0.407  10.936  0.9371  0.1718 -0.6764
 9385TIP3   OH249569   6.279   6.508  12.043  0.2771  0.4908  0.2060
 9385TIP3    H149570   6.241   6.488  11.957 -0.8440  2.5618  0.1296
 9385TIP3    H249571   6.223   6.462  12.105 -0.7971  1.3647 -0.0643
 9386TIP3   OH249572   0.285   4.094  14.562 -0.4674  0.1558  0.3206
 9386TIP3    H149573   0.198   4.112  14.599 -0.3241 -0.5581  1.0301
 9386TIP3    H249574   0.336   4.063  14.637  0.3065  0.2528 -0.1650
 9387TIP3   OH249575   5.937   4.186   4.210  0.0740  0.0678  0.9504
 9387TIP3    H149576   5.981   4.148   4.134  1.8894  0.7264  1.6110
 9387TIP3    H249577   5.966   4.132   4.284  0.1594  0.7951  1.4632
 9388TIP3   OH249578   1.522   6.712   4.587  0.0705  0.2188  0.2522
 9388TIP3    H149579   1.470   6.779   4.543 -1.1097  0.1478  1.4542
 9388TIP3    H249580   1.475   6.630   4.570  0.2320  0.0378  0.6677
 9389TIP3   OH249581   1.656   2.951   5.743 -0.3272  0.2965 -0.1748
 9389TIP3    H149582   1.569   2.918   5.719 -0.0472 -1.6321  1.1715
 9389TIP3    H249583   1.638   3.028   5.797 -1.2854 -0.6406  0.8992
 9390TIP3   OH249584   2.118   6.541  11.912 -0.0679 -0.6148 -0.1814
 9390TIP3    H149585   2.120   6.571  11.821  1.7159  0.1165  0.0494
 9390TIP3    H249586   2.062   6.604  11.957 -0.1507 -0.3832 -0.6011
 9391TIP3   OH249587   0.091   6.668  15.874 -0.0818  0.0224  0.0173
 9391TIP3    H149588   0.089   6.618  15.956  2.3597  0.1769  0.2502
 9391TIP3    H249589   0.162   6.628  15.824 -0.4776  0.9736 -1.3443
 9392TIP3   OH249590   0.906   5.116  14.247 -0.1093  0.6885  0.0988
 9392TIP3    H149591   0.862   5.201  14.247  1.3400  1.4769 -0.0328
 9392TIP3    H249592   0.863   5.067  14.177 -0.5126  1.5557 -0.2812
 9393TIP3   OH249593   2.726   2.015  13.454 -0.2721  0.2095  0.1674
 9393TIP3    H149594   2.799   2.029  13.514  0.0392  0.4461 -0.2538
 9393TIP3    H249595   2.738   1.925  13.422 -0.4003  0.1067  0.4085
 9394TIP3   OH249596   5.466   6.659   2.759 -0.2321  0.7308 -0.0365
 9394TIP3    H149597   5.543   6.642   2.704  0.0354  1.7698 -0.0120
 9394TIP3    H249598   5.419   6.576   2.761  0.2509  0.4145 -1.0599
 9395TIP3   OH249599   3.550   4.256  14.632 -0.7461 -0.4693  0.2310
 9395TIP3    H149600   3.500   4.222  14.558 -0.6824  0.8162 -0.4393
 9395TIP3    H249601   3.605   4.325  14.594  2.4199 -2.5193  0.7094
 9396TIP3   OH249602   4.843   3.741   3.088  0.1824  0.7207  0.4348
 9396TIP3    H149603   4.844   3.806   3.159 -1.6801  0.2800  0.9164
 9396TIP3    H249604   4.829   3.658   3.133  3.3715 -0.2480 -0.0885
 9397TIP3   OH249605   6.418   3.104  11.250  0.5334  0.5264 -0.1316
 9397TIP3    H149606   6.464   3.182  11.219  0.2801  0.9174  0.4794
 9397TIP3    H249607   6.358   3.082  11.179  2.0088 -0.2992 -1.1804
 9398TIP3   OH249608   0.641   1.452  13.012 -0.4406  0.4959 -0.3157
 9398TIP3    H149609   0.619   1.525  12.955  0.9800 -0.5859 -2.4182
 9398TIP3    H249610   0.709   1.486  13.071 -1.3100  1.4083  0.1751
 9399TIP3   OH249611   0.295   0.139   0.595 -0.3011  0.4522 -0.6151
 9399TIP3    H149612   0.211   0.094   0.583 -0.3400 -0.0291  1.1667
 9399TIP3    H249613   0.356   0.092   0.539 -0.8564 -0.3192 -0.5929
 9400TIP3   OH249614   0.211   2.206   5.014 -0.6436  0.7209 -0.4977
 9400TIP3    H149615   0.153   2.136   4.984 -0.1804  0.1575 -0.0887
 9400TIP3    H249616   0.203   2.206   5.109  0.5705  0.1527 -0.3801
 9401TIP3   OH249617   2.198   6.768   3.797  0.2490 -0.1899 -0.4406
 9401TIP3    H149618   2.172   6.708   3.727 -0.3695 -0.3921 -0.0436
 9401TIP3    H249619   2.293   6.776   3.788  0.4305 -1.7099 -0.1139
 9402TIP3   OH249620   6.120   3.108   5.967  0.1633 -0.6258  0.2736
 9402TIP3    H149621   6.175   3.030   5.964 -0.4489 -1.0452 -0.1869
 9402TIP3    H249622   6.098   3.118   6.060  1.5867 -0.0386  0.5734
 9403TIP3   OH249623   5.571   1.301  10.912  0.0790  0.4514 -0.0080
 9403TIP3    H149624   5.594   1.385  10.872  1.4563 -0.3149 -0.8947
 9403TIP3    H249625   5.516   1.257  10.847  1.1201 -0.1965 -0.4688
 9404TIP3   OH249626   0.231   1.484  13.392 -0.2086  0.4190  0.5428
 9404TIP3    H149627   0.209   1.394  13.369  1.8759 -0.0865  0.2863
 9404TIP3    H249628   0.214   1.490  13.486  0.3912 -0.5242  0.7315
 9405TIP3   OH249629   0.850   2.043  13.052 -0.0499  0.3509 -0.0594
 9405TIP3    H149630   0.940   2.034  13.082 -0.3316  1.5819  1.3359
 9405TIP3    H249631   0.805   1.967  13.089  0.0962  0.6192  0.6939
 9406TIP3   OH249632   5.249   3.376  14.158 -0.0648  0.5681 -0.4569
 9406TIP3    H149633   5.157   3.402  14.150 -0.4201 -0.3982  0.2113
 9406TIP3    H249634   5.298   3.445  14.114 -1.0911  1.2725 -0.5232
 9407TIP3   OH249635   2.502   4.336  14.841 -0.1113 -0.1763 -0.2767
 9407TIP3    H149636   2.474   4.390  14.767 -1.3938 -0.3982  0.0145
 9407TIP3    H249637   2.564   4.391  14.889 -2.2380  1.5761  0.6665
 9408TIP3   OH249638   6.217   3.950  14.436  1.0938 -0.2123  0.3021
 9408TIP3    H149639   6.144   3.954  14.498  2.2052  1.3180  1.5903
 9408TIP3    H249640   6.290   3.916  14.487  1.3422 -1.7066 -0.9684
 9409TIP3   OH249641   4.036   2.256   2.364 -0.3302 -0.5819  0.1511
 9409TIP3    H149642   4.018   2.220   2.277 -0.4186  0.6959 -0.3862
 9409TIP3    H249643   3.951   2.256   2.408 -1.1322  2.2809 -1.1648
 9410TIP3   OH249644   1.552   3.774   1.239  0.2341 -0.0894  0.0970
 9410TIP3    H149645   1.498   3.696   1.225 -1.2737  0.8117  0.6730
 9410TIP3    H249646   1.577   3.801   1.151  0.1677 -0.8025 -0.1493
 9411TIP3   OH249647   6.163   5.513   3.364 -0.8342 -0.1277  0.7492
 9411TIP3    H149648   6.140   5.463   3.442  0.2678  0.4541  1.4797
 9411TIP3    H249649   6.079   5.534   3.323 -1.3476 -3.2321 -0.0758
 9412TIP3   OH249650   3.706   5.805  13.891 -1.1835 -0.3863  0.7827
 9412TIP3    H149651   3.687   5.738  13.826  0.9158 -2.0015  1.7170
 9412TIP3    H249652   3.801   5.814  13.889 -1.3426  2.1324  1.1641
 9413TIP3   OH249653   6.500   2.713  11.842  0.1138 -0.6062  0.2886
 9413TIP3    H149654   6.434   2.782  11.839  1.2429  0.5014 -0.0871
 9413TIP3    H249655   6.576   2.754  11.883  0.4411 -1.9764  1.1060
 9414TIP3   OH249656   6.673   3.222   5.403 -0.1081 -0.3041 -0.3826
 9414TIP3    H149657   6.677   3.309   5.441 -0.5019  0.4266 -1.9520
 9414TIP3    H249658   6.657   3.164   5.478  2.3892  0.6786  1.0213
 9415TIP3   OH249659   2.016   4.019  11.556  0.6964 -0.8461 -0.3489
 9415TIP3    H149660   1.950   3.954  11.577 -0.5924  0.3234 -0.6732
 9415TIP3    H249661   2.090   3.998  11.613 -1.1187 -0.2606  2.3926
 9416TIP3   OH249662   1.710   1.132  13.860  0.5101 -0.0004  1.0205
 9416TIP3    H149663   1.708   1.181  13.777 -0.6315  0.0773  1.0743
 9416TIP3    H249664   1.671   1.193  13.924 -1.1274 -1.0091  1.0499
 9417TIP3   OH249665   1.933   1.280   4.732 -0.1067 -0.0486  0.3727
 9417TIP3    H149666   1.949   1.203   4.677  0.7502  0.9013 -0.7375
 9417TIP3    H249667   2.018   1.298   4.773  0.1738  1.3541 -0.7674
 9418TIP3   OH249668   6.506   4.471  13.629  0.2018 -0.2457 -0.2633
 9418TIP3    H149669   6.582   4.438  13.581  0.3478 -0.9239  0.4164
 9418TIP3    H249670   6.496   4.561  13.599  3.2319  0.9931  1.9136
 9419TIP3   OH249671   3.802   3.215   0.326  0.3158 -0.7572  0.0191
 9419TIP3    H149672   3.757   3.141   0.367 -0.1808 -0.4090  0.1022
 9419TIP3    H249673   3.839   3.264   0.398 -2.6649  1.2662  0.3352
 9420TIP3   OH249674   5.816   1.643   3.698  0.0231 -0.1903  0.6928
 9420TIP3    H149675   5.799   1.554   3.727  1.8794 -0.4036  1.3025
 9420TIP3    H249676   5.841   1.634   3.606  0.0670 -0.2847  0.7136
 9421TIP3   OH249677   5.791   5.104  14.223  0.0086  0.4976  0.6670
 9421TIP3    H149678   5.841   5.178  14.257  1.3237  0.3266 -0.7667
 9421TIP3    H249679   5.854   5.032  14.217 -0.2673  0.3593 -1.5004
 9422TIP3   OH249680   2.669   5.785  13.279  0.1291 -0.3733 -0.6349
 9422TIP3    H149681   2.613   5.759  13.352 -1.7158 -1.0664 -2.2013
 9422TIP3    H249682   2.758   5.782  13.314 -0.6633 -1.1312  1.4357
 9423TIP3   OH249683   5.603   3.547  11.696 -0.0659 -0.0084 -0.1990
 9423TIP3    H149684   5.538   3.577  11.633  0.7855 -0.0722 -1.1266
 9423TIP3    H249685   5.565   3.567  11.781  0.0117  2.7974 -0.7350
 9424TIP3   OH249686   5.799   5.525  15.718 -0.0380  0.2827 -0.3432
 9424TIP3    H149687   5.704   5.529  15.708 -0.2642 -1.3838  0.6294
 9424TIP3    H249688   5.828   5.616  15.720 -1.5677  0.8053 -1.0406
 9425TIP3   OH249689   4.105   4.967  12.457  0.3108  0.0381 -0.3136
 9425TIP3    H149690   4.030   4.907  12.452  2.8274 -3.3620 -0.4516
 9425TIP3    H249691   4.104   4.999  12.548 -1.9003  1.0900 -0.6287
 9426TIP3   OH249692   3.712   1.029   5.275 -0.7624 -0.5585 -0.2159
 9426TIP3    H149693   3.782   1.074   5.324 -2.0373  1.4399 -0.1181
 9426TIP3    H249694   3.745   0.940   5.262  1.8396  0.3286 -0.2474
 9427TIP3   OH249695   3.080   6.372   0.790  0.1285  0.3561  0.1604
 9427TIP3    H149696   3.084   6.425   0.710  2.2828 -0.8228 -0.5740
 9427TIP3    H249697   2.986   6.357   0.803 -0.3710  1.8427 -1.2658
 9428TIP3   OH249698   1.316   3.103  15.031  0.1181  0.4863  0.4041
 9428TIP3    H149699   1.245   3.166  15.018  1.8306  2.5743  0.6492
 9428TIP3    H249700   1.393   3.157  15.049  2.1769 -1.5714 -1.5399
 9429TIP3   OH249701   5.089   1.606   2.476  0.3372 -0.2764 -0.1725
 9429TIP3    H149702   5.159   1.630   2.537  0.6856  0.2452 -0.7634
 9429TIP3    H249703   5.045   1.689   2.457 -0.6209 -0.6386  0.3932
 9430TIP3   OH249704   5.583   5.338  15.943  0.1258  0.0946  0.2534
 9430TIP3    H149705   5.557   5.297  15.861  0.7635  2.5651 -1.3025
 9430TIP3    H249706   5.524   5.412  15.953  1.6819  1.3413  0.6341
 9431TIP3   OH249707   1.297   2.552  12.857 -0.2324  0.3698  0.1205
 9431TIP3    H149708   1.345   2.510  12.928  0.0236  2.3522  1.1881
 9431TIP3    H249709   1.206   2.552  12.885 -0.6366 -1.6128 -1.0108
 9432TIP3   OH249710   0.681   0.784   4.537  0.1417 -0.4064  0.1856
 9432TIP3    H149711   0.623   0.776   4.461  1.6435  0.6642 -1.1447
 9432TIP3    H249712   0.625   0.819   4.607 -1.1079 -0.6867 -0.6454
 9433TIP3   OH249713   0.439   5.229  13.926  0.0218  0.6818  0.1158
 9433TIP3    H149714   0.498   5.301  13.947 -0.1068  0.9321 -0.3812
 9433TIP3    H249715   0.374   5.229  13.996  0.2673  0.7803  0.3423
 9434TIP3   OH249716   1.443   1.980   4.795 -0.3504  0.3418 -0.3728
 9434TIP3    H149717   1.372   1.985   4.859  0.3016 -0.0989  0.4109
 9434TIP3    H249718   1.428   2.054   4.736  0.8051  2.8107  2.1813
 9435TIP3   OH249719   4.701   0.193   2.671 -0.7880 -0.4030 -0.2817
 9435TIP3    H149720   4.792   0.191   2.702 -0.9708 -2.1087  0.2787
 9435TIP3    H249721   4.708   0.214   2.578  0.2293 -0.9630 -0.3465
 9436TIP3   OH249722   6.390   5.520   3.941  0.2924 -0.2298 -0.3812
 9436TIP3    H149723   6.436   5.577   4.004  0.6601  0.7650 -1.5200
 9436TIP3    H249724   6.301   5.554   3.939 -0.3410 -1.6170  1.1691
 9437TIP3   OH249725   2.059   0.038  13.942 -0.0838  0.0781  0.2774
 9437TIP3    H149726   1.968   0.025  13.969  0.0169 -0.8879  0.1717
 9437TIP3    H249727   2.064   0.131  13.922 -1.0814  0.1252  0.1685
 9438TIP3   OH249728   2.519   1.680   3.525  0.2969  0.6891  0.1459
 9438TIP3    H149729   2.601   1.681   3.574  1.5498 -0.1705 -1.8143
 9438TIP3    H249730   2.545   1.689   3.433 -1.8147  0.4566 -0.5437
 9439TIP3   OH249731   5.894   0.580  17.049 -0.0527 -0.1546 -0.6362
 9439TIP3    H149732   5.810   0.533  17.052  0.5424 -1.4309 -2.3360
 9439TIP3    H249733   5.941   0.540  16.976  1.1079  2.1407 -1.2310
 9440TIP3   OH249734   0.209   3.001   2.152  0.0799 -0.1368  0.7684
 9440TIP3    H149735   0.276   2.934   2.162 -0.8528 -1.4245 -1.0703
 9440TIP3    H249736   0.139   2.973   2.212  1.1138  1.2271  2.7146
 9441TIP3   OH249737   0.591   1.568   0.400  0.0710 -0.0798 -0.2773
 9441TIP3    H149738   0.684   1.549   0.388  0.2049  0.3745 -0.0229
 9441TIP3    H249739   0.585   1.663   0.391 -0.0408  0.1418  1.5962
 9442TIP3   OH249740   6.262   0.151   6.510  0.5862  0.6570 -0.3867
 9442TIP3    H149741   6.236   0.238   6.540  1.9350  1.6760 -2.0506
 9442TIP3    H249742   6.312   0.115   6.584  2.9046  2.6733 -0.8540
 9443TIP3   OH249743   4.247   1.205   2.706  0.4832  0.2155  0.3189
 9443TIP3    H149744   4.269   1.293   2.676 -1.4826  0.7792  0.3375
 9443TIP3    H249745   4.214   1.218   2.795 -0.3348 -0.4387  0.1283
 9444TIP3   OH249746   1.219   4.573   4.616 -0.1791  0.0114  0.5164
 9444TIP3    H149747   1.266   4.641   4.567 -2.0525  2.2582  1.6122
 9444TIP3    H249748   1.185   4.514   4.549 -0.3774  1.4453 -0.6987
 9445TIP3   OH249749   2.108   3.075  12.563 -0.3814 -0.2277 -1.0458
 9445TIP3    H149750   2.051   3.137  12.608  0.6286 -0.7662  1.1189
 9445TIP3    H249751   2.161   3.128  12.504  0.5901  1.0724  0.8870
 9446TIP3   OH249752   4.902   5.902   4.355 -0.2498 -0.1380  0.4706
 9446TIP3    H149753   4.865   5.954   4.284  0.0254 -1.4493 -0.6869
 9446TIP3    H249754   4.951   5.964   4.408 -1.2292  1.0327  0.0443
 9447TIP3   OH249755   4.250   3.326   1.123  0.3138 -1.0126 -0.2925
 9447TIP3    H149756   4.333   3.309   1.169  0.1754  0.6988  0.6690
 9447TIP3    H249757   4.239   3.421   1.128 -0.2320 -0.8409 -3.0295
 9448TIP3   OH249758   0.412   6.409   5.653 -0.3250  0.6435  0.6716
 9448TIP3    H149759   0.441   6.494   5.620 -1.0192  0.9868  0.9128
 9448TIP3    H249760   0.444   6.407   5.743  2.1106 -0.5599 -0.1548
 9449TIP3   OH249761   6.605   6.282  14.720  0.7736  0.1456 -0.1911
 9449TIP3    H149762   6.606   6.233  14.803 -0.1424  1.4075  0.6085
 9449TIP3    H249763   6.684   6.253  14.674  1.1058 -0.8608  0.9488
 9450TIP3   OH249764   5.751   5.227   5.089 -0.4021  0.0456  0.1427
 9450TIP3    H149765   5.715   5.138   5.093  0.2618 -0.2013  1.1012
 9450TIP3    H249766   5.677   5.284   5.105 -0.6152 -0.3998  0.8011
 9451TIP3   OH249767   0.788   2.209   3.728  0.2505 -0.2922 -0.3611
 9451TIP3    H149768   0.709   2.156   3.742 -0.0562 -0.0412 -1.0576
 9451TIP3    H249769   0.784   2.277   3.795  0.3778 -0.8451  0.2113
 9452TIP3   OH249770   6.317   0.255  13.887  0.4632 -0.4221  0.5533
 9452TIP3    H149771   6.232   0.212  13.877  0.2820 -0.1127  0.7338
 9452TIP3    H249772   6.361   0.206  13.956  0.9586 -1.3917 -0.4171
 9453TIP3   OH249773   4.186   6.696   0.285  0.7921  0.0214 -0.0052
 9453TIP3    H149774   4.091   6.691   0.268  1.2076 -1.9666 -2.2921
 9453TIP3    H249775   4.201   6.788   0.308 -1.4142  0.9246 -1.7366
 9454TIP3   OH249776   0.767   3.062   1.967 -0.0666 -0.6262  0.2547
 9454TIP3    H149777   0.845   3.067   1.912 -0.9898  0.1892 -1.0340
 9454TIP3    H249778   0.774   3.136   2.027 -0.1025 -0.2418 -0.2148
 9455TIP3   OH249779   3.589   0.771   3.045 -0.8036  0.4740 -0.2590
 9455TIP3    H149780   3.660   0.807   3.098 -0.0545 -2.1265  0.7059
 9455TIP3    H249781   3.625   0.764   2.957 -0.6073  1.0829 -0.2294
 9456TIP3   OH249782   3.596   0.962  11.812  0.0066 -0.2488  0.2661
 9456TIP3    H149783   3.553   0.955  11.897 -0.6477  0.5560  0.0177
 9456TIP3    H249784   3.684   0.927  11.827 -0.4446 -1.1203  0.9987
 9457TIP3   OH249785   3.542   1.419   5.548  0.0733 -0.3705  0.1525
 9457TIP3    H149786   3.529   1.514   5.549  0.3569 -0.3167  2.2280
 9457TIP3    H249787   3.530   1.392   5.639  1.1080 -2.1862 -0.2021
 9458TIP3   OH249788   4.970   0.914   5.837  0.4525  0.1958  0.1713
 9458TIP3    H149789   5.062   0.905   5.864  0.0041  0.6065  1.9657
 9458TIP3    H249790   4.974   0.915   5.741  2.1560 -1.3169  0.1659
 9459TIP3   OH249791   3.356   1.300  10.220 -0.2148 -0.5278  0.6272
 9459TIP3    H149792   3.324   1.211  10.203  0.6125 -0.8088  0.4924
 9459TIP3    H249793   3.366   1.304  10.315 -0.0767 -0.6451  0.6180
 9460TIP3   OH249794   1.910   6.488   4.823  0.3365  0.4367  0.5094
 9460TIP3    H149795   1.941   6.447   4.742 -0.6090 -0.1702  0.4286
 9460TIP3    H249796   1.939   6.429   4.892 -2.4874 -1.4409  0.2816
 9461TIP3   OH249797   1.762   4.883  16.047  0.1758  0.6525 -0.2824
 9461TIP3    H149798   1.787   4.910  15.959  1.1726  0.5459 -0.0466
 9461TIP3    H249799   1.837   4.905  16.101 -0.1256  0.0316  0.4083
 9462TIP3   OH249800   5.785   4.671  14.030  0.5318  0.3157 -0.6548
 9462TIP3    H149801   5.717   4.672  13.963 -1.3013 -1.8168  1.0114
 9462TIP3    H249802   5.758   4.738  14.093  0.9658  0.6954 -0.8674
 9463TIP3   OH249803   1.581   5.000  12.799 -0.2339  0.3930 -0.2888
 9463TIP3    H149804   1.602   4.968  12.886 -2.3488  0.8051  0.4257
 9463TIP3    H249805   1.626   5.084  12.792  2.4333 -0.9456 -0.8318
 9464TIP3   OH249806   2.036   2.281   1.813  0.0726  0.7359 -0.2295
 9464TIP3    H149807   2.024   2.294   1.907  0.2640  1.0799 -0.2505
 9464TIP3    H249808   2.059   2.367   1.779 -4.0639  1.6531 -1.2975
 9465TIP3   OH249809   4.881   0.558   1.563 -0.4573  0.1249  0.1911
 9465TIP3    H149810   4.785   0.555   1.564 -0.4364 -1.3525  1.1249
 9465TIP3    H249811   4.906   0.499   1.492 -0.2351 -0.3820  0.6862
 9466TIP3   OH249812   0.039   6.281  15.713  0.3097  0.3313  0.4220
 9466TIP3    H149813   0.082   6.242  15.789 -0.9772 -0.0948  0.9722
 9466TIP3    H249814  -0.031   6.219  15.691  0.9960  0.1498 -1.4982
 9467TIP3   OH249815   1.761   3.955   1.772 -0.1796  0.1674 -0.0767
 9467TIP3    H149816   1.851   3.935   1.795  0.1178 -0.3017 -1.5517
 9467TIP3    H249817   1.743   4.039   1.815  0.0367 -0.9766  2.4546
 9468TIP3   OH249818   4.105   0.444   1.323 -0.4420  0.1302 -0.1732
 9468TIP3    H149819   4.181   0.396   1.292  2.3041  3.0838  1.3354
 9468TIP3    H249820   4.041   0.377   1.345  2.1448 -2.6167 -0.4065
 9469TIP3   OH249821   3.552   1.645  12.858 -0.0288 -0.1768  0.6949
 9469TIP3    H149822   3.635   1.682  12.890 -0.6608  0.3988  1.7306
 9469TIP3    H249823   3.487   1.713  12.877 -0.5695 -0.1191 -1.1967
 9470TIP3   OH249824   2.836   6.802   3.940 -0.3201 -0.2575  0.0157
 9470TIP3    H149825   2.824   6.856   4.018  1.6893 -1.6746  1.4025
 9470TIP3    H249826   2.886   6.858   3.881 -1.9807  0.8799 -0.3948
 9471TIP3   OH249827   0.054   4.597   3.640  0.1200 -0.2241 -0.2844
 9471TIP3    H149828   0.138   4.638   3.662 -1.2920  3.3570 -0.7715
 9471TIP3    H249829   0.056   4.591   3.544 -0.1160 -0.3158 -0.2827
 9472TIP3   OH249830   4.079   4.026  12.615 -0.4847  0.1888 -0.8100
 9472TIP3    H149831   4.104   4.107  12.660  0.6620 -0.8456  0.5087
 9472TIP3    H249832   4.148   4.013  12.549 -0.2338 -0.0845 -0.5028
 9473TIP3   OH249833   6.028   0.295  10.644 -0.7456 -0.0111 -0.3351
 9473TIP3    H149834   6.008   0.374  10.594 -1.6649  0.1346  0.2409
 9473TIP3    H249835   5.945   0.270  10.685  0.3163  1.0347  2.7572
 9474TIP3   OH249836   2.300   3.216   4.476 -0.2629 -0.9568  0.5237
 9474TIP3    H149837   2.221   3.234   4.526 -0.7908 -2.4010  0.2640
 9474TIP3    H249838   2.360   3.288   4.497 -1.6170  0.1316  0.7610
 9475TIP3   OH249839   2.849   0.702  14.148 -0.2071  0.1052  0.3609
 9475TIP3    H149840   2.922   0.757  14.176  0.7746 -0.3656 -1.1999
 9475TIP3    H249841   2.850   0.707  14.053  0.0015 -2.6930  0.1418
 9476TIP3   OH249842   4.320   2.505   4.803  0.2041 -0.2080 -0.4206
 9476TIP3    H149843   4.340   2.412   4.809 -0.3620 -0.2368  2.2000
 9476TIP3    H249844   4.346   2.530   4.714  1.0748 -2.6696 -0.9243
 9477TIP3   OH249845   6.490   1.039  12.490 -0.1775 -0.7966  0.0677
 9477TIP3    H149846   6.567   1.076  12.446 -0.9821 -0.9284 -1.5357
 9477TIP3    H249847   6.435   1.115  12.510  0.4030 -0.6907  1.3242
 9478TIP3   OH249848   5.763   1.993   0.334  0.3391 -0.1279  0.1548
 9478TIP3    H149849   5.674   1.984   0.368  0.5032  1.7905  1.2241
 9478TIP3    H249850   5.808   2.049   0.398  2.4109 -1.2687 -0.2083
 9479TIP3   OH249851   1.368   6.655  16.846 -0.1881  0.1572 -0.3451
 9479TIP3    H149852   1.342   6.564  16.832  2.2750 -0.2640 -2.9648
 9479TIP3    H249853   1.313   6.705  16.786 -3.5320  0.9788  2.9820
 9480TIP3   OH249854   3.285   6.140  16.073 -0.0466  0.3497  0.1671
 9480TIP3    H149855   3.325   6.221  16.038 -0.4312  0.1653 -0.7280
 9480TIP3    H249856   3.222   6.114  16.006  1.3151 -1.6670 -0.4190
 9481TIP3   OH249857   2.144   0.179   0.914 -0.3503 -0.4998  0.3980
 9481TIP3    H149858   2.053   0.153   0.926  0.1476 -3.0793 -0.7727
 9481TIP3    H249859   2.195   0.112   0.959  1.0156 -0.4839 -1.0436
 9482TIP3   OH249860   3.691   5.106   5.122 -0.2170 -0.0280 -0.5037
 9482TIP3    H149861   3.711   5.050   5.197 -1.4415  0.3493  0.1310
 9482TIP3    H249862   3.669   5.191   5.160 -0.0851  0.3970 -1.3440
 9483TIP3   OH249863   2.311   3.457  14.535 -0.4078 -0.4707  0.0289
 9483TIP3    H149864   2.348   3.521  14.596 -1.8342  1.9775 -1.5076
 9483TIP3    H249865   2.248   3.408  14.588  0.6331 -0.5718  1.2252
 9484TIP3   OH249866   2.545   0.396   0.349  0.0508 -0.0296 -0.5080
 9484TIP3    H149867   2.623   0.351   0.318  0.2170 -0.0417 -0.0883
 9484TIP3    H249868   2.489   0.404   0.272  0.3059 -0.3537 -0.7290
 9485TIP3   OH249869   4.953   0.998  14.395 -1.4793 -0.2009 -0.2377
 9485TIP3    H149870   5.005   1.066  14.352 -1.3973 -0.2214 -0.1731
 9485TIP3    H249871   5.007   0.970  14.469 -0.5786 -1.7932 -1.4282
 9486TIP3   OH249872   0.092   5.225  15.009  0.1839  0.3009  0.5131
 9486TIP3    H149873   0.165   5.273  15.048  1.6074 -0.5522 -0.9601
 9486TIP3    H249874   0.105   5.235  14.914 -0.2669 -1.7511  0.1808
 9487TIP3   OH249875   0.684   0.103  15.459 -0.5696  0.3485 -0.5767
 9487TIP3    H149876   0.594   0.074  15.445 -0.3379  0.4536 -2.5453
 9487TIP3    H249877   0.692   0.183  15.408  0.0572  1.5750  1.3231
 9488TIP3   OH249878   1.629   0.902  14.589  0.0965 -0.3813 -0.0177
 9488TIP3    H149879   1.632   0.995  14.568 -0.6076 -0.6482 -1.4791
 9488TIP3    H249880   1.582   0.863  14.515  0.8354 -1.9669  0.3074
 9489TIP3   OH249881   4.415   4.017  15.427 -0.1873 -0.0913 -0.5531
 9489TIP3    H149882   4.488   4.074  15.451 -0.5411  0.3057 -0.3961
 9489TIP3    H249883   4.337   4.065  15.456 -0.4435 -1.0885  0.4835
 9490TIP3   OH249884   1.894   4.821  13.906  0.1211 -0.3121 -0.6404
 9490TIP3    H149885   1.838   4.898  13.899  0.8282  0.2631 -0.1345
 9490TIP3    H249886   1.971   4.851  13.954  0.7245 -1.1661 -1.0379
 9491TIP3   OH249887   5.567   6.186   2.200  0.2430  0.2682 -0.3967
 9491TIP3    H149888   5.588   6.253   2.136 -0.9041  0.0434 -1.0406
 9491TIP3    H249889   5.491   6.141   2.163 -1.0611  0.7515  1.5414
 9492TIP3   OH249890   1.977   0.920  12.325  0.2456 -0.5718 -0.2349
 9492TIP3    H149891   2.057   0.967  12.348  0.2004  0.5854 -2.2264
 9492TIP3    H249892   2.001   0.828  12.331  1.6806 -0.2425 -0.5719
 9493TIP3   OH249893   4.911   0.448   5.290 -0.2336 -0.0377 -0.2597
 9493TIP3    H149894   4.943   0.492   5.212  1.1326  0.1788  0.3983
 9493TIP3    H249895   4.990   0.421   5.337 -1.0295 -0.5229  0.8488
 9494TIP3   OH249896   3.872   4.124   5.634 -0.4065 -0.1434  0.1082
 9494TIP3    H149897   3.900   4.046   5.683 -0.1234 -0.4065 -0.4513
 9494TIP3    H249898   3.915   4.114   5.549 -0.5594  0.5121 -0.0479
 9495TIP3   OH249899   2.994   4.919   1.018  0.3444 -0.2317  0.1854
 9495TIP3    H149900   3.009   4.996   1.074  0.3268 -1.4553  1.9537
 9495TIP3    H249901   2.961   4.955   0.936  0.9707  1.6890  0.7266
 9496TIP3   OH249902   1.623   0.742   3.695 -0.2518 -0.1791 -0.0202
 9496TIP3    H149903   1.694   0.736   3.631 -1.8012  0.2393 -1.8325
 9496TIP3    H249904   1.641   0.824   3.742 -1.4716  1.9916 -3.0166
 9497TIP3   OH249905   6.560   1.778   1.640 -0.2343  0.0056 -0.1420
 9497TIP3    H149906   6.628   1.774   1.707 -0.5865 -1.3673  0.1565
 9497TIP3    H249907   6.608   1.764   1.557 -0.0016  0.1891 -0.0396
 9498TIP3   OH249908   2.279   0.003   6.045 -0.4860 -0.2977  0.1582
 9498TIP3    H149909   2.244  -0.082   6.071 -3.2563  0.5349 -0.5153
 9498TIP3    H249910   2.367   0.006   6.083 -1.2145 -2.4620  2.2201
 9499TIP3   OH249911   6.491   0.913  12.178 -0.9850  0.4361 -0.1184
 9499TIP3    H149912   6.566   0.947  12.227 -0.7051 -1.7674  1.0891
 9499TIP3    H249913   6.524   0.833  12.136 -2.2107  0.3571 -0.9893
 9500TIP3   OH249914   2.383   0.654  14.208  0.2009 -0.0629  0.0432
 9500TIP3    H149915   2.318   0.588  14.231 -0.6874  0.6600 -0.3624
 9500TIP3    H249916   2.435   0.613  14.138  0.8641 -1.0270  1.0536
 9501TIP3   OH249917   2.158   5.151   5.898 -0.5742 -0.4150  0.2159
 9501TIP3    H149918   2.110   5.226   5.933  0.5451  0.3358  0.2107
 9501TIP3    H249919   2.250   5.180   5.898 -0.2349 -1.4272 -0.7037
 9502TIP3   OH249920   2.420   3.145  15.013  0.1923 -0.5904 -0.1534
 9502TIP3    H149921   2.482   3.214  14.987  0.5597 -0.2100  1.5948
 9502TIP3    H249922   2.371   3.183  15.086  1.4341 -2.6386  1.8809
 9503TIP3   OH249923   1.519   1.258   4.252  0.1180  0.1143  0.2574
 9503TIP3    H149924   1.612   1.273   4.234  0.1672  0.7139  0.9606
 9503TIP3    H249925   1.480   1.345   4.246 -0.2826 -0.0421  0.6150
 9504TIP3   OH249926   0.465   5.704  16.989 -0.0054  0.0159  0.1717
 9504TIP3    H149927   0.419   5.785  16.966 -0.6562 -0.4275 -0.1080
 9504TIP3    H249928   0.399   5.650  17.031  0.5941 -0.1160  0.9765
 9505TIP3   OH249929   1.218   5.319  14.186  0.0090  0.2794  0.5097
 9505TIP3    H149930   1.201   5.262  14.111  1.0141  0.1464  0.3748
 9505TIP3    H249931   1.306   5.354  14.170  0.6874 -0.5831  2.1524
 9506TIP3   OH249932   0.777   5.802   2.665 -0.1000  0.0593 -0.1779
 9506TIP3    H149933   0.873   5.803   2.662 -0.0826  2.3167 -0.1357
 9506TIP3    H249934   0.755   5.845   2.747 -1.1703 -0.0982 -0.3745
 9507TIP3   OH249935   1.730   4.561   2.037  0.3893 -0.7436 -0.6968
 9507TIP3    H149936   1.690   4.486   2.083  1.1689  0.1802  1.6457
 9507TIP3    H249937   1.818   4.530   2.014  1.0546 -0.3455  1.0958
 9508TIP3   OH249938   0.552   2.912  14.266  0.0813  0.8981 -0.5744
 9508TIP3    H149939   0.578   2.929  14.176  1.6856  1.1677 -0.0773
 9508TIP3    H249940   0.457   2.924  14.266 -0.2884 -1.3201 -2.7208
 9509TIP3   OH249941   4.596   0.372   0.497  0.5265  0.0232 -0.6232
 9509TIP3    H149942   4.673   0.333   0.456  0.3665  0.6336 -1.5193
 9509TIP3    H249943   4.527   0.307   0.485  0.6290 -0.0558 -0.7831
 9510TIP3   OH249944   1.248   3.995  14.903 -0.4933  0.1946 -0.0455
 9510TIP3    H149945   1.193   3.931  14.947  0.1395 -0.4485 -0.1802
 9510TIP3    H249946   1.270   4.059  14.972 -2.1163  0.9544 -0.2000
 9511TIP3   OH249947   5.853   3.730  15.208 -0.5076 -0.0218  0.4346
 9511TIP3    H149948   5.782   3.668  15.191  0.7129 -1.0254 -1.2297
 9511TIP3    H249949   5.882   3.758  15.121  0.9310  0.6313  1.0938
 9512TIP3   OH249950   0.283   6.570  12.774 -0.1116  0.1030 -0.1465
 9512TIP3    H149951   0.316   6.487  12.808  0.9854  0.1456 -1.0497
 9512TIP3    H249952   0.208   6.545  12.720 -2.0461  0.0561  2.3566
 9513TIP3   OH249953   4.822   0.760  16.176  0.2058 -0.3287 -0.8384
 9513TIP3    H149954   4.917   0.744  16.175  0.2761 -0.1787  0.7144
 9513TIP3    H249955   4.786   0.690  16.123  1.1872 -0.4208 -1.4101
 9514TIP3   OH249956   1.212   3.745  15.819 -0.1894 -0.1849  0.0438
 9514TIP3    H149957   1.232   3.835  15.846 -0.8544  0.3105 -1.0875
 9514TIP3    H249958   1.277   3.692  15.866 -0.1013  0.8218  1.1127
 9515TIP3   OH249959   2.394   4.494  14.653  0.2884 -0.0948  0.1523
 9515TIP3    H149960   2.373   4.578  14.612  0.6400 -0.7162 -1.3862
 9515TIP3    H249961   2.313   4.443  14.645  0.7119 -0.6263 -0.8715
 9516TIP3   OH249962   6.764   4.350  10.468  0.1679 -0.5599  0.2182
 9516TIP3    H149963   6.744   4.371  10.376  1.3632 -0.6095 -0.0797
 9516TIP3    H249964   6.748   4.256  10.475 -0.1237 -0.5183  0.1060
 9517TIP3   OH249965   2.947   6.695   1.149  0.2313 -0.0939 -0.2434
 9517TIP3    H149966   2.986   6.780   1.129  2.4217 -0.4990  1.8583
 9517TIP3    H249967   2.997   6.633   1.096  0.3769 -0.3153  0.1491
 9518TIP3   OH249968   2.948   3.929   4.708 -0.0071 -0.3896  0.5960
 9518TIP3    H149969   3.015   3.994   4.729 -0.1463 -0.0332 -0.0257
 9518TIP3    H249970   2.920   3.952   4.619 -2.7868  1.0865  1.7225
 9519TIP3   OH249971   4.278   5.863  17.041 -0.2196  0.2647 -0.3379
 9519TIP3    H149972   4.327   5.807  17.101  0.4602  0.7947 -0.3815
 9519TIP3    H249973   4.188   5.833  17.048 -0.0763  0.0250  0.6199
 9520TIP3   OH249974   1.319   3.163   0.273  0.1213  0.0915  0.2570
 9520TIP3    H149975   1.368   3.133   0.197 -1.6711  1.9722 -1.8224
 9520TIP3    H249976   1.236   3.194   0.236 -1.3319 -0.0284  3.1720
 9521TIP3   OH249977   4.653   3.266  11.988 -0.2427 -0.0709  0.7489
 9521TIP3    H149978   4.730   3.298  12.034  0.2142  0.0145 -0.0534
 9521TIP3    H249979   4.672   3.281  11.896 -0.6475 -1.2931  0.4502
 9522TIP3   OH249980   1.477   1.365  14.628 -0.1270  0.5507  0.5219
 9522TIP3    H149981   1.558   1.412  14.650  1.1375 -1.3743  0.1916
 9522TIP3    H249982   1.488   1.339  14.537 -1.1896  0.3881  0.4292
 9523TIP3   OH249983   3.100   4.459   2.771 -0.1698 -0.4895 -0.1164
 9523TIP3    H149984   3.127   4.551   2.767 -0.4095 -0.4042  0.1979
 9523TIP3    H249985   3.073   4.439   2.681  0.8959 -0.5690 -0.4280
 9524TIP3   OH249986   4.289   3.572   0.823 -0.0880  0.1800 -0.3541
 9524TIP3    H149987   4.356   3.586   0.890 -0.5006  1.0989 -0.1200
 9524TIP3    H249988   4.267   3.479   0.831  0.7577 -0.0082 -0.0677
 9525TIP3   OH249989   3.291   3.838  14.227 -0.4360 -0.0678 -0.4458
 9525TIP3    H149990   3.283   3.777  14.153 -2.5691  0.6851 -0.9294
 9525TIP3    H249991   3.259   3.789  14.302  0.4041 -0.3877 -0.2922
 9526TIP3   OH249992   4.921   1.887  13.082 -0.1248 -0.0168 -0.3713
 9526TIP3    H149993   4.953   1.812  13.131  3.2432  1.7886  0.4922
 9526TIP3    H249994   4.832   1.862  13.055 -0.4792 -2.8589  2.7806
 9527TIP3   OH249995   0.585   2.423  13.170 -0.0944  0.0918 -0.4577
 9527TIP3    H149996   0.503   2.406  13.216 -0.2095 -0.4857 -0.8599
 9527TIP3    H249997   0.653   2.413  13.237 -0.4056  1.5061  0.0904
 9528TIP3   OH249998   6.533   5.267  12.743  0.3559  0.1667 -0.9076
 9528TIP3    H149999   6.592   5.227  12.679  1.8503  3.3976 -1.7770
 9528TIP3    H250000   6.459   5.299  12.692 -0.4119 -0.6720 -0.3562
 9529TIP3   OH250001   0.894   4.886  10.461  0.2382 -0.1841  0.6154
 9529TIP3    H150002   0.908   4.981  10.465 -1.2283  0.0828  0.2464
 9529TIP3    H250003   0.813   4.872  10.510 -0.6158 -0.9721 -0.9441
 9530TIP3   OH250004   1.831   5.978  11.359 -0.2540 -0.0387 -0.1128
 9530TIP3    H150005   1.901   5.951  11.419 -0.1040 -3.6944 -1.6757
 9530TIP3    H250006   1.752   5.937  11.395 -1.1130  1.7091  0.0925
 9531TIP3   OH250007   6.799   0.198   1.437  0.3076 -0.4983  0.4799
 9531TIP3    H150008   6.789   0.281   1.391  0.0046 -1.4443 -1.2678
 9531TIP3    H250009   6.811   0.222   1.528  1.8344  1.5278 -0.1852
 9532TIP3   OH250010   2.803   6.783  13.795  0.7687 -0.0077 -0.5586
 9532TIP3    H150011   2.710   6.788  13.774  0.2867 -1.5425  0.9406
 9532TIP3    H250012   2.815   6.846  13.867  1.0837  0.7745 -1.2826
 9533TIP3   OH250013   4.621   0.097  15.894 -0.0277 -0.4769 -0.6368
 9533TIP3    H150014   4.648   0.020  15.944  0.7148  1.0349  1.4304
 9533TIP3    H250015   4.526   0.087  15.885 -0.1138 -1.0465  0.6814
 9534TIP3   OH250016   1.536   2.821  15.288 -0.4994 -0.0947 -0.2635
 9534TIP3    H150017   1.484   2.843  15.211 -0.4622  0.1142 -0.2317
 9534TIP3    H250018   1.606   2.886  15.289 -1.6836  1.2509  1.1018
 9535TIP3   OH250019   4.057   2.407  12.976  0.0789  0.1734 -0.3629
 9535TIP3    H150020   4.065   2.400  12.881  1.1076 -0.7869 -0.2303
 9535TIP3    H250021   4.070   2.500  12.995  0.1913  0.3180 -1.1232
 9536TIP3   OH250022   3.128   2.393   2.461  0.5332  0.0450 -0.3243
 9536TIP3    H150023   3.161   2.304   2.447  0.3799  0.1907 -1.6924
 9536TIP3    H250024   3.151   2.441   2.381 -4.1229 -0.2118 -2.1143
 9537TIP3   OH250025   4.545   4.136  12.342 -0.3436 -0.0887  0.2690
 9537TIP3    H150026   4.555   4.078  12.267 -0.0977  1.1981 -0.7226
 9537TIP3    H250027   4.566   4.223  12.308 -3.0128  0.9738  1.0991
 9538TIP3   OH250028   3.087   6.803   4.317 -0.2001  0.1192 -0.0841
 9538TIP3    H150029   3.004   6.770   4.352  2.2956 -3.8182  3.0426
 9538TIP3    H250030   3.106   6.746   4.243  0.5735 -0.3658  0.4730
 9539TIP3   OH250031   0.613   0.820   1.491 -0.1579 -0.3974  0.5450
 9539TIP3    H150032   0.517   0.824   1.488 -0.1330 -0.2879 -1.2343
 9539TIP3    H250033   0.634   0.817   1.584 -1.8066  1.8456  1.0654
 9540TIP3   OH250034   5.004   3.515  14.919 -0.2571 -0.0318 -0.2812
 9540TIP3    H150035   5.071   3.448  14.910 -0.3025 -0.1575  0.2686
 9540TIP3    H250036   4.926   3.476  14.880 -0.4144 -0.5057  0.4868
 9541TIP3   OH250037   6.611   5.064   0.742 -0.7006  0.0487  0.3500
 9541TIP3    H150038   6.600   5.068   0.647 -0.7845  1.3821  0.3985
 9541TIP3    H250039   6.619   4.971   0.761  0.3797 -0.1786 -1.0733
 9542TIP3   OH250040   4.292   2.397  11.685  0.3778 -0.4020  0.6492
 9542TIP3    H150041   4.382   2.366  11.698  0.5783 -0.2507 -0.3015
 9542TIP3    H250042   4.298   2.492  11.694  0.5831 -0.2579 -0.7224
 9543TIP3   OH250043   4.057   3.703   5.339 -0.4149 -0.0907  0.3812
 9543TIP3    H150044   4.040   3.610   5.353  1.0701 -0.3642  0.5284
 9543TIP3    H250045   3.989   3.731   5.277 -0.6575 -1.3552  0.0490
 9544TIP3   OH250046   2.653   1.014   4.261 -0.1516  0.6625  0.0291
 9544TIP3    H150047   2.676   1.019   4.353  0.1743  0.0116 -0.0153
 9544TIP3    H250048   2.681   0.927   4.233 -0.6426  0.6887 -0.5772
 9545TIP3   OH250049   0.412   1.110   3.395 -0.0957 -0.5287 -0.1587
 9545TIP3    H150050   0.486   1.050   3.405  0.2269 -0.1671 -0.3427
 9545TIP3    H250051   0.442   1.191   3.436  0.0534 -0.0150 -1.2385
 9546TIP3   OH250052   3.297   4.237   0.471  0.1315  0.1427 -0.6535
 9546TIP3    H150053   3.321   4.146   0.453  0.9428  0.0778  0.6066
 9546TIP3    H250054   3.332   4.286   0.396  1.6653 -0.3325 -0.2834
 9547TIP3   OH250055   4.121   2.221  14.931  0.5922  0.5146  0.2459
 9547TIP3    H150056   4.086   2.218  15.021 -0.7664  0.7530 -0.2504
 9547TIP3    H250057   4.044   2.236  14.876  1.2654 -0.5921 -1.0591
 9548TIP3   OH250058   3.847   4.304   2.432  0.0269  0.4246  0.2876
 9548TIP3    H150059   3.848   4.283   2.339 -0.8041 -1.6000  0.6778
 9548TIP3    H250060   3.768   4.262   2.465 -0.5449  2.4251  1.6623
 9549TIP3   OH250061   2.407   1.298   3.144  0.1273 -0.0035 -0.0085
 9549TIP3    H150062   2.466   1.373   3.134  1.5880 -1.0072  0.7296
 9549TIP3    H250063   2.460   1.231   3.186 -1.0538 -1.5823 -0.9119
 9550TIP3   OH250064   5.109   4.866   2.398 -0.3261  0.4817 -0.6369
 9550TIP3    H150065   5.135   4.811   2.325 -0.0055  1.4607 -1.2854
 9550TIP3    H250066   5.038   4.819   2.441  0.5232 -0.8485 -0.6292
 9551TIP3   OH250067   3.139   0.651  16.870  0.2094 -0.3313 -0.7549
 9551TIP3    H150068   3.095   0.670  16.953  1.1918 -1.5514  0.0750
 9551TIP3    H250069   3.068   0.624  16.811 -0.4901  0.5106 -0.3338
 9552TIP3   OH250070   3.066   3.923   5.910  0.4644 -0.2150  0.5630
 9552TIP3    H150071   3.064   3.875   5.828  1.2125 -0.2011  0.5276
 9552TIP3    H250072   2.980   3.908   5.950  0.6375 -1.4623  0.4908
 9553TIP3   OH250073   1.335   2.278   5.318 -0.4155  0.3568 -0.0508
 9553TIP3    H150074   1.410   2.336   5.331 -1.3002  1.2449  1.4859
 9553TIP3    H250075   1.259   2.335   5.330 -1.3575 -0.5132 -1.5885
 9554TIP3   OH250076   3.656   4.259  12.266  0.0863 -0.3797  0.6584
 9554TIP3    H150077   3.570   4.294  12.241 -0.0147 -2.0065 -1.6281
 9554TIP3    H250078   3.667   4.285  12.357 -2.3225  0.8705  0.6737
 9555TIP3   OH250079   3.746   6.354   6.347 -0.1857 -0.0589  0.2957
 9555TIP3    H150080   3.714   6.358   6.257  1.9703 -2.4534 -0.7069
 9555TIP3    H250081   3.751   6.445   6.375  0.6822  0.8989 -2.6406
 9556TIP3   OH250082   5.505   0.104  14.560  0.2925  0.4001  0.1413
 9556TIP3    H150083   5.588   0.090  14.514 -0.8265 -1.7499 -1.4038
 9556TIP3    H250084   5.509   0.045  14.634  0.1186  0.2528  0.0336
 9557TIP3   OH250085   1.593   0.623   5.159  0.4337 -0.1893  0.3146
 9557TIP3    H150086   1.575   0.561   5.088 -1.5506  1.6713 -0.9233
 9557TIP3    H250087   1.625   0.702   5.115 -2.6802  1.7016  1.1641
 9558TIP3   OH250088   3.147   3.896  13.398  0.1439 -0.3522 -0.1511
 9558TIP3    H150089   3.209   3.956  13.356  0.1826 -0.4195 -0.1895
 9558TIP3    H250090   3.068   3.949  13.411  1.3890  0.9070  3.3380
 9559TIP3   OH250091   3.859   0.181   4.233 -0.7482 -1.2640  0.2925
 9559TIP3    H150092   3.778   0.182   4.285 -0.4110 -0.4518  0.8216
 9559TIP3    H250093   3.830   0.183   4.142 -1.3368  1.0521  0.4684
 9560TIP3   OH250094   4.346   2.228   1.747 -0.1420  0.1549  0.0421
 9560TIP3    H150095   4.404   2.180   1.807 -0.6802 -0.5915 -0.0198
 9560TIP3    H250096   4.404   2.257   1.676  0.0561 -1.1733 -0.3670
 9561TIP3   OH250097   5.088   0.951  14.639 -0.1416  0.1401  0.1025
 9561TIP3    H150098   5.054   0.953  14.728 -0.2434 -1.6022  0.1379
 9561TIP3    H250099   5.183   0.945  14.650  0.1192  2.8110  0.0188
 9562TIP3   OH250100   4.095   0.457   3.133  0.1722  0.0136 -0.3343
 9562TIP3    H150101   4.117   0.499   3.216  0.8667  1.4210 -1.1784
 9562TIP3    H250102   4.075   0.530   3.074 -1.6080 -1.0005 -1.0678
 9563TIP3   OH250103   1.722   1.144  15.807  0.5826 -0.1341 -0.3583
 9563TIP3    H150104   1.679   1.061  15.829  0.3718  0.1314  0.2617
 9563TIP3    H250105   1.757   1.175  15.891  1.6484 -0.1511 -0.7760
 9564TIP3   OH250106   0.009   0.562   0.100  0.1690 -0.3847 -0.2046
 9564TIP3    H150107  -0.038   0.549   0.183 -0.6492 -0.0182 -0.5971
 9564TIP3    H250108   0.086   0.613   0.124 -0.7053  0.8254  0.1715
 9565TIP3   OH250109   2.683   2.334   3.166  0.0659  1.1897 -0.8564
 9565TIP3    H150110   2.694   2.301   3.255  0.2938  2.6598 -0.3154
 9565TIP3    H250111   2.725   2.420   3.166  2.2303  0.2755 -3.0481
 9566TIP3   OH250112   2.735   4.997  15.850  0.5637 -0.7831  0.0972
 9566TIP3    H150113   2.667   4.961  15.907  0.7051 -2.0760 -0.5099
 9566TIP3    H250114   2.735   4.939  15.773  2.5226 -0.9741  0.1924
 9567TIP3   OH250115   2.245   2.616  13.200  0.1431 -0.2838  0.3323
 9567TIP3    H150116   2.226   2.695  13.150  2.0112 -0.2813 -0.4285
 9567TIP3    H250117   2.196   2.627  13.282  0.5086  1.7495  0.3090
 9568TIP3   OH250118   6.318   4.946  13.838 -0.4120 -0.2497 -0.2129
 9568TIP3    H150119   6.319   4.930  13.744 -1.4284 -0.1398 -0.2491
 9568TIP3    H250120   6.229   4.974  13.857 -0.6088 -1.5640  0.9996
 9569TIP3   OH250121   0.017   6.133  13.805  0.3165 -0.0250  0.0326
 9569TIP3    H150122   0.024   6.046  13.842 -0.5239 -0.1206 -0.0054
 9569TIP3    H250123   0.036   6.122  13.712  0.4578 -0.1225  0.0736
 9570TIP3   OH250124   6.036   2.075  12.925  0.0121 -0.1298  0.5305
 9570TIP3    H150125   5.969   2.119  12.977  1.2934  0.7565  1.4886
 9570TIP3    H250126   6.105   2.140  12.913  0.7633 -1.0412 -0.3451
 9571TIP3   OH250127   3.724   0.362  12.813 -0.5310 -0.6348 -0.5088
 9571TIP3    H150128   3.772   0.394  12.890  1.7968 -2.2543 -1.1824
 9571TIP3    H250129   3.740   0.428  12.746 -0.9711 -0.1654 -0.1617
 9572TIP3   OH250130   1.743   6.265  14.904 -0.7616  0.0165  0.0671
 9572TIP3    H150131   1.716   6.227  14.988  2.0114 -1.1141  0.5398
 9572TIP3    H250132   1.838   6.273  14.910 -0.7153  2.4280 -1.9917
 9573TIP3   OH250133   4.590   2.053   0.236 -0.1179  0.1990  0.7664
 9573TIP3    H150134   4.649   2.044   0.162 -0.3116  0.3449  0.5950
 9573TIP3    H250135   4.648   2.072   0.310  0.0794  0.0019  0.6653
 9574TIP3   OH250136   3.028   5.537   5.190 -0.0803  0.8214 -0.4583
 9574TIP3    H150137   3.066   5.481   5.122  1.2902  0.9017  0.2137
 9574TIP3    H250138   3.080   5.519   5.268 -1.1024  1.3488  0.3651
 9575TIP3   OH250139   5.917   2.817  13.354  0.1265 -0.0713 -0.1410
 9575TIP3    H150140   5.973   2.884  13.394 -0.7037 -0.0035  0.9499
 9575TIP3    H250141   5.978   2.760  13.307  1.1281 -0.0161  1.0347
 9576TIP3   OH250142   1.303   0.102  12.940 -0.2118 -0.1859  0.2970
 9576TIP3    H150143   1.370   0.166  12.917  0.2332 -0.7102  0.1271
 9576TIP3    H250144   1.239   0.108  12.870 -0.1642  0.0549  0.2717
 9577TIP3   OH250145   2.626   5.037  14.276 -0.0396  0.2455  0.1315
 9577TIP3    H150146   2.623   5.101  14.348  2.0618  1.9798 -1.1722
 9577TIP3    H250147   2.711   4.994  14.286 -0.9519 -1.6202  0.3093
 9578TIP3   OH250148   6.148   1.519  12.549  0.6174 -0.0220  0.1715
 9578TIP3    H150149   6.083   1.583  12.518 -0.3673 -0.2224  1.7008
 9578TIP3    H250150   6.124   1.438  12.504  0.0534 -0.0012  0.4316
 9579TIP3   OH250151   0.914   0.373   4.967  0.5559  0.1652 -0.9260
 9579TIP3    H150152   0.982   0.306   4.975  0.7837  0.5069  0.1414
 9579TIP3    H250153   0.962   0.456   4.972 -0.0471  0.4239  1.1446
 9580TIP3   OH250154   5.864   0.308  14.867  0.0592  0.0013 -0.2892
 9580TIP3    H150155   5.921   0.384  14.876 -1.6735  1.1215  3.1942
 9580TIP3    H250156   5.871   0.262  14.951 -2.1800 -1.2216 -0.6729
 9581TIP3   OH250157   5.004   2.130  13.419  0.0983  0.4626  0.2001
 9581TIP3    H150158   5.080   2.168  13.375 -0.2598  0.6076 -0.3008
 9581TIP3    H250159   5.039   2.057  13.469  0.5551  0.4671 -0.1086
 9582TIP3   OH250160   0.627   5.608  12.787  0.3802  0.0732  0.0995
 9582TIP3    H150161   0.615   5.697  12.754 -2.1011 -0.1485  0.1875
 9582TIP3    H250162   0.721   5.599  12.800  0.7233  2.5691 -0.2162
 9583TIP3   OH250163   0.900   2.349  11.112  0.1210  0.6542  0.4016
 9583TIP3    H150164   0.945   2.266  11.097 -0.3542  0.4917 -0.1382
 9583TIP3    H250165   0.970   2.409  11.138  0.5152  0.1770  0.4630
 9584TIP3   OH250166   0.487   5.400  15.880  0.2174 -0.6874 -0.1603
 9584TIP3    H150167   0.557   5.351  15.923 -0.4267 -1.3719  0.1311
 9584TIP3    H250168   0.521   5.488  15.871  1.1823 -1.0511 -0.1697
 9585TIP3   OH250169   2.003   3.420  13.743 -0.3191  0.3541  0.0066
 9585TIP3    H150170   2.016   3.509  13.708  1.5928  0.1028 -0.0254
 9585TIP3    H250171   2.016   3.363  13.667 -1.4565  0.0209  0.0470
 9586TIP3   OH250172   3.064   5.591   3.966 -0.3557 -0.5054  0.5178
 9586TIP3    H150173   3.017   5.629   3.892 -2.0293 -1.4965  1.0099
 9586TIP3    H250174   3.155   5.587   3.937 -0.6737  0.7924 -0.7738
 9587TIP3   OH250175   6.085   0.000  15.860 -0.4072  0.2491  0.0346
 9587TIP3    H150176   6.082  -0.093  15.838 -0.8664 -0.1829  1.8119
 9587TIP3    H250177   6.020   0.011  15.929 -0.8489  2.0435 -0.6036
 9588TIP3   OH250178   0.661   5.214  16.154  0.4264 -0.1355  0.2230
 9588TIP3    H150179   0.675   5.307  16.133  1.2348  0.4062  2.8172
 9588TIP3    H250180   0.571   5.210  16.185  0.5636 -0.0931  0.6352
 9589TIP3   OH250181   1.116   3.887  15.124  0.3038 -0.2666  0.2382
 9589TIP3    H150182   1.074   3.806  15.154 -2.1932  0.5568 -0.8167
 9589TIP3    H250183   1.155   3.924  15.204 -0.2601 -1.5008  1.1184
 9590TIP3   OH250184   0.150   2.930  12.086  0.2947  0.1326 -0.3316
 9590TIP3    H150185   0.128   2.956  12.175 -0.2061 -0.2684 -0.3355
 9590TIP3    H250186   0.192   3.007  12.048  0.2894  0.3863  0.1716
 9591TIP3   OH250187   4.542   2.894   5.898 -0.3910 -0.0641  0.0054
 9591TIP3    H150188   4.523   2.914   5.990  0.4198 -1.0300  0.3965
 9591TIP3    H250189   4.581   2.807   5.900  1.3216  0.6395 -1.0626
 9592TIP3   OH250190   6.775   3.187   2.555  0.1434  0.5897 -0.0378
 9592TIP3    H150191   6.804   3.234   2.476  0.2466 -1.0231 -1.0093
 9592TIP3    H250192   6.748   3.101   2.522  0.6101 -0.2796  1.7571
 9593TIP3   OH250193   2.849   6.424   3.174 -0.7622  0.7676  0.3021
 9593TIP3    H150194   2.865   6.331   3.191  0.6399  0.7286 -0.9945
 9593TIP3    H250195   2.863   6.433   3.079  2.5096  2.8716  0.8145
 9594TIP3   OH250196   4.086   4.601   0.495 -0.1079  0.3459 -0.2830
 9594TIP3    H150197   4.051   4.604   0.584 -0.4662  2.6468 -0.4458
 9594TIP3    H250198   4.017   4.561   0.443 -0.0102 -0.7470  0.4115
 9595TIP3   OH250199   3.167   6.793  13.257  0.0971  0.6177  0.4116
 9595TIP3    H150200   3.222   6.715  13.241 -0.4489 -0.0770  1.7762
 9595TIP3    H250201   3.207   6.835  13.333 -0.7709  0.5646  0.9044
 9596TIP3   OH250202   6.443   2.702   4.066  0.1515  0.7223 -0.0772
 9596TIP3    H150203   6.467   2.610   4.053 -0.7069  0.5957 -0.9801
 9596TIP3    H250204   6.526   2.749   4.073  0.6020 -0.0650 -0.0820
 9597TIP3   OH250205   6.654   6.250  16.255  0.2192  0.1402  0.3539
 9597TIP3    H150206   6.613   6.330  16.288  1.2373 -0.0229  2.1574
 9597TIP3    H250207   6.640   6.186  16.324  2.2780 -0.2987  0.4200
 9598TIP3   OH250208   5.066   0.009  13.666  0.1141  0.5507 -0.1573
 9598TIP3    H150209   5.024  -0.067  13.626  0.0784  0.6044 -0.2222
 9598TIP3    H250210   5.020   0.021  13.748 -0.6645  1.2137 -0.6813
 9599TIP3   OH250211   3.191   5.954  11.091 -0.0508 -0.0028 -0.0543
 9599TIP3    H150212   3.169   5.969  11.183 -0.8616 -0.7589 -0.1069
 9599TIP3    H250213   3.115   5.908  11.055  1.1099 -1.6202 -0.5795
 9600TIP3   OH250214   0.041   3.338   1.809 -0.6468 -0.2654 -0.3165
 9600TIP3    H150215  -0.051   3.317   1.828  0.0882 -2.3880  1.3666
 9600TIP3    H250216   0.088   3.256   1.825  1.8992  1.4129  1.6368
 9601TIP3   OH250217   6.314   2.421   3.746 -0.2705  0.5928  0.1082
 9601TIP3    H150218   6.390   2.462   3.705 -0.3028 -0.5947 -1.1718
 9601TIP3    H250219   6.271   2.372   3.676 -1.9472  0.8199  0.9202
 9602TIP3   OH250220   4.306   1.101  16.571 -0.5242 -0.6562 -0.6614
 9602TIP3    H150221   4.395   1.131  16.557 -0.8185  0.6880  0.1529
 9602TIP3    H250222   4.303   1.015  16.530  0.7864 -0.2052 -1.7680
 9603TIP3   OH250223   0.916   5.678   1.923  0.3053 -0.3543 -0.2199
 9603TIP3    H150224   0.866   5.725   1.857  0.2872  1.8246  1.2373
 9603TIP3    H250225   0.851   5.652   1.988  0.5816 -0.7448 -0.0962
 9604TIP3   OH250226   6.765   3.511  16.680  0.2063 -0.0703  0.5165
 9604TIP3    H150227   6.749   3.596  16.638 -1.7346 -1.0555 -0.8799
 9604TIP3    H250228   6.737   3.524  16.771 -2.0779  0.2679 -0.1749
 9605TIP3   OH250229   5.811   4.606   5.567  0.8748 -0.8452  0.1692
 9605TIP3    H150230   5.828   4.693   5.531  1.2650 -1.0839 -0.2358
 9605TIP3    H250231   5.792   4.552   5.491 -2.3228 -0.5119  0.6135
 9606TIP3   OH250232   6.661   5.167   5.325 -0.4284  0.3467  0.6235
 9606TIP3    H150233   6.602   5.102   5.364 -1.6653 -0.5478 -2.4807
 9606TIP3    H250234   6.627   5.251   5.355 -1.1375 -0.2853  1.6747
 9607TIP3   OH250235   3.228   4.106   2.009  0.0540  0.0820  0.3175
 9607TIP3    H150236   3.202   4.195   1.985 -1.4432 -0.8676 -1.8227
 9607TIP3    H250237   3.166   4.081   2.077 -0.7561  0.0122 -0.4331
 9608TIP3   OH250238   6.080   0.570  16.582 -0.2828 -0.0060 -0.4346
 9608TIP3    H150239   6.147   0.579  16.650 -0.9323  0.9546  0.0917
 9608TIP3    H250240   6.004   0.534  16.627  0.0033 -1.5684 -1.1279
 9609TIP3   OH250241   1.940   0.579   4.951  0.0730  0.5127 -0.1555
 9609TIP3    H150242   1.915   0.504   5.004 -0.9931  0.5401 -0.5964
 9609TIP3    H250243   1.933   0.654   5.011  0.1807  0.3781  0.0249
 9610TIP3   OH250244   2.021   2.564   3.184  0.0721 -0.6047  0.2146
 9610TIP3    H150245   2.069   2.484   3.207  1.5643  0.4981  1.0860
 9610TIP3    H250246   2.085   2.634   3.193 -1.2050  0.7091 -0.5406
 9611TIP3   OH250247   2.857   0.238  15.337  0.2608  0.0798 -0.1573
 9611TIP3    H150248   2.763   0.249  15.327  0.5648  1.2067 -2.8462
 9611TIP3    H250249   2.886   0.315  15.386 -0.2272 -0.4713  1.0252
 9612TIP3   OH250250   0.470   0.234  16.833 -0.0624  0.4714 -0.1763
 9612TIP3    H150251   0.385   0.239  16.789 -1.0813  1.0074  1.7319
 9612TIP3    H250252   0.449   0.199  16.919  1.8339 -0.3910 -0.0364
 9613TIP3   OH250253   1.084   1.950   0.295  0.2643 -0.0071 -0.9077
 9613TIP3    H150254   0.996   1.975   0.321 -0.0366 -1.0970 -0.8182
 9613TIP3    H250255   1.140   2.021   0.326 -0.3136 -0.3073  0.9623
 9614TIP3   OH250256   6.420   6.638  11.358  0.2588  0.0081 -0.4196
 9614TIP3    H150257   6.513   6.618  11.374  0.2820  0.7327  0.4507
 9614TIP3    H250258   6.373   6.564  11.395  0.5163 -1.3248 -2.5631
 9615TIP3   OH250259   2.929   0.038   5.720 -0.2896 -0.4214  0.7826
 9615TIP3    H150260   2.936  -0.034   5.658 -1.6806  0.5445 -0.5871
 9615TIP3    H250261   2.980   0.010   5.796  0.8401 -1.9795 -0.4768
 9616TIP3   OH250262   0.363   6.439   3.335  0.7619  0.3844  0.0095
 9616TIP3    H150263   0.386   6.370   3.397  1.1052 -0.4747 -1.0318
 9616TIP3    H250264   0.372   6.520   3.384  0.3641 -0.3088  1.2638
 9617TIP3   OH250265   4.385   2.955   0.719  0.4300  0.3994  0.4258
 9617TIP3    H150266   4.370   2.905   0.799  0.2038 -0.3004 -0.0498
 9617TIP3    H250267   4.297   2.981   0.690  0.6082  2.1831  1.3548
 9618TIP3   OH250268   5.002   6.133  11.242  0.4737 -0.3211  0.2096
 9618TIP3    H150269   5.066   6.188  11.286 -0.0027  1.2080 -0.9371
 9618TIP3    H250270   5.052   6.083  11.178  0.7592 -0.4597  0.5378
 9619TIP3   OH250271   5.679   1.505  15.600  0.1031  0.5596  0.3680
 9619TIP3    H150272   5.625   1.545  15.669 -1.1778  1.4735 -1.1093
 9619TIP3    H250273   5.687   1.573  15.533 -1.4342 -1.2934 -1.8647
 9620TIP3   OH250274   5.738   3.938   5.973 -0.3413 -0.2162 -0.1916
 9620TIP3    H150275   5.665   3.882   6.000 -0.6159  0.4261  0.4397
 9620TIP3    H250276   5.809   3.916   6.033  0.0170 -0.9104 -0.8687
 9621TIP3   OH250277   3.962   4.042   0.813  0.1625 -0.4079  0.1189
 9621TIP3    H150278   3.929   3.969   0.760  2.9962 -0.5418 -1.6682
 9621TIP3    H250279   3.903   4.114   0.794 -1.2879 -1.5536  0.0458
 9622TIP3   OH250280   5.954   2.019   2.763  0.0158  0.0696 -0.1726
 9622TIP3    H150281   5.926   1.928   2.755  0.0224  0.0063  0.4271
 9622TIP3    H250282   5.894   2.068   2.708 -0.4685 -0.2164  0.0932
 9623TIP3   OH250283   1.927   1.052   3.696  0.0544  0.3020  0.1686
 9623TIP3    H150284   1.872   1.130   3.698 -0.7872 -0.2646 -0.6379
 9623TIP3    H250285   1.912   1.013   3.610  0.9533 -0.4141  0.3174
 9624TIP3   OH250286   2.417   1.614  14.854  0.1323 -0.2501 -0.5317
 9624TIP3    H150287   2.507   1.583  14.842  0.7371  0.7290  1.1818
 9624TIP3    H250288   2.419   1.706  14.829 -0.8098 -0.5752 -2.0026
 9625TIP3   OH250289   5.726   3.025   5.878 -0.1970 -0.5428 -0.4130
 9625TIP3    H150290   5.738   2.938   5.916 -1.0607 -0.3017  0.4618
 9625TIP3    H250291   5.637   3.023   5.842 -0.0446 -0.1746 -0.8151
 9626TIP3   OH250292   1.432   6.057   5.940 -0.3029 -0.3200  0.4950
 9626TIP3    H150293   1.429   6.145   5.978 -1.2962 -0.0738 -0.1220
 9626TIP3    H250294   1.524   6.032   5.945  0.1437  1.1187 -0.1329
 9627TIP3   OH250295   1.680   1.969  14.124  0.3033 -0.0174  0.0866
 9627TIP3    H150296   1.647   1.985  14.213 -0.8318 -0.6791 -0.1976
 9627TIP3    H250297   1.729   1.887  14.131  2.5975  1.2831  0.6518
 9628TIP3   OH250298   6.268   5.442   0.536  0.0154 -0.0293 -0.0547
 9628TIP3    H150299   6.177   5.413   0.526 -0.2909  0.4018  1.2229
 9628TIP3    H250300   6.318   5.389   0.475 -1.0490 -0.5337 -0.5066
 9629TIP3   OH250301   6.496   0.531   0.842  0.5182 -0.4828  0.4822
 9629TIP3    H150302   6.571   0.516   0.900 -0.4070  1.5200  2.3679
 9629TIP3    H250303   6.423   0.543   0.902 -0.6341  1.0241 -1.1432
 9630TIP3   OH250304   2.999   6.759  16.207  0.2514 -0.2915  0.0581
 9630TIP3    H150305   3.040   6.832  16.160 -0.1350 -0.6458 -0.8623
 9630TIP3    H250306   3.018   6.682  16.154 -2.4447 -0.3285 -1.0306
 9631TIP3   OH250307   5.392   2.555  15.469 -0.5990 -0.2803  0.2027
 9631TIP3    H150308   5.346   2.613  15.529  1.3397  1.2022  0.3269
 9631TIP3    H250309   5.322   2.510  15.421 -2.1565  0.6310  1.5297
 9632TIP3   OH250310   5.181   3.750   3.335  0.6145  0.2041 -0.1737
 9632TIP3    H150311   5.264   3.759   3.383  0.1984 -0.5725  0.7176
 9632TIP3    H250312   5.119   3.801   3.385 -0.1352 -1.6957  0.9272
 9633TIP3   OH250313   4.188   5.567  14.033 -0.0405  0.7744 -0.0484
 9633TIP3    H150314   4.116   5.517  14.072  0.1697 -0.5975 -1.3271
 9633TIP3    H250315   4.180   5.550  13.939  0.6121  2.4298 -0.4322
 9634TIP3   OH250316   1.070   3.433   1.216  0.1454  0.3357  0.0337
 9634TIP3    H150317   0.977   3.451   1.206  0.2014  0.7791  0.2954
 9634TIP3    H250318   1.110   3.463   1.135  0.0431 -0.0141 -0.1514
 9635TIP3   OH250319   4.386   2.287  13.190 -0.3366  0.2743  0.8882
 9635TIP3    H150320   4.418   2.359  13.244  0.5410 -0.3487  1.2325
 9635TIP3    H250321   4.430   2.209  13.225 -0.3000 -0.2523 -0.2624
 9636TIP3   OH250322   5.188   3.077   1.778 -0.0001 -0.0210  0.1860
 9636TIP3    H150323   5.129   3.014   1.819 -0.7224  0.8618  0.5260
 9636TIP3    H250324   5.139   3.159   1.776  1.0060  0.5977 -0.0499
 9637TIP3   OH250325   1.881   0.598   4.606 -0.0535 -0.3651 -0.1552
 9637TIP3    H150326   1.870   0.689   4.633 -2.5774  0.1655 -2.5002
 9637TIP3    H250327   1.837   0.547   4.673 -0.5102  0.3316  0.0789
 9638TIP3   OH250328   6.783   1.813  15.651 -0.0819  0.1895 -0.4191
 9638TIP3    H150329   6.799   1.830  15.559 -0.4688  2.9513 -0.0747
 9638TIP3    H250330   6.703   1.761  15.652  0.1477 -0.2139 -1.6521
 9639TIP3   OH250331   3.645   4.029  12.480 -0.5478  0.3812 -0.6430
 9639TIP3    H150332   3.645   4.066  12.392 -2.6998  2.1806  0.0061
 9639TIP3    H250333   3.711   4.079  12.528 -0.4078  0.4229 -0.8809
 9640TIP3   OH250334   0.961   2.446   4.969 -0.2720 -0.2743 -0.5295
 9640TIP3    H150335   0.916   2.503   5.031 -0.5092 -1.3647  0.3161
 9640TIP3    H250336   1.032   2.501   4.934 -0.4489  0.5148  0.3126
 9641TIP3   OH250337   1.075   4.595   2.716  0.1302 -0.0304 -0.1569
 9641TIP3    H150338   1.130   4.626   2.644  0.5112 -1.8228 -0.6846
 9641TIP3    H250339   1.099   4.503   2.727 -1.6435 -0.4508  0.6536
 9642TIP3   OH250340   1.404   2.834   6.717  0.2249 -0.1725  0.6471
 9642TIP3    H150341   1.411   2.782   6.636  2.1471  1.0784 -0.0631
 9642TIP3    H250342   1.310   2.839   6.734 -0.6388  2.1829 -3.3674
 9643TIP3   OH250343   0.411   6.351  15.188 -0.0206 -0.4646  0.0014
 9643TIP3    H150344   0.439   6.429  15.235 -0.4965 -0.2412 -0.0791
 9643TIP3    H250345   0.488   6.323  15.139  0.4334 -0.6100  0.7878
 9644TIP3   OH250346   3.774   1.914   0.820  0.1447 -0.2945 -0.1844
 9644TIP3    H150347   3.683   1.910   0.849 -0.0606 -0.7031 -0.8709
 9644TIP3    H250348   3.811   1.829   0.844  0.8705  0.5031  1.7313
 9645TIP3   OH250349   3.678   2.004  15.840  0.3233 -0.1687  0.0808
 9645TIP3    H150350   3.614   1.977  15.906  0.6386  0.3855  0.6154
 9645TIP3    H250351   3.664   2.098  15.830 -1.5525 -0.6095 -2.6125
 9646TIP3   OH250352   1.096   5.232   5.958  0.1910  0.3198 -0.3581
 9646TIP3    H150353   1.053   5.315   5.936 -0.0767 -0.0475 -1.3250
 9646TIP3    H250354   1.177   5.257   6.001 -0.5387  1.0517  0.6543
 9647TIP3   OH250355   4.517   5.422  11.147 -0.0136 -0.1625 -0.4231
 9647TIP3    H150356   4.440   5.451  11.098 -2.0463 -0.1437  2.5326
 9647TIP3    H250357   4.573   5.500  11.151 -0.2676  0.1208 -1.7643
 9648TIP3   OH250358   0.686   5.834   4.155 -0.8581  0.7337 -0.3052
 9648TIP3    H150359   0.705   5.747   4.117 -0.0806  0.7776 -0.0324
 9648TIP3    H250360   0.666   5.816   4.247  0.4240  0.9362  0.0389
 9649TIP3   OH250361   2.801   3.397  11.315 -0.0281  0.0670 -0.2529
 9649TIP3    H150362   2.815   3.338  11.241 -1.3727 -2.1290  1.1190
 9649TIP3    H250363   2.856   3.473  11.296  1.9165 -1.6568 -2.0869
 9650TIP3   OH250364   3.254   6.778   3.699 -0.3718 -0.1328  0.4528
 9650TIP3    H150365   3.269   6.683   3.690 -0.4754 -0.0402 -0.9952
 9650TIP3    H250366   3.244   6.792   3.793  0.5383 -1.4254  0.7750
 9651TIP3   OH250367   0.916   4.538   1.195 -0.1889  0.2695  0.1161
 9651TIP3    H150368   0.878   4.616   1.236 -0.2252  1.3322 -1.7989
 9651TIP3    H250369   1.009   4.558   1.188  0.0737 -0.5649  1.0425
 9652TIP3   OH250370   1.132   4.227   3.252  0.0362 -0.4369 -0.0598
 9652TIP3    H150371   1.067   4.172   3.208  0.0087  0.1465 -0.7682
 9652TIP3    H250372   1.095   4.244   3.338 -0.8831  0.1095 -0.5479
 9653TIP3   OH250373   2.203   6.441   2.605  0.2763  0.0499 -0.6367
 9653TIP3    H150374   2.218   6.387   2.683  0.3013  1.0544  0.0699
 9653TIP3    H250375   2.108   6.454   2.603  0.3156  0.3673 -0.5297
 9654TIP3   OH250376   0.843   4.642   5.664 -0.4910 -0.1066 -0.2558
 9654TIP3    H150377   0.800   4.649   5.579 -1.6497  0.7189  0.3593
 9654TIP3    H250378   0.788   4.582   5.714 -0.4783  0.3145  0.2776
 9655TIP3   OH250379   3.423   4.098  11.030 -0.1067  0.0751 -0.1829
 9655TIP3    H150380   3.411   4.146  10.948 -0.5096 -0.6226 -0.5401
 9655TIP3    H250381   3.498   4.041  11.013  0.3657  0.5639  0.2379
 9656TIP3   OH250382   1.324   1.365   2.832 -0.2563 -0.1278  0.1943
 9656TIP3    H150383   1.333   1.368   2.927 -1.5022 -0.7112  0.3633
 9656TIP3    H250384   1.276   1.445   2.810 -0.4112 -0.2347  0.1330
 9657TIP3   OH250385   3.577   3.451   4.871 -1.0009 -0.2233  0.3433
 9657TIP3    H150386   3.517   3.387   4.833 -1.6409  1.4395 -1.6690
 9657TIP3    H250387   3.610   3.500   4.795 -0.3395  1.6475  1.7641
 9658TIP3   OH250388   1.352   4.843   0.867  0.0323  0.2783  0.0546
 9658TIP3    H150389   1.365   4.913   0.802  1.4715 -0.0640 -0.0617
 9658TIP3    H250390   1.283   4.789   0.830 -1.7114  2.0634  0.5298
 9659TIP3   OH250391   0.644   3.352   3.223 -0.1129 -0.0260  0.4643
 9659TIP3    H150392   0.650   3.288   3.152  2.6182  0.4437  0.1274
 9659TIP3    H250393   0.583   3.313   3.286  0.0454 -2.0945 -0.5627
 9660TIP3   OH250394   0.766   5.878  12.620  0.1725 -0.4767  0.4455
 9660TIP3    H150395   0.704   5.941  12.583 -0.0313 -0.6979  0.4094
 9660TIP3    H250396   0.820   5.852  12.546  0.3621 -0.2247  0.4927
 9661TIP3   OH250397   1.138   3.323  16.474 -0.1337 -0.1810  0.2546
 9661TIP3    H150398   1.062   3.317  16.416 -0.1758  1.4773  0.1055
 9661TIP3    H250399   1.101   3.321  16.562 -0.4539  1.5586  0.1789
 9662TIP3   OH250400   4.381   3.096   6.455 -0.6963  0.3305 -0.4182
 9662TIP3    H150401   4.356   3.025   6.395  0.2186 -0.3652 -0.0005
 9662TIP3    H250402   4.378   3.175   6.401 -0.4807 -0.2026 -1.2323
 9663TIP3   OH250403   4.785   5.146  14.908 -0.2811  0.5038 -0.2596
 9663TIP3    H150404   4.713   5.158  14.845  1.7818  3.9435 -2.2710
 9663TIP3    H250405   4.860   5.122  14.854  1.7571  4.3342  0.5324
 9664TIP3   OH250406   6.226   5.783   4.090 -0.0912 -0.2636 -0.1695
 9664TIP3    H150407   6.145   5.829   4.071  0.4491  1.6705  1.8262
 9664TIP3    H250408   6.295   5.841   4.056  0.5303 -1.1028 -0.3846
 9665TIP3   OH250409   2.889   0.285   3.358  0.8342  0.2925 -0.0354
 9665TIP3    H150410   2.814   0.343   3.366  0.8907  0.1823  1.5995
 9665TIP3    H250411   2.858   0.213   3.303 -0.3832  0.0724  0.9001
 9666TIP3   OH250412   5.097   4.331  13.727 -0.4830 -0.3279 -0.4833
 9666TIP3    H150413   5.041   4.406  13.749 -0.6019 -0.7250  0.6536
 9666TIP3    H250414   5.039   4.255  13.733 -0.1216 -0.6150 -0.5531
 9667TIP3   OH250415   3.109   4.609  12.331  0.1136  0.3551 -0.3570
 9667TIP3    H150416   3.164   4.563  12.267  0.5616 -0.9269  0.8878
 9667TIP3    H250417   3.036   4.644  12.280  1.2174  0.6821 -1.7932
 9668TIP3   OH250418   2.466   1.147  13.960  0.0437  0.0201 -0.4632
 9668TIP3    H150419   2.444   1.169  14.051 -1.2259  0.1023 -0.7633
 9668TIP3    H250420   2.405   1.077  13.937  2.1463 -1.9299 -0.4246
 9669TIP3   OH250421   0.115   3.311   3.772 -0.4464 -0.3990  0.1123
 9669TIP3    H150422   0.113   3.398   3.811  1.0207 -0.2174 -0.1408
 9669TIP3    H250423   0.027   3.297   3.738 -0.6447  1.0705 -0.0230
 9670TIP3   OH250424   6.697   4.111   4.649  0.8442 -0.1960  0.4158
 9670TIP3    H150425   6.614   4.147   4.621  0.5441 -1.1850 -0.0194
 9670TIP3    H250426   6.736   4.179   4.703  1.1541  1.5294 -1.8526
 9671TIP3   OH250427   6.293   2.631  14.965  0.1090 -0.1405 -0.9678
 9671TIP3    H150428   6.217   2.635  14.907 -0.3284  0.0683 -0.3849
 9671TIP3    H250429   6.355   2.574  14.920  0.2686  0.9640 -2.2154
 9672TIP3   OH250430   2.769   3.355  12.472  0.4571 -0.5678  0.0106
 9672TIP3    H150431   2.850   3.403  12.454  0.4233 -0.3779  0.3617
 9672TIP3    H250432   2.773   3.279  12.414  1.4777 -1.2298  0.9002
 9673TIP3   OH250433   6.245   4.941  16.467 -0.4913  0.5448  0.0958
 9673TIP3    H150434   6.222   4.949  16.374 -1.5336 -1.3965  0.1471
 9673TIP3    H250435   6.325   4.993  16.476  0.0776  0.1323 -2.0625
 9674TIP3   OH250436   2.839   5.542   6.434 -0.4089  0.9997  0.0310
 9674TIP3    H150437   2.757   5.580   6.465 -1.2230  0.2832 -1.1609
 9674TIP3    H250438   2.833   5.547   6.339  0.7682  0.6014 -0.0725
 9675TIP3   OH250439   1.772   6.145  16.150 -0.0450  0.2749  0.3089
 9675TIP3    H150440   1.831   6.079  16.114  0.4339  0.0312  1.4860
 9675TIP3    H250441   1.685   6.108  16.140  0.1277 -0.0283 -0.0968
 9676TIP3   OH250442   3.176   3.704   4.678  0.0448  0.1039  0.4490
 9676TIP3    H150443   3.254   3.741   4.637  0.4403 -0.7116  0.4351
 9676TIP3    H250444   3.112   3.775   4.678  0.5576  0.5759 -0.1774
 9677TIP3   OH250445   5.297   3.290   5.056 -0.0851  0.7321  0.1764
 9677TIP3    H150446   5.383   3.250   5.072 -0.2017 -0.0185 -0.9251
 9677TIP3    H250447   5.261   3.303   5.143  2.1452  3.4291  0.8396
 9678TIP3   OH250448   0.077   3.183  15.896  0.4511  0.5447 -0.7412
 9678TIP3    H150449   0.156   3.195  15.948  0.9531 -1.8355 -0.8673
 9678TIP3    H250450   0.053   3.272  15.868  1.5292  1.6242  1.4957
 9679TIP3   OH250451   1.886   0.522  11.138 -0.2463 -0.1044  0.4880
 9679TIP3    H150452   1.966   0.569  11.161 -0.1601 -0.1744  0.3251
 9679TIP3    H250453   1.821   0.592  11.127 -0.3825 -0.0848  1.3052
 9680TIP3   OH250454   3.317   2.536   0.635 -0.3001 -0.8635  0.0038
 9680TIP3    H150455   3.250   2.583   0.585 -1.4791 -0.9044  1.4760
 9680TIP3    H250456   3.319   2.581   0.720  3.0782  0.4835 -0.6566
 9681TIP3   OH250457   3.998   4.998   0.245 -0.1295 -0.6713 -0.1050
 9681TIP3    H150458   4.040   5.031   0.324  1.4950  2.6621 -2.1598
 9681TIP3    H250459   4.050   4.921   0.221  1.9835  0.6664 -0.0581
 9682TIP3   OH250460   3.036   3.106   5.353 -0.0718  0.6298 -0.0896
 9682TIP3    H150461   3.034   3.100   5.258  1.0067  0.4411 -0.1227
 9682TIP3    H250462   3.125   3.136   5.373 -0.2942  0.6992  0.8502
 9683TIP3   OH250463   2.783   4.198  10.373  0.6998 -0.2872  0.4567
 9683TIP3    H150464   2.734   4.279  10.386 -0.9593 -1.3193  0.8945
 9683TIP3    H250465   2.855   4.222  10.314  2.0908  2.1731  2.9282
 9684TIP3   OH250466   3.607   1.313   3.656 -0.0815 -0.3855  0.1197
 9684TIP3    H150467   3.550   1.259   3.603 -0.2633 -0.8487  0.7725
 9684TIP3    H250468   3.668   1.353   3.594  1.4838 -3.0483 -0.2016
 9685TIP3   OH250469   3.856   1.952   4.311 -0.3651  0.6675  0.2661
 9685TIP3    H150470   3.931   2.009   4.294 -0.2102  0.3875  0.0026
 9685TIP3    H250471   3.807   1.951   4.229 -1.0741  1.4488  0.6611
 9686TIP3   OH250472   0.958   3.181   5.507  0.3549  0.1110  0.4054
 9686TIP3    H150473   1.001   3.137   5.580 -0.1678 -0.7485  0.2105
 9686TIP3    H250474   0.905   3.112   5.465 -1.7889  1.2467  1.0639
 9687TIP3   OH250475   1.779   1.505  13.531 -0.4184  0.0867 -0.2524
 9687TIP3    H150476   1.696   1.492  13.485 -0.8367  0.7778  0.2809
 9687TIP3    H250477   1.839   1.535  13.463 -0.2289 -1.6303 -0.9058
 9688TIP3   OH250478   4.738   1.520   2.705 -0.6289 -0.1707  0.4090
 9688TIP3    H150479   4.676   1.491   2.771 -0.6465 -1.4771 -0.1495
 9688TIP3    H250480   4.781   1.597   2.743 -3.3905  1.5137  0.3470
 9689TIP3   OH250481   6.796   3.409   1.239  0.1188  0.1117  0.0924
 9689TIP3    H150482   6.756   3.404   1.152 -0.4893 -1.7735  0.4458
 9689TIP3    H250483   6.722   3.404   1.300  0.5436  1.3345  0.7467
 9690TIP3   OH250484   3.592   4.373  13.239 -0.7017 -0.7781  0.6601
 9690TIP3    H150485   3.660   4.440  13.231 -1.8321  0.1590 -1.8736
 9690TIP3    H250486   3.632   4.294  13.202 -1.0029 -0.1921 -0.9676
 9691TIP3   OH250487   6.779   3.945   1.434  0.0933  0.0617 -0.1529
 9691TIP3    H150488   6.698   3.992   1.455  0.5642  0.4010  0.9782
 9691TIP3    H250489   6.839   4.014   1.405 -0.5742 -0.4061 -2.9088
 9692TIP3   OH250490   0.121   3.723   6.532  0.2244  0.3525  0.2008
 9692TIP3    H150491   0.214   3.729   6.511  0.0624 -0.7298 -0.9890
 9692TIP3    H250492   0.119   3.694   6.623  1.0441  0.6618  0.3273
 9693TIP3   OH250493   1.384   6.341   6.072 -0.3473 -0.3119  0.3995
 9693TIP3    H150494   1.438   6.286   6.128 -0.4295  2.0720  2.9918
 9693TIP3    H250495   1.403   6.431   6.099 -1.8916  0.8929 -2.0779
 9694TIP3   OH250496   2.684   2.584   5.009  0.1851 -0.2165 -0.8937
 9694TIP3    H150497   2.680   2.656   5.073  2.5834  0.3094 -1.2358
 9694TIP3    H250498   2.640   2.511   5.053 -1.7212  1.2243 -0.2620
 9695TIP3   OH250499   4.786   6.154  16.324  0.0213 -0.0108  0.3120
 9695TIP3    H150500   4.761   6.144  16.232  1.4951  0.1465 -0.1294
 9695TIP3    H250501   4.779   6.066  16.360 -1.1263  0.0215  0.2252
 9696TIP3   OH250502   1.095   4.302  14.804 -0.1319 -0.5571  0.1872
 9696TIP3    H150503   1.011   4.342  14.784  0.2245  0.0475 -0.1209
 9696TIP3    H250504   1.107   4.316  14.898 -0.0437  0.0030  0.0957
 9697TIP3   OH250505   0.078   4.495   4.253  0.1911 -0.2531 -0.0606
 9697TIP3    H150506   0.030   4.575   4.275  0.5096 -0.4096  1.3348
 9697TIP3    H250507   0.023   4.425   4.287  0.7685 -0.5110  0.3506
 9698TIP3   OH250508   2.332   3.363  14.078  0.0062 -0.1162  0.0635
 9698TIP3    H150509   2.364   3.446  14.112  0.4799 -0.6002  0.8188
 9698TIP3    H250510   2.242   3.381  14.050  0.3555  0.8368 -0.5068
 9699TIP3   OH250511   2.951   6.348  14.659  0.1886  0.7030 -0.0926
 9699TIP3    H150512   3.016   6.305  14.604 -0.2382 -0.7460  0.5002
 9699TIP3    H250513   2.909   6.411  14.600  0.4093 -0.1135 -1.1623
 9700TIP3   OH250514   1.909   4.376  14.421 -0.2943  0.4033 -0.0350
 9700TIP3    H150515   1.818   4.355  14.402  0.3153 -0.3313 -2.5053
 9700TIP3    H250516   1.952   4.376  14.336  2.2292 -0.2106  1.1391
 9701TIP3   OH250517   0.842   0.372   1.520 -0.2649  0.6220 -0.1946
 9701TIP3    H150518   0.893   0.385   1.440 -0.5388 -1.0700 -0.6697
 9701TIP3    H250519   0.764   0.325   1.492  0.6002 -1.8867  1.3235
 9702TIP3   OH250520   4.778   2.395  16.390 -0.2103  0.0722 -0.0062
 9702TIP3    H150521   4.804   2.431  16.305 -0.8300  0.9568  0.1705
 9702TIP3    H250522   4.807   2.304  16.386 -0.5028  0.0109 -1.2909
 9703TIP3   OH250523   3.182   5.885   5.358 -0.3853 -0.1564  0.2087
 9703TIP3    H150524   3.207   5.969   5.321 -0.1004 -0.9572 -1.5481
 9703TIP3    H250525   3.113   5.853   5.299  1.2977 -2.2722 -0.7551
 9704TIP3   OH250526   3.498   3.145  12.839  0.2675  0.2528 -0.0944
 9704TIP3    H150527   3.471   3.170  12.750 -1.1220 -1.4081 -0.1937
 9704TIP3    H250528   3.470   3.054  12.848  1.9559 -0.1751  1.4550
 9705TIP3   OH250529   2.792   1.805   1.066 -0.2002 -0.1399  0.1737
 9705TIP3    H150530   2.852   1.798   1.141 -1.6027 -0.5419  1.3147
 9705TIP3    H250531   2.783   1.899   1.051  1.1906 -0.0847 -0.4316
 9706TIP3   OH250532   2.114   2.801   4.332  0.6760 -0.7367 -0.1903
 9706TIP3    H150533   2.084   2.769   4.416  0.5722 -1.0922 -0.3604
 9706TIP3    H250534   2.202   2.764   4.323  0.7897 -0.4824 -0.1188
 9707TIP3   OH250535   3.370   4.176   3.040  0.1710 -0.8396  0.3127
 9707TIP3    H150536   3.292   4.229   3.026 -1.9312 -3.9167 -0.7083
 9707TIP3    H250537   3.417   4.180   2.956 -0.4855 -1.3125 -0.0883
 9708TIP3   OH250538   0.954   3.823   2.483  0.8595 -0.4412 -0.4585
 9708TIP3    H150539   0.915   3.849   2.567  1.6073 -1.4579  0.2140
 9708TIP3    H250540   1.042   3.860   2.486  0.9268 -0.5836 -0.7428
 9709TIP3   OH250541   2.036   6.354   0.734 -0.1290  0.2959  0.1344
 9709TIP3    H150542   2.098   6.305   0.788 -1.9936  1.4861  3.6928
 9709TIP3    H250543   2.055   6.446   0.754 -1.0838  0.7863 -1.0742
 9710TIP3   OH250544   1.454   4.224   3.928 -0.2674 -0.4578  0.1554
 9710TIP3    H150545   1.431   4.189   4.014 -0.7435 -0.4933  0.0169
 9710TIP3    H250546   1.520   4.163   3.893 -0.4658 -0.7372  0.2708
 9711TIP3   OH250547   5.728   5.534  14.764 -0.5873 -0.5647  0.6316
 9711TIP3    H150548   5.770   5.605  14.715  1.4055 -0.3771  2.4881
 9711TIP3    H250549   5.714   5.465  14.699 -1.3393  0.9801 -0.9237
 9712TIP3   OH250550   5.028   3.920   2.116 -0.4808  0.1021  0.0548
 9712TIP3    H150551   5.064   3.872   2.041 -1.0807  1.6906 -1.3291
 9712TIP3    H250552   4.933   3.918   2.102 -0.6084  0.2896  0.8692
 9713TIP3   OH250553   6.285   3.469   1.953  0.2879  0.2580 -0.0120
 9713TIP3    H150554   6.280   3.559   1.920  0.1039  0.1213 -0.3687
 9713TIP3    H250555   6.351   3.472   2.022  1.2830  0.3997 -0.9351
 9714TIP3   OH250556   5.632   1.874  13.583  0.2413  0.3769  0.0703
 9714TIP3    H150557   5.643   1.940  13.514 -1.4861  1.1473  0.4846
 9714TIP3    H250558   5.711   1.884  13.637  1.3855  0.0946 -1.4773
 9715TIP3   OH250559   0.033   4.467  16.195 -0.1227 -0.3985 -0.3131
 9715TIP3    H150560  -0.021   4.510  16.129 -1.9193 -1.1405  0.5966
 9715TIP3    H250561   0.090   4.536  16.228 -2.0277  1.0328  0.2022
 9716TIP3   OH250562   5.322   1.650   3.445 -0.6922  0.2194 -0.3520
 9716TIP3    H150563   5.283   1.581   3.499  0.9486 -0.8635 -0.4859
 9716TIP3    H250564   5.403   1.674   3.490 -0.3714  0.8366 -1.2152
 9717TIP3   OH250565   1.977   0.524   5.474 -0.0654  0.0380 -0.0493
 9717TIP3    H150566   1.883   0.507   5.473 -0.5427  2.1773  1.5713
 9717TIP3    H250567   1.986   0.609   5.430  1.0738  0.0654  0.2113
 9718TIP3   OH250568   1.564   1.265   0.294 -0.1229 -0.1286  0.2544
 9718TIP3    H150569   1.508   1.313   0.233 -0.0835 -0.5753 -0.1367
 9718TIP3    H250570   1.505   1.237   0.364 -0.0668  0.8712  0.7286
 9719TIP3   OH250571   3.227   5.848   3.885  0.3449  0.1256 -0.1692
 9719TIP3    H150572   3.318   5.848   3.916  0.6791 -2.2253 -0.8624
 9719TIP3    H250573   3.224   5.774   3.824 -1.9080  0.5330 -0.6274
 9720TIP3   OH250574   5.435   1.870   1.108  0.1144  0.3543 -0.4766
 9720TIP3    H150575   5.445   1.937   1.176  0.6983  0.1876 -0.3961
 9720TIP3    H250576   5.355   1.824   1.132  1.2541 -0.9062  1.1723
 9721TIP3   OH250577   0.415   5.023   5.186 -0.8356  0.7916  0.5373
 9721TIP3    H150578   0.376   5.020   5.274 -1.3919  2.8414  0.4021
 9721TIP3    H250579   0.347   4.985   5.129 -1.9764  2.6767  0.5569
 9722TIP3   OH250580   5.772   3.357   5.346  0.6168 -0.1045  0.1958
 9722TIP3    H150581   5.781   3.368   5.441  0.0702 -1.3511  0.4056
 9722TIP3    H250582   5.726   3.436   5.318  2.2287  1.0833  0.6914
 9723TIP3   OH250583   1.447   1.444   3.837 -0.0501 -0.0744 -0.8214
 9723TIP3    H150584   1.383   1.376   3.814 -0.5000  0.7771 -2.1816
 9723TIP3    H250585   1.423   1.470   3.926 -0.6748 -0.7879 -0.7694
 9724TIP3   OH250586   0.659   3.149   1.686  0.2535 -0.0440 -0.4321
 9724TIP3    H150587   0.654   3.187   1.598  0.0496 -0.7038 -0.7130
 9724TIP3    H250588   0.673   3.224   1.744  2.9419  0.2025 -1.2601
 9725TIP3   OH250589   0.740   1.215  11.890 -0.2447 -0.7333  0.4599
 9725TIP3    H150590   0.828   1.194  11.923  0.9779  0.6280 -1.6251
 9725TIP3    H250591   0.746   1.306  11.863 -1.3876 -1.3795 -2.3421
 9726TIP3   OH250592   6.269   0.029   1.121  0.3258 -0.3783 -0.2019
 9726TIP3    H150593   6.346   0.007   1.068  0.5233  2.0435 -1.0621
 9726TIP3    H250594   6.303   0.046   1.208  1.1057  2.1605 -0.9144
 9727TIP3   OH250595   6.462   2.784   5.670 -0.0378  0.0859  0.0934
 9727TIP3    H150596   6.531   2.719   5.659  0.0400 -0.3652  2.5964
 9727TIP3    H250597   6.389   2.736   5.708 -1.0483  0.9395 -0.6929
 9728TIP3   OH250598   4.838   4.638  12.976  0.1026 -0.8371 -0.6846
 9728TIP3    H150599   4.746   4.616  12.989  0.2874 -1.3651 -0.2420
 9728TIP3    H250600   4.878   4.557  12.945  0.0330 -0.0896 -2.9290
 9729TIP3   OH250601   0.672   1.406  14.925  0.2591  0.1112  0.1587
 9729TIP3    H150602   0.604   1.379  14.862 -0.6488  0.8570  0.7905
 9729TIP3    H250603   0.659   1.500  14.935  2.6748  0.6753 -1.1834
 9730TIP3   OH250604   2.803   6.273   4.840  0.0615 -0.5925 -0.1537
 9730TIP3    H150605   2.734   6.292   4.776 -0.4240 -1.6757  0.0199
 9730TIP3    H250606   2.757   6.234   4.914  0.6957  0.0638  0.6103
 9731TIP3   OH250607   3.688   5.501  11.515 -0.4878  0.0766  0.0198
 9731TIP3    H150608   3.774   5.540  11.500 -0.3130  0.8293  2.5333
 9731TIP3    H250609   3.705   5.424  11.569 -1.2701 -0.8518 -0.9945
 9732TIP3   OH250610   2.051   0.289   3.070  0.1738  0.3179  0.0725
 9732TIP3    H150611   2.053   0.312   3.163  0.2206  1.5946 -0.2281
 9732TIP3    H250612   2.050   0.193   3.069 -1.4242  0.2791  1.4299
 9733TIP3   OH250613   1.880   1.887  12.558 -0.0550  0.1217 -0.4611
 9733TIP3    H150614   1.941   1.931  12.498 -0.6275  1.3256 -0.1842
 9733TIP3    H250615   1.793   1.904  12.521 -0.3543  0.1279  0.2394
 9734TIP3   OH250616   4.490   6.592   2.353 -0.1564 -0.2186 -0.2393
 9734TIP3    H150617   4.543   6.571   2.276  0.8384 -2.0502  0.8959
 9734TIP3    H250618   4.407   6.623   2.316  0.2028 -1.2500 -2.0663
 9735TIP3   OH250619   4.177   5.068  15.151  0.3138  0.4036  0.0038
 9735TIP3    H150620   4.122   5.055  15.228 -2.5437  2.4965 -1.5162
 9735TIP3    H250621   4.146   5.002  15.089  1.2498  0.0262 -0.0849
 9736TIP3   OH250622   3.087   1.975  15.389  0.2821  0.2067  0.4758
 9736TIP3    H150623   3.159   2.029  15.422  0.4053 -1.1343  2.5464
 9736TIP3    H250624   3.010   2.006  15.438  0.0516 -0.4401  0.5249
 9737TIP3   OH250625   4.388   2.300  14.287 -0.0068  0.0272  0.3279
 9737TIP3    H150626   4.369   2.206  14.278  1.4150 -0.2211 -0.3513
 9737TIP3    H250627   4.420   2.308  14.377  0.0992 -0.1844  0.3116
 9738TIP3   OH250628   2.425   3.414   0.708  0.0826 -0.5580 -0.5957
 9738TIP3    H150629   2.399   3.464   0.631  2.0538  0.5287 -0.6136
 9738TIP3    H250630   2.497   3.359   0.678  0.8463 -0.1565  0.4274
 9739TIP3   OH250631   5.679   0.429   5.787  0.1632  0.2619  0.2487
 9739TIP3    H150632   5.775   0.433   5.793  0.1643  1.2902 -0.2258
 9739TIP3    H250633   5.660   0.336   5.782  1.0601 -0.0198  1.4807
 9740TIP3   OH250634   3.226   1.084   2.124  0.2835 -0.1275  0.2088
 9740TIP3    H150635   3.321   1.080   2.128  0.2417 -0.5329  0.8107
 9740TIP3    H250636   3.196   0.999   2.156 -0.2762 -0.1561 -0.3528
 9741TIP3   OH250637   2.679   4.204  16.026 -0.3324  0.4206  0.0622
 9741TIP3    H150638   2.746   4.137  16.044 -1.1970 -0.8116 -1.1354
 9741TIP3    H250639   2.612   4.158  15.977 -2.1499  1.5988  1.3204
 9742TIP3   OH250640   1.371   0.313   5.476 -0.0358  0.3775 -0.0874
 9742TIP3    H150641   1.325   0.335   5.557 -1.2251  0.0320 -0.6379
 9742TIP3    H250642   1.440   0.253   5.503 -0.3457  0.3560  0.6866
 9743TIP3   OH250643   2.674   6.177   2.528  0.2082  0.2278 -0.0024
 9743TIP3    H150644   2.751   6.151   2.478 -0.8501 -1.4568 -0.8753
 9743TIP3    H250645   2.672   6.272   2.522  2.7776  0.4297  0.9659
 9744TIP3   OH250646   0.349   3.827  12.998 -0.2624  0.0816 -0.1232
 9744TIP3    H150647   0.309   3.882  12.931 -0.5351  1.6526  1.2601
 9744TIP3    H250648   0.410   3.885  13.044  1.3660 -1.4621 -0.2309
 9745TIP3   OH250649   6.807   2.471  13.694 -0.4254 -0.0542 -0.0564
 9745TIP3    H150650   6.736   2.532  13.718  0.8170  1.4709 -0.0895
 9745TIP3    H250651   6.762   2.397  13.653 -2.1094  0.2037  1.1958
 9746TIP3   OH250652   4.319   5.843  16.329 -0.5674 -0.2591 -0.2514
 9746TIP3    H150653   4.334   5.921  16.383 -2.0435  0.4652 -0.8129
 9746TIP3    H250654   4.370   5.858  16.250  1.4984 -1.2633  0.8082
 9747TIP3   OH250655   5.785   5.792   3.113  0.5593  0.5975 -0.0435
 9747TIP3    H150656   5.708   5.802   3.169 -2.0873  0.7657 -3.4321
 9747TIP3    H250657   5.817   5.881   3.099 -0.8300  0.9244 -1.3684
 9748TIP3   OH250658   6.699   4.357   4.387 -0.0670  0.1644 -0.8241
 9748TIP3    H150659   6.728   4.382   4.475 -0.9215 -2.3199  0.2707
 9748TIP3    H250660   6.643   4.429   4.358 -0.4244  0.6759  1.0178
 9749TIP3   OH250661   5.366   5.286   3.950 -0.0877 -0.8190  0.4617
 9749TIP3    H150662   5.433   5.257   3.889 -0.0040  1.2846 -0.5344
 9749TIP3    H250663   5.408   5.282   4.036  0.2071 -2.6040  0.2728
 9750TIP3   OH250664   6.416   0.342   5.987 -0.9259 -0.0595  0.4895
 9750TIP3    H150665   6.362   0.293   6.049  0.0001 -0.0063  1.3597
 9750TIP3    H250666   6.467   0.275   5.941 -1.4733 -0.0848 -0.0903
 9751TIP3   OH250667   1.760   0.228  16.716  0.2956 -0.3353 -0.2877
 9751TIP3    H150668   1.696   0.300  16.719  0.0158 -0.6098  1.3665
 9751TIP3    H250669   1.771   0.203  16.808  2.1921 -0.8274 -0.6113
 9752TIP3   OH250670   4.380   0.056  12.687 -0.9260  0.3999 -0.0579
 9752TIP3    H150671   4.454   0.074  12.629  0.8998  0.2834  2.0751
 9752TIP3    H250672   4.320   0.129  12.674  0.1960  1.2042 -0.8960
 9753TIP3   OH250673   1.258   1.693   0.117  0.1679 -0.2157  0.4816
 9753TIP3    H150674   1.244   1.787   0.105  0.0095 -0.2766  0.1558
 9753TIP3    H250675   1.197   1.653   0.055  2.1599 -0.4886 -1.4246
 9754TIP3   OH250676   6.341   2.157  13.535 -0.0243  0.7534  0.4702
 9754TIP3    H150677   6.317   2.154  13.443 -1.9581 -0.4647  0.9703
 9754TIP3    H250678   6.410   2.091  13.544  0.2265  0.9334 -0.1073
 9755TIP3   OH250679   3.828   5.964  16.564 -0.1282  0.0795  0.5184
 9755TIP3    H150680   3.854   5.879  16.529  2.0074  0.4619  1.0214
 9755TIP3    H250681   3.790   5.944  16.649 -0.9257 -0.4695  0.0429
 9756TIP3   OH250682   0.281   6.091  11.244  0.4098 -0.6068 -0.3639
 9756TIP3    H150683   0.323   6.022  11.194 -0.9238 -1.2559 -0.6164
 9756TIP3    H250684   0.324   6.172  11.215 -0.0639 -1.0000 -2.3042
 9757TIP3   OH250685   3.671   3.223  15.099  0.2949 -0.2240  0.0141
 9757TIP3    H150686   3.655   3.279  15.176 -0.7553 -2.1320  1.2557
 9757TIP3    H250687   3.702   3.284  15.032  0.5607  1.6319  1.7148
 9758TIP3   OH250688   0.299   6.784   5.665  0.1172  0.2966  0.3632
 9758TIP3    H150689   0.217   6.738   5.683 -0.3275  1.1278  0.5322
 9758TIP3    H250690   0.325   6.822   5.749  0.3808  0.4980  0.1938
 9759TIP3   OH250691   1.450   3.669  16.395 -0.4350  0.2212  0.2046
 9759TIP3    H150692   1.416   3.581  16.379 -1.7722  0.7820 -0.2060
 9759TIP3    H250693   1.477   3.700  16.308 -1.1707  0.6785  0.1302
 9760TIP3   OH250694   5.341   6.805   0.237 -0.1247  0.1777  0.1395
 9760TIP3    H150695   5.363   6.841   0.151 -2.1677  2.5218  0.4558
 9760TIP3    H250696   5.302   6.720   0.219 -0.6972  0.7243 -1.3120
 9761TIP3   OH250697   6.347   2.664   2.225  0.1285 -0.7056 -0.0880
 9761TIP3    H150698   6.262   2.690   2.189  0.5048  3.7028  1.6200
 9761TIP3    H250699   6.325   2.615   2.304 -0.9170  0.2983  0.2792
 9762TIP3   OH250700   5.788   4.486   5.312 -0.4768  0.4555 -0.3667
 9762TIP3    H150701   5.838   4.408   5.334  0.0345  1.1211  0.8797
 9762TIP3    H250702   5.700   4.453   5.293 -0.2433 -0.4276  0.0452
 9763TIP3   OH250703   2.322   5.308  16.298  0.3473 -0.0318  0.4035
 9763TIP3    H150704   2.226   5.306  16.295  0.3128  0.0362  1.1774
 9763TIP3    H250705   2.348   5.357  16.220 -0.2843  0.7214  0.6538
 9764TIP3   OH250706   1.531   1.623  17.079 -0.1943 -0.2659 -0.5260
 9764TIP3    H150707   1.537   1.718  17.085  1.2033 -0.3906  1.1530
 9764TIP3    H250708   1.441   1.602  17.101 -0.6850  0.6870 -1.5627
 9765TIP3   OH250709   3.081   5.919  16.719  0.1101 -0.0034  0.1222
 9765TIP3    H150710   3.120   5.991  16.670  0.3393 -1.1238 -1.4178
 9765TIP3    H250711   3.020   5.961  16.779 -0.6209  1.4142 -1.5273
 9766TIP3   OH250712   3.411   5.933  12.172  0.3232 -0.0715  0.1955
 9766TIP3    H150713   3.482   5.997  12.177  0.1418  0.2310 -0.8679
 9766TIP3    H250714   3.446   5.862  12.118 -0.1784  0.0970 -0.3633
 9767TIP3   OH250715   0.180   1.445  14.206  0.1782  0.7203 -0.4340
 9767TIP3    H150716   0.103   1.447  14.148 -0.1943  0.2679  0.0401
 9767TIP3    H250717   0.164   1.514  14.270 -1.8125 -1.8558  2.1230
 9768TIP3   OH250718   2.196   3.604   3.050  0.4007  0.8273  1.2000
 9768TIP3    H150719   2.186   3.578   3.141  1.1514  0.5163  1.2080
 9768TIP3    H250720   2.246   3.532   3.010 -4.5617 -1.9634 -0.8820
 9769TIP3   OH250721   5.958   2.365   4.090  0.1114  0.3140  0.1915
 9769TIP3    H150722   5.878   2.417   4.090  1.0912  1.9345 -1.4805
 9769TIP3    H250723   6.022   2.421   4.134  0.4883 -0.7421  1.0289
 9770TIP3   OH250724   2.238   5.726  16.997  0.1001  0.1255 -0.7432
 9770TIP3    H150725   2.285   5.777  17.064  1.4358 -1.0454 -0.7381
 9770TIP3    H250726   2.150   5.714  17.033  0.4925  0.3897  0.3424
 9771TIP3   OH250727   4.669   3.062  13.974 -0.3426 -0.2280 -0.5025
 9771TIP3    H150728   4.658   3.119  13.898 -0.4781 -0.9339 -1.0272
 9771TIP3    H250729   4.611   2.987  13.956 -1.2663  0.1300  0.8369
 9772TIP3   OH250730   3.034   3.892  16.346  0.0527  0.0214  0.7084
 9772TIP3    H150731   3.006   3.837  16.273  1.7402 -0.2040  0.1773
 9772TIP3    H250732   2.954   3.913  16.393 -0.8918 -1.0604 -0.3584
 9773TIP3   OH250733   6.269   6.017   0.567  0.1095 -0.2369  0.0436
 9773TIP3    H150734   6.238   6.051   0.483  0.3259 -2.8676 -1.2157
 9773TIP3    H250735   6.358   5.986   0.549  0.0748 -1.0602  1.1670
 9774TIP3   OH250736   5.401   1.308   4.332  0.2092  0.7962  0.0303
 9774TIP3    H150737   5.495   1.311   4.316 -0.0586  0.4743 -1.8216
 9774TIP3    H250738   5.362   1.340   4.251 -1.2839  1.5461  0.9963
 9775TIP3   OH250739   2.701   6.313   3.637  0.1898 -0.2830 -0.0440
 9775TIP3    H150740   2.703   6.247   3.706  3.5443  0.4909  0.7782
 9775TIP3    H250741   2.759   6.279   3.569 -1.0197  0.1426 -1.3354
 9776TIP3   OH250742   2.556   6.672  11.337  0.4011 -0.1887  0.4728
 9776TIP3    H150743   2.645   6.661  11.371  0.4415 -4.8508 -0.4637
 9776TIP3    H250744   2.499   6.655  11.412  0.3351 -0.1148  0.4400
 9777TIP3   OH250745   5.330   1.085  14.026  0.0720 -0.0981 -0.2157
 9777TIP3    H150746   5.270   1.020  14.063  1.1987 -0.8268  0.3795
 9777TIP3    H250747   5.381   1.036  13.962 -0.9930  0.8733 -1.8581
 9778TIP3   OH250748   1.648   0.532  14.100  0.0334  0.3080 -0.1780
 9778TIP3    H150749   1.644   0.532  14.195 -0.0669 -2.4435 -0.0886
 9778TIP3    H250750   1.565   0.492  14.073  0.4438  0.2256 -1.3685
 9779TIP3   OH250751   6.778   4.148  13.777 -0.6666  0.1575 -0.1670
 9779TIP3    H150752   6.694   4.189  13.798  0.1601  2.2062 -0.6231
 9779TIP3    H250753   6.831   4.161  13.856 -0.2565  0.3464 -0.4723
 9780TIP3   OH250754   4.135   4.208   0.021  0.6917 -0.5330  0.8424
 9780TIP3    H150755   4.117   4.154  -0.056  2.4577 -2.6248  1.7697
 9780TIP3    H250756   4.084   4.168   0.091  0.3297  0.3824  1.1183
 9781TIP3   OH250757   2.136   4.813  16.381  0.3575  0.7872  0.4285
 9781TIP3    H150758   2.096   4.749  16.439 -1.2722  0.2199 -1.2190
 9781TIP3    H250759   2.212   4.846  16.429 -0.3043 -0.4263  2.3867
 9782TIP3   OH250760   1.598   0.171   2.879 -0.1686 -0.3069 -0.0335
 9782TIP3    H150761   1.509   0.206   2.873 -0.3215 -0.5426  0.7406
 9782TIP3    H250762   1.654   0.247   2.866 -0.4920  0.0475  0.6070
 9783TIP3   OH250763   5.550   2.351  10.431  0.4167 -0.5242 -0.2783
 9783TIP3    H150764   5.585   2.436  10.401  1.8762 -0.9909  0.0171
 9783TIP3    H250765   5.455   2.364  10.433  0.6018  1.1096 -0.2296
 9784TIP3   OH250766   2.382   1.609  12.944  0.2385  0.2189  0.4180
 9784TIP3    H150767   2.321   1.582  12.875 -0.5042  1.2461  0.6653
 9784TIP3    H250768   2.375   1.540  13.010 -1.3777  0.7807  0.8782
 9785TIP3   OH250769   1.834   6.784  10.941 -0.4664  0.2077  0.1546
 9785TIP3    H150770   1.871   6.797  11.028 -0.9675  0.8700  0.2787
 9785TIP3    H250771   1.908   6.798  10.881 -0.5357  1.7917  0.3823
 9786TIP3   OH250772   1.398   3.626   4.347  0.0834  0.3563  0.6506
 9786TIP3    H150773   1.391   3.589   4.436 -0.3890 -0.2670  0.3647
 9786TIP3    H250774   1.447   3.560   4.298 -0.2721  0.3696  0.2711
 9787TIP3   OH250775   5.111   3.358   5.828  0.3849  0.1489 -0.7108
 9787TIP3    H150776   5.140   3.268   5.812  1.1532  0.5140 -1.4434
 9787TIP3    H250777   5.191   3.410   5.826 -0.0834  0.8845 -0.5392
 9788TIP3   OH250778   5.766   5.926   0.381 -0.0975  0.3533  0.0766
 9788TIP3    H150779   5.695   5.871   0.413  1.1304 -0.4936  1.4227
 9788TIP3    H250780   5.825   5.866   0.336 -0.1388  1.0372 -0.9477
 9789TIP3   OH250781   3.663   4.019  12.767 -0.1000  0.3629  0.4986
 9789TIP3    H150782   3.720   3.964  12.714 -1.5891 -0.6250 -0.1183
 9789TIP3    H250783   3.618   3.958  12.826  0.3751  1.2678  1.8669
 9790TIP3   OH250784   6.452   3.556  10.818 -0.3801 -0.5756 -0.2428
 9790TIP3    H150785   6.511   3.483  10.839 -1.2184 -1.5252 -1.0822
 9790TIP3    H250786   6.372   3.514  10.787 -0.4754  0.6967 -1.8605
 9791TIP3   OH250787   1.201   4.551   1.012  0.5685  0.1403 -0.3246
 9791TIP3    H150788   1.121   4.536   0.962  0.6681  2.8469 -1.4374
 9791TIP3    H250789   1.269   4.562   0.946  1.4057  0.2407  0.5404
 9792TIP3   OH250790   1.695   0.181  14.932  0.3186  0.3128 -0.4291
 9792TIP3    H150791   1.700   0.181  14.837  2.0261 -1.3665 -0.4033
 9792TIP3    H250792   1.601   0.174  14.951  0.0768 -2.4681 -2.0880
 9793TIP3   OH250793   3.377   6.175   4.817  0.7448 -0.3622  0.5052
 9793TIP3    H150794   3.409   6.266   4.810 -2.0777  0.9979  3.0072
 9793TIP3    H250795   3.354   6.151   4.728  1.6817  1.3468 -0.2494
 9794TIP3   OH250796   3.748   2.172   5.589 -0.0289  0.1705 -0.3315
 9794TIP3    H150797   3.673   2.213   5.631  0.0456  0.8072 -0.8028
 9794TIP3    H250798   3.717   2.086   5.561 -0.6528  0.5239 -0.7438
 9795TIP3   OH250799   3.137   0.968  16.238  0.0056 -0.9723 -0.3710
 9795TIP3    H150800   3.044   0.969  16.220 -0.4111  1.7962  1.3508
 9795TIP3    H250801   3.143   0.981  16.333  2.1231 -0.8811 -0.4661
 9796TIP3   OH250802   6.299   1.432  16.222 -0.2801  0.0935 -0.4332
 9796TIP3    H150803   6.389   1.452  16.249  0.1940 -2.9994  0.6676
 9796TIP3    H250804   6.298   1.448  16.128  1.3836  0.2918 -0.4445
 9797TIP3   OH250805   2.115   1.527   2.265  0.2630  0.0500 -0.2994
 9797TIP3    H150806   2.110   1.500   2.173  1.5919 -0.8725 -0.1393
 9797TIP3    H250807   2.165   1.609   2.263  0.4668 -0.0753 -0.3907
 9798TIP3   OH250808   0.224   5.824   5.142 -0.3795  0.2866 -0.0527
 9798TIP3    H150809   0.231   5.889   5.211  0.8870 -0.7081  0.7915
 9798TIP3    H250810   0.288   5.757   5.164 -2.9007 -2.2605  0.1881
 9799TIP3   OH250811   0.727   5.828  14.701 -0.7814  0.6762  0.1182
 9799TIP3    H150812   0.681   5.853  14.621 -0.6530  1.6303  0.3269
 9799TIP3    H250813   0.681   5.874  14.771 -0.5089  0.3517  0.5175
 9800TIP3   OH250814   2.564   6.416   0.886  0.4385 -0.3398 -0.0608
 9800TIP3    H150815   2.554   6.457   0.972  0.7397 -0.2860 -0.0534
 9800TIP3    H250816   2.480   6.371   0.872 -0.2177  0.9688 -0.4403
 9801TIP3   OH250817   1.997   4.931  15.135  0.0334  0.0860  0.0965
 9801TIP3    H150818   1.945   4.931  15.215 -1.0003  2.5251 -0.5058
 9801TIP3    H250819   2.088   4.938  15.165 -0.0657 -1.9149  1.0738
 9802TIP3   OH250820   3.745   0.150   0.035  0.1883  0.1630 -0.0790
 9802TIP3    H150821   3.782   0.203  -0.036 -1.2979  1.1932 -0.1404
 9802TIP3    H250822   3.747   0.208   0.111  0.4758 -0.4370  0.3715
 9803TIP3   OH250823   5.386   1.693  16.586  0.2189  0.4980  0.0813
 9803TIP3    H150824   5.409   1.659  16.673 -0.3614  1.1057  0.4838
 9803TIP3    H250825   5.423   1.629  16.525 -0.5680 -0.6940  0.8092
 9804TIP3   OH250826   5.947   0.485   2.128  0.0504  0.3771  0.4699
 9804TIP3    H150827   5.957   0.493   2.223  0.6043  1.2819  0.3467
 9804TIP3    H250828   5.854   0.501   2.112 -0.1716 -0.4420  0.9186
 9805TIP3   OH250829   4.378   0.544   0.779  0.1758  0.4341  0.4318
 9805TIP3    H150830   4.285   0.532   0.761  0.0610 -0.8987  1.7222
 9805TIP3    H250831   4.386   0.637   0.801 -0.8150  0.5967  0.1391
 9806TIP3   OH250832   2.941   1.499   5.612 -0.1881  0.1000 -0.6167
 9806TIP3    H150833   3.026   1.461   5.635 -0.8721  0.0650  2.2056
 9806TIP3    H250834   2.883   1.472   5.683 -1.6123  3.3398 -0.3955
 9807TIP3   OH250835   5.655   3.074   0.759  0.2173 -0.0414 -0.2455
 9807TIP3    H150836   5.599   3.149   0.737 -0.5796  0.0821  1.9410
 9807TIP3    H250837   5.619   3.001   0.710  0.4532  0.8032 -1.7156
 9808TIP3   OH250838   0.051   6.411  17.059 -0.4905 -0.7294  0.1441
 9808TIP3    H150839  -0.015   6.454  17.114 -0.5694 -1.4911  0.6468
 9808TIP3    H250840   0.135   6.439  17.096 -0.5116  0.1355 -0.4174
 9809TIP3   OH250841   6.683   2.014  14.186  0.5091  0.1407  0.0476
 9809TIP3    H150842   6.631   1.936  14.207  0.0174  0.1151 -1.2137
 9809TIP3    H250843   6.630   2.061  14.122  0.7785  1.5493  0.8105
 9810TIP3   OH250844   0.541   2.956   0.345 -0.3075 -0.0050  0.0141
 9810TIP3    H150845   0.571   2.901   0.273 -0.2504 -0.6702  0.5369
 9810TIP3    H250846   0.617   3.009   0.369 -0.2889  0.1224 -0.3198
 9811TIP3   OH250847   4.102   3.142  12.568  0.2179  0.1402  0.2953
 9811TIP3    H150848   4.061   3.200  12.504 -1.4513 -0.1435  1.0556
 9811TIP3    H250849   4.051   3.062  12.565  0.2615  0.0172  1.7745
 9812TIP3   OH250850   6.479   3.340   3.872  0.0003 -0.2605  0.2433
 9812TIP3    H150851   6.421   3.380   3.808  0.1448  0.6045  0.6350
 9812TIP3    H250852   6.465   3.391   3.952  0.8470 -0.4352  0.5105
 9813TIP3   OH250853   4.721   5.400  15.193  0.1192  0.0370 -0.1819
 9813TIP3    H150854   4.729   5.493  15.213 -0.2690 -0.0088  0.2058
 9813TIP3    H250855   4.653   5.369  15.253  0.3426 -0.5228 -0.2165
 9814TIP3   OH250856   2.373   2.714   2.132  0.1210 -0.0889 -0.1321
 9814TIP3    H150857   2.287   2.754   2.126  0.5382  0.8687  0.0108
 9814TIP3    H250858   2.357   2.627   2.169 -0.7920  0.0135 -0.2675
 9815TIP3   OH250859   2.783   0.180   4.134 -0.0171 -0.6090 -0.7129
 9815TIP3    H150860   2.721   0.209   4.201  2.0438  0.9454  0.6381
 9815TIP3    H250861   2.784   0.251   4.070 -0.5055 -1.1841 -1.3681
 9816TIP3   OH250862   1.552   3.529  13.896  0.0770 -0.4519 -0.2337
 9816TIP3    H150863   1.628   3.563  13.848 -0.2851 -1.0980 -1.3217
 9816TIP3    H250864   1.590   3.484  13.971  0.6596  0.6867  0.1746
 9817TIP3   OH250865   5.620   5.380  16.521 -0.1955 -0.8211  0.3306
 9817TIP3    H150866   5.607   5.471  16.493  0.6783 -1.3369 -2.0062
 9817TIP3    H250867   5.542   5.359  16.572 -0.4509  1.1983  0.8513
 9818TIP3   OH250868   3.640   0.144   4.414 -0.4638  0.2995  0.2872
 9818TIP3    H150869   3.613   0.106   4.497 -2.4236  0.3367 -0.2721
 9818TIP3    H250870   3.583   0.220   4.403 -2.1348 -1.1616 -2.2545
 9819TIP3   OH250871   2.501   4.269   5.731  0.2500 -0.9118 -0.3498
 9819TIP3    H150872   2.409   4.242   5.741 -0.2945  1.2128  0.8248
 9819TIP3    H250873   2.550   4.210   5.789 -0.5308 -1.2162  0.0126
 9820TIP3   OH250874   0.812   0.640  13.509  0.4462  0.1182 -0.2593
 9820TIP3    H150875   0.889   0.584  13.524  1.2687  0.8172 -1.6267
 9820TIP3    H250876   0.845   0.711  13.453 -1.7061 -0.8417 -2.9224
 9821TIP3   OH250877   0.491   3.727   5.415  0.5474  0.2685  0.0348
 9821TIP3    H150878   0.584   3.714   5.434  0.7796  0.7188 -0.7497
 9821TIP3    H250879   0.452   3.747   5.500  1.5671  2.3473  0.0767
 9822TIP3   OH250880   5.608   2.473  16.696  0.4171  0.6198  0.4022
 9822TIP3    H150881   5.584   2.464  16.788 -1.5162  1.2724 -0.0019
 9822TIP3    H250882   5.534   2.518  16.655  1.5143  0.9622 -1.3558
 9823TIP3   OH250883   2.083   6.673   3.227 -0.8021  0.1437 -0.6411
 9823TIP3    H150884   2.178   6.679   3.214 -0.4917 -0.0495  1.2426
 9823TIP3    H250885   2.047   6.746   3.176  0.3522  0.2183 -1.3778
 9824TIP3   OH250886   6.599   1.929   5.146  0.1824  0.0274 -0.2752
 9824TIP3    H150887   6.582   2.000   5.208 -1.4093  0.6100 -1.3119
 9824TIP3    H250888   6.524   1.931   5.086  0.6027 -1.8772 -0.9478
 9825TIP3   OH250889   5.462   2.782   3.403  0.1278 -0.5125  0.4188
 9825TIP3    H150890   5.490   2.870   3.429  0.9749  0.1580 -2.3779
 9825TIP3    H250891   5.382   2.766   3.453  0.6864  1.2934  1.9865
 9826TIP3   OH250892   4.767   0.650   4.643  0.1611 -0.3801  0.9111
 9826TIP3    H150893   4.705   0.714   4.607  0.8103  0.9948  2.0966
 9826TIP3    H250894   4.737   0.566   4.610 -0.1117  0.6221 -1.6253
 9827TIP3   OH250895   4.230   4.822  12.711  0.2315 -0.3194 -0.5627
 9827TIP3    H150896   4.195   4.909  12.728  2.0047  0.3562 -0.0932
 9827TIP3    H250897   4.322   4.827  12.739  0.3102 -2.4298 -0.2262
 9828TIP3   OH250898   1.304   0.213   2.910 -0.0012  0.3599 -0.8265
 9828TIP3    H150899   1.289   0.292   2.858 -3.0984  0.0179 -0.6629
 9828TIP3    H250900   1.238   0.217   2.979  0.1142 -2.0673 -0.4898
 9829TIP3   OH250901   1.425   2.213   2.633  0.0332 -0.0537 -0.2761
 9829TIP3    H150902   1.479   2.274   2.583 -1.1757  1.3744  0.0737
 9829TIP3    H250903   1.453   2.226   2.724  0.1026 -0.3820 -0.2504
 9830TIP3   OH250904   0.475   1.991   2.810 -0.5417 -0.4597  0.2003
 9830TIP3    H150905   0.472   2.057   2.741 -1.2490  1.7730  2.1887
 9830TIP3    H250906   0.392   1.945   2.803 -1.1864  0.6403  0.3101
 9831TIP3   OH250907   0.006   0.879   3.631 -0.1771 -0.1465 -0.2843
 9831TIP3    H150908   0.039   0.805   3.682 -0.2408  0.7225  1.0534
 9831TIP3    H250909  -0.075   0.846   3.590 -0.2172 -0.8111  0.3156
 9832TIP3   OH250910   5.582   2.291   3.986  1.0652 -0.0599 -0.0604
 9832TIP3    H150911   5.630   2.354   3.931  1.1937  0.0056  0.1277
 9832TIP3    H250912   5.632   2.210   3.978  1.0901 -0.0475 -0.0297
 9833TIP3   OH250913   4.121   5.239   0.354 -0.1382  0.4778 -0.0957
 9833TIP3    H150914   4.165   5.187   0.421 -0.1756  0.8509  0.2192
 9833TIP3    H250915   4.161   5.211   0.271  2.5566  2.6118  0.3621
 9834TIP3   OH250916   4.994   4.857  10.538  0.0679  0.4096  0.1465
 9834TIP3    H150917   5.074   4.804  10.537 -0.7091 -0.8095  0.1634
 9834TIP3    H250918   4.925   4.795  10.560 -0.9854  1.2952 -0.5450
 9835TIP3   OH250919   2.016   3.670  12.859  0.0386  0.1819  0.5725
 9835TIP3    H150920   1.987   3.757  12.831  0.8417  0.0519 -0.7336
 9835TIP3    H250921   1.939   3.632  12.902 -1.4101  0.2882 -1.7350
 9836TIP3   OH250922   4.783   0.900  11.409 -0.7022 -0.0927 -0.9283
 9836TIP3    H150923   4.786   0.932  11.499 -1.2884 -0.2003 -0.8712
 9836TIP3    H250924   4.713   0.950  11.368 -0.2873  0.1217 -1.3919
 9837TIP3   OH250925   4.456   6.450   5.992  0.1376  0.0195  0.3759
 9837TIP3    H150926   4.393   6.514   5.960  0.8811  0.6934  0.2363
 9837TIP3    H250927   4.403   6.373   6.015 -1.0493  1.4232  2.6374
 9838TIP3   OH250928   0.864   3.545  13.248  0.8295  0.3097 -0.3357
 9838TIP3    H150929   0.834   3.559  13.158 -0.2769 -0.1240 -0.0515
 9838TIP3    H250930   0.904   3.628  13.273  1.4011  0.3458 -1.3171
 9839TIP3   OH250931   0.314   6.420  14.481  0.0609 -0.3142  0.0322
 9839TIP3    H150932   0.376   6.363  14.435  1.1257  0.2866  0.6700
 9839TIP3    H250933   0.336   6.409  14.574 -1.8930 -1.3333  0.4325
 9840TIP3   OH250934   4.295   4.778  12.186 -0.6164 -0.2008  0.1953
 9840TIP3    H150935   4.232   4.838  12.147  0.2713 -0.0297 -1.0361
 9840TIP3    H250936   4.370   4.832  12.208 -0.7184 -0.4743  1.2526
 9841TIP3   OH250937   2.563   5.998  11.273 -0.8355 -0.6296  0.4730
 9841TIP3    H150938   2.502   6.063  11.239 -0.5649  0.0219  1.1946
 9841TIP3    H250939   2.541   5.917  11.227 -0.7031  0.1329 -0.9761
 9842TIP3   OH250940   2.623   1.344  14.662  0.3020  0.7450 -0.0681
 9842TIP3    H150941   2.543   1.294  14.678  0.2602  0.7329 -0.3169
 9842TIP3    H250942   2.646   1.325  14.571  0.8686  0.3577  0.1516
 9843TIP3   OH250943   0.608   0.355   0.207 -0.3076 -0.6604 -0.1641
 9843TIP3    H150944   0.652   0.354   0.292  1.3153  3.3544 -0.7185
 9843TIP3    H250945   0.644   0.280   0.160  1.5961 -0.7984  1.4077
 9844TIP3   OH250946   1.066   1.502  15.435 -0.5064 -0.4741 -0.0313
 9844TIP3    H150947   1.100   1.441  15.370 -0.3778 -1.1908  0.6894
 9844TIP3    H250948   1.010   1.449  15.492  0.5205 -0.1751  1.3047
 9845TIP3   OH250949   1.390   4.953  15.606 -0.3901  0.3143 -0.4627
 9845TIP3    H150950   1.418   4.866  15.576  2.9512  1.2134 -0.3248
 9845TIP3    H250951   1.394   4.947  15.702  2.1733  1.2115 -0.4620
 9846TIP3   OH250952   4.481   6.750  13.894  0.2129 -0.2392  0.3490
 9846TIP3    H150953   4.460   6.806  13.968 -2.4463 -0.4936 -0.1175
 9846TIP3    H250954   4.440   6.792  13.819  0.5888 -1.3348 -0.5020
 9847TIP3   OH250955   5.438   3.492   2.129 -0.4040 -0.2239  0.5363
 9847TIP3    H150956   5.477   3.422   2.181  2.1607  0.4461 -0.3349
 9847TIP3    H250957   5.363   3.451   2.085  0.3433 -2.0855  0.9388
 9848TIP3   OH250958   5.835   3.076   3.423 -0.0172 -0.2683 -0.3961
 9848TIP3    H150959   5.869   3.164   3.441  0.3899 -0.2950 -0.9929
 9848TIP3    H250960   5.913   3.020   3.421 -0.2982 -0.6921  0.2310
 9849TIP3   OH250961   0.865   3.859   2.232  0.1705 -0.0551  0.1553
 9849TIP3    H150962   0.897   3.842   2.320 -0.8599 -0.2022  0.5150
 9849TIP3    H250963   0.779   3.818   2.229 -0.8985  2.0577 -0.0924
 9850TIP3   OH250964   3.222   0.943  11.724 -0.4484 -0.2191  0.2897
 9850TIP3    H150965   3.299   0.998  11.714 -0.6388  0.1539  0.8571
 9850TIP3    H250966   3.148   1.000  11.704 -0.5441 -0.8407 -1.2815
 9851TIP3   OH250967   5.653   3.519  12.861 -0.4407  0.6958  0.3979
 9851TIP3    H150968   5.743   3.550  12.875 -0.0401  0.9304 -2.1860
 9851TIP3    H250969   5.603   3.555  12.934  1.5853  0.3689  2.0345
 9852TIP3   OH250970   5.798   5.743   5.720  0.2900 -0.0995  0.0823
 9852TIP3    H150971   5.755   5.682   5.660  1.9881 -1.1266 -0.1559
 9852TIP3    H250972   5.738   5.817   5.726 -0.0217  0.0154 -2.7976
 9853TIP3   OH250973   4.709   4.848  13.606  0.3049  0.0926  0.3527
 9853TIP3    H150974   4.763   4.877  13.680 -0.2546  1.7829  0.1538
 9853TIP3    H250975   4.655   4.778  13.641  0.3710  0.5651  1.4364
 9854TIP3   OH250976   6.649   5.069   4.958  0.2078 -0.2464  0.1759
 9854TIP3    H150977   6.580   5.054   5.022  0.4643  1.1048  0.7928
 9854TIP3    H250978   6.617   5.141   4.904  0.2697 -0.9487 -0.8504
 9855TIP3   OH250979   6.454   4.666  12.472  0.0443  1.0590  0.1287
 9855TIP3    H150980   6.384   4.631  12.527 -0.2407 -0.8349 -1.3517
 9855TIP3    H250981   6.502   4.725  12.530 -1.9314  1.3570  1.5793
 9856TIP3   OH250982   4.753   1.239   5.635 -0.5345 -0.3862  0.2149
 9856TIP3    H150983   4.748   1.268   5.544 -2.2361  2.0026  0.9724
 9856TIP3    H250984   4.841   1.261   5.663 -0.4346  0.1181 -0.4723
 9857TIP3   OH250985   3.085   5.676   0.321  0.0269  0.1264 -0.1180
 9857TIP3    H150986   3.102   5.747   0.259 -1.5170  0.3097 -0.3903
 9857TIP3    H250987   3.117   5.708   0.405  0.2818  0.7191 -0.4378
 9858TIP3   OH250988   5.980   4.888   5.030  0.6559 -0.5410 -0.1234
 9858TIP3    H150989   5.997   4.878   5.124 -0.7059 -0.1109  0.1984
 9858TIP3    H250990   5.924   4.965   5.025  0.5409 -0.6924 -1.2784
 9859TIP3   OH250991   6.368   2.893  16.476  0.4733 -0.5007 -0.8729
 9859TIP3    H150992   6.383   2.946  16.398 -0.4039 -0.3713 -0.9589
 9859TIP3    H250993   6.278   2.913  16.502  0.8081 -0.4102  0.2704
 9860TIP3   OH250994   2.554   6.731  12.281  0.4940 -0.6511  0.3459
 9860TIP3    H150995   2.496   6.687  12.344  2.2379 -0.1104  2.4665
 9860TIP3    H250996   2.619   6.664  12.259  1.6729  0.0118  1.6067
 9861TIP3   OH250997   2.078   3.792  15.453 -0.0558 -0.1665  0.3437
 9861TIP3    H150998   1.987   3.796  15.481 -0.1633  1.9665 -0.1828
 9861TIP3    H250999   2.091   3.700  15.428 -2.4466 -0.2617 -0.8070
 9862TIP3   OH251000   3.787   4.511  12.043 -0.2501 -0.2951  0.0213
 9862TIP3    H151001   3.822   4.544  12.126  0.0827 -2.1844  0.6850
 9862TIP3    H251002   3.712   4.458  12.068 -0.9023  0.1202 -1.0159
 9863TIP3   OH251003   3.596   6.722   6.612 -0.2687 -0.3130  0.2106
 9863TIP3    H151004   3.560   6.809   6.597 -0.6335  0.4575  4.3468
 9863TIP3    H251005   3.520   6.663   6.603 -0.5297  0.0967 -0.2983
 9864TIP3   OH251006   4.758   1.582   1.482 -0.0413 -0.2510 -0.3865
 9864TIP3    H151007   4.754   1.488   1.465  1.4692 -1.0143  2.8218
 9864TIP3    H251008   4.843   1.609   1.446  1.0953 -0.9043  1.6829
 9865TIP3   OH251009   5.798   1.147  15.295 -0.4213 -0.4441  0.3107
 9865TIP3    H151010   5.706   1.136  15.271 -0.1574 -0.5095 -0.6964
 9865TIP3    H251011   5.809   1.242  15.303 -0.6003 -0.4413  0.5191
 9866TIP3   OH251012   2.511   2.898  14.921  0.5348  0.0495 -0.1878
 9866TIP3    H151013   2.423   2.859  14.922  0.5290 -0.0032 -1.4692
 9866TIP3    H251014   2.496   2.990  14.945  0.0476  0.1582 -0.8581
 9867TIP3   OH251015   0.592   5.594  14.256 -0.0192 -0.2495 -0.0009
 9867TIP3    H151016   0.514   5.543  14.237 -0.1410  0.1795 -0.7134
 9867TIP3    H251017   0.572   5.682  14.223 -0.0478  0.4327  1.7584
 9868TIP3   OH251018   5.477   0.924   3.018 -0.2763 -0.5809 -0.1609
 9868TIP3    H151019   5.474   0.859   2.948 -2.3118 -0.8995  0.1600
 9868TIP3    H251020   5.567   0.919   3.052  0.3777 -1.2999 -1.8920
 9869TIP3   OH251021   5.229   1.249   5.511 -0.4858 -0.6053 -0.0430
 9869TIP3    H151022   5.223   1.180   5.446 -0.7299 -0.2531 -0.4006
 9869TIP3    H251023   5.258   1.326   5.462 -0.6341 -0.3479  0.2663
 9870TIP3   OH251024   0.807   4.288  16.525 -0.7769 -0.0376  0.3037
 9870TIP3    H151025   0.817   4.363  16.585 -0.8770 -0.1161  0.4187
 9870TIP3    H251026   0.877   4.299  16.461 -0.8077  0.1703  0.3040
 9871TIP3   OH251027   5.524   2.854   0.550 -0.1012 -0.5699 -0.7045
 9871TIP3    H151028   5.454   2.797   0.581 -0.0981  0.2975  1.0165
 9871TIP3    H251029   5.485   2.904   0.479 -0.7101 -1.2607 -0.8685
 9872TIP3   OH251030   3.496   1.640  15.834  0.1815 -0.1468 -0.1328
 9872TIP3    H151031   3.503   1.579  15.908  1.2088  0.3297  0.1816
 9872TIP3    H251032   3.402   1.652  15.822 -0.0711 -2.3332 -0.6799
 9873TIP3   OH251033   1.541   4.018   2.530 -0.6290  0.0248 -0.0466
 9873TIP3    H151034   1.563   4.111   2.534  0.9911 -0.2649 -1.2365
 9873TIP3    H251035   1.537   3.998   2.436 -1.1396 -1.0786  0.1896
 9874TIP3   OH251036   5.767   1.460   0.380 -0.1953 -0.2791  0.2360
 9874TIP3    H151037   5.799   1.545   0.408  1.0204 -0.4826 -0.4691
 9874TIP3    H251038   5.734   1.419   0.461  0.3095  0.3808  0.7865
 9875TIP3   OH251039   0.141   3.584   3.829  0.5400  0.0134 -0.0698
 9875TIP3    H151040   0.225   3.628   3.813  0.7108  0.1280  1.0665
 9875TIP3    H251041   0.079   3.630   3.772  1.0344  0.6473 -0.1077
 9876TIP3   OH251042   5.228   6.607  11.812 -0.5526  0.6051 -0.0556
 9876TIP3    H151043   5.315   6.626  11.847 -0.8367 -0.6742  1.4557
 9876TIP3    H251044   5.177   6.685  11.833 -0.5925  0.0669  2.0993
 9877TIP3   OH251045   6.414   4.862  16.882 -0.0739  0.0422 -0.4908
 9877TIP3    H151046   6.470   4.784  16.890 -0.7418 -0.7176 -2.6111
 9877TIP3    H251047   6.445   4.905  16.802 -0.4744  1.3579  0.0366
 9878TIP3   OH251048   0.242   0.575   1.869  0.0390  0.1909  0.1627
 9878TIP3    H151049   0.252   0.510   1.938  1.0868 -0.2327 -0.3718
 9878TIP3    H251050   0.271   0.658   1.909 -1.6303  0.4400  0.9536
 9879TIP3   OH251051   6.056   4.175  12.536 -0.0295  0.3465 -0.1058
 9879TIP3    H151052   6.142   4.164  12.495  0.0102  0.0511  0.0499
 9879TIP3    H251053   5.995   4.183  12.463  0.0547 -0.0615 -0.2233
 9880TIP3   OH251054   2.486   2.849  14.582  0.2055 -0.4452  0.4696
 9880TIP3    H151055   2.427   2.783  14.620  0.0673 -0.1210  0.8300
 9880TIP3    H251056   2.567   2.842  14.632 -0.4547  0.9483  1.8222
 9881TIP3   OH251057   4.250   5.271  13.722 -0.2024 -0.6520  0.0517
 9881TIP3    H151058   4.277   5.331  13.652 -2.1599  2.3648  1.6512
 9881TIP3    H251059   4.184   5.215  13.682 -0.1666 -0.0356 -0.9017
 9882TIP3   OH251060   0.248   4.889  16.782  0.2182 -0.3218 -0.0525
 9882TIP3    H151061   0.292   4.809  16.752 -0.4158 -0.5513 -0.4043
 9882TIP3    H251062   0.177   4.901  16.719 -0.0401  0.2001  0.3357
 9883TIP3   OH251063   2.241   2.107   1.526  0.7350 -0.0737 -0.4403
 9883TIP3    H151064   2.178   2.172   1.557  0.1501 -0.1142 -1.4878
 9883TIP3    H251065   2.319   2.121   1.580 -0.3663 -0.4438  1.3294
 9884TIP3   OH251066   3.429   4.557  16.585  0.1775  0.2497  0.1562
 9884TIP3    H151067   3.437   4.610  16.664 -1.3799  0.7683  0.0162
 9884TIP3    H251068   3.453   4.469  16.612  0.7614  0.6359  0.9154
 9885TIP3   OH251069   1.045   4.772   0.374 -0.2645  0.0413 -0.3185
 9885TIP3    H151070   0.983   4.760   0.446 -0.0859  0.4645 -0.0863
 9885TIP3    H251071   1.041   4.691   0.324 -0.3994 -0.2551  0.1672
 9886TIP3   OH251072   0.176   0.207   4.792  0.1340  0.2053 -0.6067
 9886TIP3    H151073   0.265   0.189   4.823  0.5185  1.1581 -1.1045
 9886TIP3    H251074   0.119   0.176   4.862  0.8456 -0.6815 -0.4110
 9887TIP3   OH251075   2.937   1.583  12.004  0.4639  0.2947  0.0736
 9887TIP3    H151076   2.974   1.513  12.056  0.2258  0.4680  0.4838
 9887TIP3    H251077   2.899   1.540  11.927  1.0436  0.0668 -0.0848
 9888TIP3   OH251078   4.130   2.474  12.682  0.0236  0.1355 -0.5426
 9888TIP3    H151079   4.051   2.470  12.628  0.5922  1.1994 -1.5123
 9888TIP3    H251080   4.180   2.547  12.645  0.8837  0.2806  0.8365
 9889TIP3   OH251081   3.380   0.294   2.760 -0.1477  0.1915 -0.1244
 9889TIP3    H151082   3.285   0.288   2.773  0.0221 -0.3903  0.9393
 9889TIP3    H251083   3.413   0.208   2.786  0.8432  0.9235  1.1499
 9890TIP3   OH251084   5.589   1.818  13.111 -0.0870  0.1380  0.2042
 9890TIP3    H151085   5.643   1.739  13.108 -2.7898 -1.9948  1.8326
 9890TIP3    H251086   5.638   1.879  13.166  1.7065 -0.7322 -0.3793
 9891TIP3   OH251087   5.494   6.328  12.790  0.3562 -0.1150  0.1953
 9891TIP3    H151088   5.493   6.424  12.780 -1.2914 -0.0302  0.8002
 9891TIP3    H251089   5.452   6.296  12.710  1.3893 -0.3895 -0.2556
 9892TIP3   OH251090   1.925   3.453   5.364  0.1905 -0.0731  0.3369
 9892TIP3    H151091   1.940   3.373   5.314 -0.3734 -0.3653  0.6212
 9892TIP3    H251092   1.885   3.514   5.302  0.1276 -0.1974  0.2562
 9893TIP3   OH251093   1.448   4.444  13.874 -0.0116 -0.4243 -0.1993
 9893TIP3    H151094   1.444   4.399  13.959 -4.6055 -0.4706 -0.1951
 9893TIP3    H251095   1.390   4.520  13.884 -0.6173 -0.3545 -3.2242
 9894TIP3   OH251096   4.225   5.185  14.259  0.0445 -0.5828  0.1255
 9894TIP3    H151097   4.194   5.274  14.270 -1.6740 -1.1847  0.3674
 9894TIP3    H251098   4.218   5.169  14.165 -1.0490 -0.9449  0.2644
 9895TIP3   OH251099   4.318   3.358  11.277 -0.5388  0.3639 -0.2347
 9895TIP3    H151100   4.223   3.368  11.283 -0.7766 -2.0670  2.5109
 9895TIP3    H251101   4.331   3.270  11.244  0.7944  0.7192 -0.7163
 9896TIP3   OH251102   0.615   1.907  16.976  0.2368  0.1908  0.2823
 9896TIP3    H151103   0.598   1.930  16.884  2.1052 -0.2775 -0.2203
 9896TIP3    H251104   0.630   1.812  16.974 -1.8170 -0.2226  1.4466
 9897TIP3   OH251105   4.126   3.429   1.685  1.4034 -0.1848  0.0065
 9897TIP3    H151106   4.052   3.395   1.736  2.1235 -2.1403 -0.1339
 9897TIP3    H251107   4.174   3.484   1.747 -0.2384  1.2764  0.0348
 9898TIP3   OH251108   3.580   0.513  11.015  0.6005 -0.1792  0.3112
 9898TIP3    H151109   3.508   0.527  10.954  2.7796 -1.1435 -2.7119
 9898TIP3    H251110   3.578   0.419  11.032  1.1098 -0.2001  0.2537
 9899TIP3   OH251111   5.332   0.315   2.801 -0.1273 -0.1143  0.6538
 9899TIP3    H151112   5.351   0.231   2.759  1.3075  0.7359 -0.4772
 9899TIP3    H251113   5.413   0.339   2.846 -0.5959  0.5522  1.1630
 9900TIP3   OH251114   6.379   0.012   4.862  0.0656 -0.4826  0.4433
 9900TIP3    H151115   6.364   0.099   4.899 -1.0392 -1.3937  2.2672
 9900TIP3    H251116   6.466  -0.013   4.894  0.4477 -0.0054 -0.2068
 9901TIP3   OH251117   3.583   3.647   5.093 -0.4992 -0.0324 -0.5286
 9901TIP3    H151118   3.514   3.682   5.037  0.2936  0.4902 -1.2056
 9901TIP3    H251119   3.596   3.557   5.062 -2.0550 -0.7407  0.7526
 9902TIP3   OH251120   2.841   5.242   3.121  0.4763 -0.3187  0.3884
 9902TIP3    H151121   2.786   5.280   3.190  1.4190  0.9633  0.4652
 9902TIP3    H251122   2.917   5.207   3.166  0.9932  0.3249  0.0365
 9903TIP3   OH251123   1.246   5.751  13.156  0.3458  0.3226  1.0189
 9903TIP3    H151124   1.340   5.738  13.144 -0.0845 -1.2999 -1.3225
 9903TIP3    H251125   1.221   5.690  13.225  1.0047  0.8092  1.6955
 9904TIP3   OH251126   1.898   3.703   3.320 -0.0703 -0.1984  0.2072
 9904TIP3    H151127   1.823   3.656   3.358  0.9326 -1.2131  0.9742
 9904TIP3    H251128   1.954   3.634   3.285  0.4576  0.5685 -0.4876
 9905TIP3   OH251129   5.108   6.676   5.870  0.4815 -0.1667  0.4455
 9905TIP3    H151130   5.105   6.688   5.965 -0.4001 -1.6530  0.6484
 9905TIP3    H251131   5.016   6.672   5.844  0.5696 -3.7115  0.1674
 9906TIP3   OH251132   1.064   6.586  10.453 -0.2727 -0.1480  0.0426
 9906TIP3    H151133   0.982   6.602  10.499  1.7561  1.1869  3.5345
 9906TIP3    H251134   1.093   6.500  10.485  0.3873  0.0354 -0.0485
 9907TIP3   OH251135   1.314   1.986  13.296  0.2552  0.6167  0.8683
 9907TIP3    H151136   1.224   2.009  13.321  0.2251  0.6052  0.7728
 9907TIP3    H251137   1.322   2.016  13.205 -0.0494 -0.4488  0.4692
 9908TIP3   OH251138   0.838   6.123  13.676  0.2781  0.1497 -0.3544
 9908TIP3    H151139   0.788   6.160  13.748  2.6876  0.8276  1.1063
 9908TIP3    H251140   0.915   6.084  13.717  1.8441  0.7056 -2.5359
 9909TIP3   OH251141   0.838   2.473  14.182  0.4465  0.0559  0.4615
 9909TIP3    H151142   0.790   2.406  14.231 -0.6390  0.9646  0.6957
 9909TIP3    H251143   0.784   2.491  14.106  2.4433 -1.8142 -1.5370
 9910TIP3   OH251144   0.421   5.377  14.882 -0.4403  0.8663 -0.5460
 9910TIP3    H151145   0.417   5.360  14.975  1.5018 -0.4234 -0.6416
 9910TIP3    H251146   0.420   5.291  14.841 -1.7002  1.4215 -1.7760
 9911TIP3   OH251147   6.498   1.424   4.945  0.0648  0.4757 -0.1467
 9911TIP3    H151148   6.541   1.366   5.008  0.5974  0.5984 -0.3879
 9911TIP3    H251149   6.513   1.512   4.981 -1.3009  0.4526  0.5651
 9912TIP3   OH251150   1.451   0.389   2.036 -0.0244 -0.4740  0.2215
 9912TIP3    H151151   1.514   0.405   1.966 -1.7029  1.5868 -0.9190
 9912TIP3    H251152   1.367   0.380   1.991 -1.1497  0.8841  1.9375
 9913TIP3   OH251153   4.241   0.944  12.542 -0.2002  0.0621 -0.2366
 9913TIP3    H151154   4.232   0.932  12.447  0.2494  0.2725 -0.3095
 9913TIP3    H251155   4.180   0.881  12.580  0.8043 -1.1878 -0.6272
 9914TIP3   OH251156   2.730   6.644  13.534 -0.3717  0.1820 -0.4867
 9914TIP3    H151157   2.704   6.649  13.625 -0.4392 -3.6041 -0.1428
 9914TIP3    H251158   2.804   6.582  13.533  1.3611  2.0799 -2.7467
 9915TIP3   OH251159   3.083   1.108  10.494  0.0278  0.4795  0.7342
 9915TIP3    H151160   3.032   1.177  10.451 -0.6820  0.7673  1.9897
 9915TIP3    H251161   3.173   1.140  10.493 -0.1511  0.9844  0.4402
 9916TIP3   OH251162   5.786   4.184   1.916  0.1581 -0.9980  0.3108
 9916TIP3    H151163   5.710   4.239   1.899 -0.0127 -1.6391 -1.2040
 9916TIP3    H251164   5.764   4.137   1.996 -0.7358 -0.6576  0.2813
 9917TIP3   OH251165   0.352   3.783   2.404 -0.5212 -0.5702  0.2710
 9917TIP3    H151166   0.367   3.719   2.474  0.0745 -1.2063 -0.4259
 9917TIP3    H251167   0.264   3.765   2.373  0.2472 -2.2486 -1.0948
 9918TIP3   OH251168   5.766   1.404  12.172  0.2129 -0.1754  0.5164
 9918TIP3    H151169   5.852   1.428  12.205  0.2734  0.5946 -0.1750
 9918TIP3    H251170   5.706   1.423  12.245  0.4983  0.2872  0.6344
 9919TIP3   OH251171   5.074   0.573   0.860  0.1719  0.0874  0.0094
 9919TIP3    H151172   5.014   0.524   0.805  1.8971  0.9194 -2.8329
 9919TIP3    H251173   5.161   0.543   0.834  1.1014  0.9106  1.9548
 9920TIP3   OH251174   5.507   3.180  17.005  0.5435  0.3031 -0.1864
 9920TIP3    H151175   5.570   3.250  17.024  1.4062 -0.5312  0.1290
 9920TIP3    H251176   5.561   3.106  16.977 -0.3641 -0.1862 -0.7092
 9921TIP3   OH251177   2.131   5.619  15.187  0.2151 -0.6024  0.1873
 9921TIP3    H151178   2.174   5.672  15.120 -1.2476  0.4709  0.0355
 9921TIP3    H251179   2.121   5.678  15.262 -1.6735 -0.5342 -0.0716
 9922TIP3   OH251180   0.837   6.380   3.112 -0.5437 -0.8237 -0.1808
 9922TIP3    H151181   0.909   6.347   3.166  0.0458 -0.2479 -0.5976
 9922TIP3    H251182   0.757   6.349   3.156 -0.1375  0.8085  1.8496
 9923TIP3   OH251183   3.679   1.887   3.203 -0.0192  0.0955  0.2222
 9923TIP3    H151184   3.748   1.883   3.137  0.9129  0.3266  1.1577
 9923TIP3    H251185   3.611   1.942   3.163  1.5888  2.3283  0.3517
 9924TIP3   OH251186   0.640   4.772  14.006  0.1612  0.2626  0.0619
 9924TIP3    H151187   0.652   4.689  14.052 -1.6750  0.2868  0.6711
 9924TIP3    H251188   0.639   4.838  14.076 -0.2916  0.5618 -0.2218
 9925TIP3   OH251189   3.772   6.413  15.355  0.5699 -0.4774  0.5831
 9925TIP3    H151190   3.695   6.418  15.299  1.4362  0.1055 -0.6041
 9925TIP3    H251191   3.822   6.340  15.320  0.4822 -0.9755  1.4652
 9926TIP3   OH251192   2.024   3.174  13.137 -1.0619 -0.8552 -0.0389
 9926TIP3    H151193   1.942   3.182  13.088 -0.7125 -1.1012 -0.6673
 9926TIP3    H251194   2.062   3.261  13.135 -0.2919 -1.2015 -1.5494
 9927TIP3   OH251195   6.624   1.633  13.101 -0.1302 -0.1564  0.5324
 9927TIP3    H151196   6.601   1.571  13.032 -1.3796 -0.0949  0.8600
 9927TIP3    H251197   6.543   1.642  13.152 -0.1995  2.2911  0.0783
 9928TIP3   OH251198   2.414   3.682   2.251  0.0946 -0.3585  0.8194
 9928TIP3    H151199   2.488   3.696   2.192  1.3860 -1.6112  2.0641
 9928TIP3    H251200   2.345   3.739   2.217  1.4314  0.4173 -0.7199
 9929TIP3   OH251201   0.358   3.437  15.286 -0.4560 -0.0534 -0.0444
 9929TIP3    H151202   0.269   3.470  15.299 -0.2071  0.7829 -0.4417
 9929TIP3    H251203   0.345   3.352  15.243 -1.1308 -0.9730  1.8546
 9930TIP3   OH251204   5.419   1.043   2.105  0.0249  0.1613 -0.2601
 9930TIP3    H151205   5.437   0.960   2.150  0.3075  0.4400  0.1549
 9930TIP3    H251206   5.341   1.026   2.053  1.2582 -1.0085 -1.8443
 9931TIP3   OH251207   5.204   1.340   0.295  0.6428  0.0659 -0.2886
 9931TIP3    H151208   5.222   1.360   0.203  2.9390  0.1307  0.1205
 9931TIP3    H251209   5.239   1.252   0.307  1.0263  0.3423  0.6918
 9932TIP3   OH251210   0.310   3.154  15.150 -0.0071  0.3705  0.1726
 9932TIP3    H151211   0.338   3.219  15.085 -0.0843 -0.2546 -0.4982
 9932TIP3    H251212   0.351   3.072  15.121 -1.5939 -0.3327 -0.1840
 9933TIP3   OH251213   2.063   0.148  11.875  0.5022  0.0576 -0.3189
 9933TIP3    H151214   1.991   0.119  11.932 -0.5815  0.6625 -1.3212
 9933TIP3    H251215   2.100   0.225  11.919 -1.2610  1.4050 -1.0511
 9934TIP3   OH251216   0.157   1.993  12.637 -0.0705 -0.3135  0.1357
 9934TIP3    H151217   0.200   1.921  12.590  2.0490  1.1167 -0.2770
 9934TIP3    H251218   0.230   2.044  12.673 -1.4768  1.7784  0.1666
 9935TIP3   OH251219   4.141   4.926   4.587 -0.1193 -0.4484  0.5630
 9935TIP3    H151220   4.099   4.854   4.633  0.8341 -0.5312  1.3209
 9935TIP3    H251221   4.070   4.966   4.536 -1.2855 -0.1357  2.3574
 9936TIP3   OH251222   3.312   2.147   4.122 -0.7327  0.3184 -0.4353
 9936TIP3    H151223   3.348   2.062   4.147 -0.7085  0.0376 -1.3717
 9936TIP3    H251224   3.388   2.197   4.090 -1.2059 -0.5619 -3.1944
 9937TIP3   OH251225   4.990   5.063   3.292 -0.4927  0.2862 -0.0214
 9937TIP3    H151226   4.957   5.036   3.378  0.1681  0.0358  0.1604
 9937TIP3    H251227   4.924   5.031   3.230 -0.3594 -0.6418  0.2959
 9938TIP3   OH251228   2.969   3.510  14.042 -0.2194  1.0963 -0.4379
 9938TIP3    H151229   2.956   3.416  14.054  1.7547  0.6235 -1.4227
 9938TIP3    H251230   2.897   3.551  14.089 -0.7152 -0.8850  0.6472
 9939TIP3   OH251231   2.468   2.822   6.438  0.0799 -0.8041 -0.0950
 9939TIP3    H151232   2.393   2.870   6.472 -1.2678 -1.2236 -2.2930
 9939TIP3    H251233   2.472   2.742   6.490 -1.0226 -0.7856  0.0241
 9940TIP3   OH251234   4.424   2.482   0.634 -0.1525 -0.3991 -0.0230
 9940TIP3    H151235   4.462   2.557   0.680  0.7604 -0.5527 -0.4939
 9940TIP3    H251236   4.333   2.478   0.664  0.2219 -0.0506  1.1922
 9941TIP3   OH251237   0.324   2.717   6.161  0.0652  0.0419  0.2112
 9941TIP3    H151238   0.329   2.622   6.148 -0.9118  0.0520 -0.3333
 9941TIP3    H251239   0.385   2.734   6.233 -1.8472 -1.3943  2.3218
 9942TIP3   OH251240   0.853   5.744   0.924 -0.4746 -0.4169  0.3472
 9942TIP3    H151241   0.939   5.729   0.886 -0.9302  0.8826 -1.3173
 9942TIP3    H251242   0.807   5.797   0.859 -2.7476 -1.5708  0.9234
 9943TIP3   OH251243   2.598   4.998  12.318  0.0991 -0.1712 -0.0128
 9943TIP3    H151244   2.555   5.055  12.381  0.3692 -2.1890  2.1477
 9943TIP3    H251245   2.692   5.007  12.338  0.2034 -0.6805 -0.2645
 9944TIP3   OH251246   4.996   4.437  13.370 -0.9012 -0.6872 -0.3829
 9944TIP3    H151247   5.055   4.445  13.445  0.1562 -3.3979 -0.8204
 9944TIP3    H251248   5.013   4.516  13.318 -0.0619  0.1742  1.1263
 9945TIP3   OH251249   3.944   6.604  12.805 -1.1488 -0.6559  0.0227
 9945TIP3    H151250   3.850   6.588  12.797 -1.3329  0.5765 -0.5536
 9945TIP3    H251251   3.957   6.689  12.762  0.5504 -1.7434 -1.7325
 9946TIP3   OH251252   0.098   6.356  15.451 -0.0244 -0.1063 -0.0082
 9946TIP3    H151253   0.182   6.321  15.420  0.9389  2.2824 -0.3059
 9946TIP3    H251254   0.093   6.328  15.543  1.7244  0.7103  0.3835
 9947TIP3   OH251255   2.940   0.453   5.227  0.4998 -0.3379 -0.3562
 9947TIP3    H151256   2.899   0.472   5.311  0.3198 -0.5895 -0.3840
 9947TIP3    H251257   2.926   0.359   5.215  0.1924 -0.2322 -0.8452
 9948TIP3   OH251258   6.745   5.691  15.969 -0.1430 -0.1147 -0.4852
 9948TIP3    H151259   6.837   5.697  15.943  0.4914 -0.1264  1.5315
 9948TIP3    H251260   6.707   5.776  15.944  0.8646  0.5431  0.1237
 9949TIP3   OH251261   3.943   0.641  11.761 -0.1831 -0.1895 -0.5289
 9949TIP3    H151262   4.036   0.662  11.750 -0.0830 -0.8742 -1.0611
 9949TIP3    H251263   3.902   0.670  11.680 -0.2596 -0.8251 -0.7223
 9950TIP3   OH251264   0.417   2.726   2.384  0.2912 -0.2682 -0.3317
 9950TIP3    H151265   0.500   2.757   2.422 -1.4635  1.3906  2.4745
 9950TIP3    H251266   0.414   2.633   2.407  1.1613 -0.2433 -0.0645
 9951TIP3   OH251267   5.779   4.636  12.752 -0.7851  0.0615  0.3218
 9951TIP3    H151268   5.801   4.592  12.834 -1.0681 -2.1014 -0.6835
 9951TIP3    H251269   5.693   4.675  12.768 -1.3796 -1.3534  0.7168
 9952TIP3   OH251270   6.478   1.453  15.404  0.3792 -0.2349 -0.2773
 9952TIP3    H151271   6.422   1.521  15.441  0.8206 -0.0513  0.0604
 9952TIP3    H251272   6.467   1.461  15.309 -0.8325 -0.7649 -0.2052
 9953TIP3   OH251273   0.393   3.863  14.391  0.1707  0.4846  0.2668
 9953TIP3    H151274   0.321   3.800  14.396 -0.0121  0.5922 -0.7968
 9953TIP3    H251275   0.359   3.941  14.435 -0.5319  0.6817 -0.6003
 9954TIP3   OH251276   0.011   2.017   5.759  0.6269 -0.0124 -0.1228
 9954TIP3    H151277   0.103   2.040   5.770  0.5528  0.0277  0.4735
 9954TIP3    H251278  -0.029   2.040   5.843  0.3374 -1.2691  0.1005
 9955TIP3   OH251279   0.400   4.909  13.854  0.2116 -0.8325  0.5398
 9955TIP3    H151280   0.440   4.994  13.836  2.5250 -1.6930  1.1376
 9955TIP3    H251281   0.392   4.906  13.950  0.8423 -1.5411  0.5818
 9956TIP3   OH251282   1.410   2.177   0.442 -0.0194 -0.1369  0.3272
 9956TIP3    H151283   1.332   2.140   0.482  0.1938  1.1493  2.0775
 9956TIP3    H251284   1.474   2.106   0.444 -1.0477 -1.1139 -0.8763
 9957TIP3   OH251285   2.300   5.462  13.680  0.0175  0.1993  0.1989
 9957TIP3    H151286   2.374   5.424  13.727 -0.6880  0.7827  1.8296
 9957TIP3    H251287   2.276   5.539  13.731 -0.1860  1.4213 -1.6575
 9958TIP3   OH251288   5.263   0.289  15.832  0.1077  0.0106  0.2473
 9958TIP3    H151289   5.219   0.242  15.762  0.8564 -0.3091 -0.0166
 9958TIP3    H251290   5.352   0.255  15.833 -0.3017 -1.2050  2.4535
 9959TIP3   OH251291   4.776   3.383  14.862  0.9137  0.3190 -0.7572
 9959TIP3    H151292   4.744   3.469  14.834 -1.0255  0.4591  1.5707
 9959TIP3    H251293   4.733   3.322  14.802  0.6794  0.8661 -1.1601
 9960TIP3   OH251294   0.770   1.931   1.014  0.6714 -0.6803 -0.3865
 9960TIP3    H151295   0.796   1.900   1.101 -1.4410 -2.3300 -0.2784
 9960TIP3    H251296   0.750   2.024   1.028  0.7946 -0.8036  0.7720
 9961TIP3   OH251297   5.628   4.243  12.309  0.0291  0.1637 -0.8783
 9961TIP3    H151298   5.642   4.335  12.332  0.4556  0.2000 -1.2777
 9961TIP3    H251299   5.588   4.245  12.222 -0.6931 -0.0091 -0.5653
 9962TIP3   OH251300   6.081   6.030   5.714 -0.9059  1.2357 -0.4317
 9962TIP3    H151301   6.061   5.950   5.664  1.2433  1.1674 -1.3080
 9962TIP3    H251302   6.043   6.015   5.800 -2.1730  0.0791 -1.1480
 9963TIP3   OH251303   2.825   0.342  13.308 -0.0651  0.2188  0.0701
 9963TIP3    H151304   2.885   0.390  13.364 -1.9030  0.8479  1.6202
 9963TIP3    H251305   2.794   0.406  13.244  0.2522  0.1201 -0.1841
 9964TIP3   OH251306   5.967   5.884   3.686 -0.4902  0.4138  0.5714
 9964TIP3    H151307   6.059   5.906   3.697 -0.5165 -0.3583  2.7055
 9964TIP3    H251308   5.919   5.954   3.731 -0.8603 -0.1146  1.0165
 9965TIP3   OH251309   5.063   0.469  14.285 -0.2214  0.7022  0.1333
 9965TIP3    H151310   5.063   0.552  14.332  1.0699  0.3441  0.8407
 9965TIP3    H251311   5.033   0.405  14.350  0.8507  0.3136  0.2649
 9966TIP3   OH251312   5.693   2.224   5.635 -0.0908  0.1521 -0.2783
 9966TIP3    H151313   5.703   2.129   5.636  0.3420  0.1708  1.7230
 9966TIP3    H251314   5.775   2.257   5.672 -1.1864  1.1599  1.3364
 9967TIP3   OH251315   3.893   3.310  10.963  0.3611 -0.4946 -0.1106
 9967TIP3    H151316   3.875   3.397  10.999  0.8654  0.6804 -2.4536
 9967TIP3    H251317   3.973   3.281  11.008  0.0785  0.1658  0.8425
 9968TIP3   OH251318   6.086   2.242  11.582 -0.4901 -0.5740  0.2308
 9968TIP3    H151319   6.050   2.237  11.493  0.7330 -0.0477 -0.3216
 9968TIP3    H251320   6.018   2.287  11.633 -0.0878  1.7218 -1.1174
 9969TIP3   OH251321   0.642   0.665   0.853 -0.3003 -0.4530  0.0363
 9969TIP3    H151322   0.613   0.742   0.902  1.0341 -0.1598  0.4172
 9969TIP3    H251323   0.568   0.642   0.797 -0.7124  1.1325 -0.1106
 9970TIP3   OH251324   3.599   0.916   3.858  0.7303  0.5081  0.4004
 9970TIP3    H151325   3.659   0.845   3.837 -0.4079 -0.1245 -0.8566
 9970TIP3    H251326   3.572   0.899   3.948  0.2005 -0.8797 -0.0020
 9971TIP3   OH251327   1.758   4.117   0.165 -0.3370  0.4200 -0.3041
 9971TIP3    H151328   1.723   4.200   0.196  0.1184  0.1569  0.9732
 9971TIP3    H251329   1.848   4.114   0.198 -0.1409 -0.3052 -0.8592
 9972TIP3   OH251330   0.492   1.527   0.705 -0.5554  0.0043  0.3475
 9972TIP3    H151331   0.447   1.555   0.784 -2.5760  0.8941 -1.0263
 9972TIP3    H251332   0.550   1.600   0.683  0.6815 -0.6050  1.4088
 9973TIP3   OH251333   4.896   2.220   1.173  0.1438  0.0665 -0.0222
 9973TIP3    H151334   4.820   2.200   1.229  0.2735  0.7926  0.4253
 9973TIP3    H251335   4.933   2.299   1.211  0.7605  0.0706 -0.6220
 9974TIP3   OH251336   4.119   2.337   6.580  0.2648  0.1539  0.3872
 9974TIP3    H151337   4.210   2.365   6.591  0.1116  0.9488 -0.2350
 9974TIP3    H251338   4.093   2.372   6.494 -0.8323  0.5311  0.8508
 9975TIP3   OH251339   6.411   4.273   0.991  0.7219 -0.1986 -0.5832
 9975TIP3    H151340   6.461   4.191   0.993  1.6482  0.3690  0.1632
 9975TIP3    H251341   6.475   4.340   0.969  0.5121  0.6866  1.2804
 9976TIP3   OH251342   3.059   0.361  14.554 -0.3312 -1.0718 -0.5639
 9976TIP3    H151343   3.153   0.351  14.539  0.0085 -1.2777  1.3996
 9976TIP3    H251344   3.035   0.441  14.507  1.6067  1.0285  1.7294
 9977TIP3   OH251345   4.047   3.406  11.280 -0.0965  0.1640 -0.4048
 9977TIP3    H151346   4.035   3.481  11.222 -0.4894  0.4162  0.0009
 9977TIP3    H251347   3.963   3.359  11.277  0.4303 -0.7526 -1.3421
 9978TIP3   OH251348   3.118   3.429   5.125 -0.6222 -0.3097 -0.0131
 9978TIP3    H151349   3.110   3.346   5.078 -3.6183 -0.7780  1.1138
 9978TIP3    H251350   3.135   3.494   5.056  0.9710 -1.6639 -0.9992
 9979TIP3   OH251351   5.189   4.476  17.009 -0.2402 -0.2992 -0.0685
 9979TIP3    H151352   5.186   4.421  17.087 -1.6423  0.7056  0.6271
 9979TIP3    H251353   5.108   4.528  17.013  0.9901  1.7820 -0.7209
 9980TIP3   OH251354   0.103   0.347  14.437  0.3979 -0.2413 -0.0774
 9980TIP3    H151355   0.131   0.385  14.520  1.3953  0.2254 -0.6148
 9980TIP3    H251356   0.151   0.396  14.370 -1.0082 -0.0485 -0.9933
 9981TIP3   OH251357   2.306   3.968  15.413 -0.3957 -0.5750 -0.4107
 9981TIP3    H151358   2.243   3.914  15.461 -1.0686  0.5534  0.0175
 9981TIP3    H251359   2.319   3.921  15.331 -1.3300 -1.1543 -0.2540
 9982TIP3   OH251360   0.624   1.859  15.400 -0.1882  0.1196  0.3221
 9982TIP3    H151361   0.540   1.813  15.406  0.1106 -0.6508 -1.0415
 9982TIP3    H251362   0.690   1.791  15.413  0.2485  0.6240  0.8264
 9983TIP3   OH251363   4.814   1.966  16.081  0.2140 -0.1869  0.5220
 9983TIP3    H151364   4.734   1.944  16.034  0.5786 -0.5833  0.0824
 9983TIP3    H251365   4.873   2.000  16.014  0.4600 -0.0160  0.8209
 9984TIP3   OH251366   4.179   2.424   0.758  0.1475 -0.7688 -0.1515
 9984TIP3    H151367   4.144   2.349   0.709 -0.0142 -1.1374  0.5145
 9984TIP3    H251368   4.167   2.400   0.850 -0.7670  0.4790  0.0857
 9985TIP3   OH251369   3.706   4.246  11.373 -0.3696  0.0687  0.5912
 9985TIP3    H151370   3.787   4.297  11.377 -0.2341 -0.0267 -0.6479
 9985TIP3    H251371   3.688   4.236  11.280 -1.8613  0.1641  0.8359
 9986TIP3   OH251372   6.709   6.441   5.153  0.2839 -0.0462 -0.6014
 9986TIP3    H151373   6.662   6.446   5.236 -1.1297 -0.5126 -1.3461
 9986TIP3    H251374   6.776   6.510   5.160  0.3757 -0.2580  1.0103
 9987TIP3   OH251375   1.466   1.343  12.148 -0.0392 -0.3894 -0.4372
 9987TIP3    H151376   1.554   1.377  12.161 -0.4678  0.9025 -0.8286
 9987TIP3    H251377   1.448   1.357  12.055 -1.2501  0.8589 -0.0482
 9988TIP3   OH251378   5.240   5.012   3.486 -0.5722  0.1367  0.0427
 9988TIP3    H151379   5.223   5.063   3.565  1.8312  1.3073 -0.0802
 9988TIP3    H251380   5.239   5.076   3.415 -1.0564 -0.6189 -0.6553
 9989TIP3   OH251381   2.706   0.810  16.025 -0.5822  0.0733  0.5084
 9989TIP3    H151382   2.654   0.855  15.957  1.0347 -0.3983 -1.1128
 9989TIP3    H251383   2.659   0.728  16.039 -0.8033  0.0571 -0.2523
 9990TIP3   OH251384   3.110   6.704   3.014 -0.4081  0.2880  0.3432
 9990TIP3    H151385   3.018   6.684   3.028 -0.5399  0.2539 -0.5096
 9990TIP3    H251386   3.154   6.673   3.093 -0.7496 -2.2488 -0.3650
 9991TIP3   OH251387   0.293   3.152   1.572  0.2427  0.1611  0.4240
 9991TIP3    H151388   0.241   3.124   1.497  1.0231  0.4488 -0.2364
 9991TIP3    H251389   0.248   3.229   1.606 -0.0452  0.1036  0.1775
 9992TIP3   OH251390   5.728   6.138  17.050 -0.0349  0.3583  0.2879
 9992TIP3    H151391   5.749   6.209  16.990 -0.9897  0.9789  0.6597
 9992TIP3    H251392   5.726   6.179  17.136 -2.4318  0.3333  0.3183
 9993TIP3   OH251393   6.546   2.805  15.428  0.1279  0.2072  0.2120
 9993TIP3    H151394   6.625   2.827  15.479 -0.7570 -1.4140  2.4698
 9993TIP3    H251395   6.475   2.851  15.473 -0.3629  0.9948 -1.3065
 9994TIP3   OH251396   0.163   5.045  12.627  0.5370 -0.4159  0.2580
 9994TIP3    H151397   0.204   5.128  12.602 -0.3958 -0.0129  0.0154
 9994TIP3    H251398   0.210   4.979  12.576  0.9123  0.0277  0.0234
 9995TIP3   OH251399   6.278   0.688  11.646 -0.0054 -0.1576  0.5799
 9995TIP3    H151400   6.280   0.607  11.594 -1.9839 -0.1824  0.4677
 9995TIP3    H251401   6.242   0.660  11.731 -1.6029  0.7283  0.2289
 9996TIP3   OH251402   3.982   5.454   5.631 -0.7721  0.3644 -0.2413
 9996TIP3    H151403   3.993   5.360   5.641 -0.4972  0.4739  0.6761
 9996TIP3    H251404   4.033   5.491   5.704  0.9395  1.3017 -1.8217
 9997TIP3   OH251405   5.990   2.718  15.326 -0.5534  0.0912 -0.0150
 9997TIP3    H151406   6.041   2.662  15.268  1.0415 -1.1141  2.4003
 9997TIP3    H251407   5.920   2.661  15.358  0.5238 -0.3325  1.7229
 9998TIP3   OH251408   1.928   3.432  12.038  0.5603  0.3220  0.1697
 9998TIP3    H151409   1.956   3.487  11.965  1.8639  0.2904  0.6156
 9998TIP3    H251410   1.977   3.350  12.027 -2.6531 -1.5892 -1.5143
 9999TIP3   OH251411   2.572   5.574  15.699 -0.0173 -0.2768 -0.0122
 9999TIP3    H151412   2.541   5.486  15.682 -0.0242  0.0255 -1.6918
 9999TIP3    H251413   2.640   5.563  15.765 -1.1968 -1.3226  1.0969
10000TIP3   OH251414   5.496   5.845  12.857 -0.7469  0.4451  0.0599
10000TIP3    H151415   5.434   5.794  12.804  0.8461  1.3654 -2.9190
10000TIP3    H251416   5.459   5.933  12.858 -0.6736  0.4734  0.3215
10001TIP3   OH251417   6.377   6.098  15.368  0.4266  0.3958  0.1076
10001TIP3    H151418   6.392   6.192  15.376 -0.5511  0.6269 -0.5776
10001TIP3    H251419   6.460   6.064  15.334  1.6284  0.6222  2.5986
10002TIP3   OH251420   0.742   5.353  14.290  0.3119  0.0719  0.3615
10002TIP3    H151421   0.654   5.318  14.285  0.7469 -1.2629  1.4966
10002TIP3    H251422   0.729   5.447  14.307 -0.8794 -0.1322  0.6614
10003TIP3   OH251423   5.599   1.645  16.134 -0.6394  0.2470  0.3271
10003TIP3    H151424   5.554   1.678  16.056  0.3051 -0.8296 -0.7268
10003TIP3    H251425   5.680   1.696  16.138 -0.1781 -0.4392 -0.0542
10004TIP3   OH251426   0.133   0.806   2.453 -0.0074  0.1922  0.3694
10004TIP3    H151427   0.118   0.862   2.377 -0.8635 -1.0743 -0.4238
10004TIP3    H251428   0.099   0.855   2.527 -0.8259  0.6825 -0.3267
10005TIP3   OH251429   1.569   5.709   0.962 -0.8981 -0.1719 -0.1895
10005TIP3    H151430   1.541   5.801   0.968 -1.1535 -0.3435  3.2945
10005TIP3    H251431   1.492   5.659   0.988 -0.5075 -1.3593 -1.2496
10006TIP3   OH251432   2.646   6.790   1.114 -0.0633 -1.1250  0.7550
10006TIP3    H151433   2.646   6.885   1.101 -0.8649 -0.8736  2.3317
10006TIP3    H251434   2.737   6.769   1.134 -0.0311 -0.5358  1.2643
10007TIP3   OH251435   4.953   3.476   0.263 -0.0673 -0.1293 -0.1955
10007TIP3    H151436   4.886   3.415   0.293 -0.2954  0.5073  0.6257
10007TIP3    H251437   5.030   3.421   0.248  0.3607 -0.4282  2.4950
10008TIP3   OH251438   0.763   0.633  15.987 -0.5538 -0.2903  0.0137
10008TIP3    H151439   0.679   0.653  15.947 -0.4497  0.1504  0.0099
10008TIP3    H251440   0.753   0.657  16.079  0.2028  1.7249 -0.3848
10009TIP3   OH251441   2.623   0.378  13.752 -0.0387 -0.4318  1.0883
10009TIP3    H151442   2.681   0.454  13.748 -0.4473 -0.1596  0.1748
10009TIP3    H251443   2.636   0.334  13.668 -1.2099 -0.3194  0.8372
10010TIP3   OH251444   6.098   1.877  11.439  0.2328  0.3195  0.1907
10010TIP3    H151445   6.045   1.852  11.515 -0.3362 -1.3918 -0.7243
10010TIP3    H251446   6.067   1.964  11.416 -1.1016 -0.0142  0.6378
10011TIP3   OH251447   3.746   5.097   2.182 -0.3199  0.5449  0.3633
10011TIP3    H151448   3.723   5.109   2.274 -1.5814  0.9258  0.0076
10011TIP3    H251449   3.664   5.075   2.139  0.5298 -1.2937 -0.4086
10012TIP3   OH251450   3.923   1.801   3.983  0.3870  0.1924  0.6950
10012TIP3    H151451   3.873   1.747   3.922  0.2733  1.1552 -0.0846
10012TIP3    H251452   3.856   1.851   4.030  0.5828  1.7473 -0.5984
10013TIP3   OH251453   6.742   0.779  16.983 -0.8162  0.6453  0.0962
10013TIP3    H151454   6.693   0.764  16.901  0.2541 -0.2148 -0.4078
10013TIP3    H251455   6.748   0.692  17.023 -0.9068  0.9841  0.8522
10014TIP3   OH251456   2.385   6.764   5.759 -0.0207 -0.5612  0.2591
10014TIP3    H151457   2.351   6.796   5.843 -1.0721 -0.8122 -0.0524
10014TIP3    H251458   2.478   6.785   5.761  0.7800 -3.5919  2.9254
10015TIP3   OH251459   0.244   5.820  14.654 -0.3844  0.1057 -0.1208
10015TIP3    H151460   0.300   5.797  14.729  0.3625  0.0857 -0.6668
10015TIP3    H251461   0.273   5.761  14.584  0.7871  1.8961 -1.2120
10016TIP3   OH251462   0.497   3.000   1.983 -0.1451  0.5598 -0.5921
10016TIP3    H151463   0.583   3.040   1.970 -0.6839  1.5024 -1.4668
10016TIP3    H251464   0.515   2.908   2.000  0.9687  0.1744 -3.2748
10017TIP3   OH251465   5.916   1.433   1.050 -0.7598 -0.3536  0.2823
10017TIP3    H151466   5.984   1.370   1.071 -0.4742 -0.4208 -0.7775
10017TIP3    H251467   5.940   1.512   1.098 -1.1947 -1.0714  1.7297
10018TIP3   OH251468   2.628   5.989  13.078  0.2389 -0.3070  0.3207
10018TIP3    H151469   2.631   5.913  13.135 -0.0098 -0.2490  0.4091
10018TIP3    H251470   2.677   5.962  13.000  0.1853 -0.5421  0.3672
10019TIP3   OH251471   3.489   5.895   0.458 -0.1435  0.6431  0.2226
10019TIP3    H151472   3.423   5.844   0.505  1.5911  0.8655  3.1441
10019TIP3    H251473   3.500   5.850   0.374 -1.2040 -1.6801  1.2576
10020TIP3   OH251474   1.037   3.574  16.305  0.2098  0.1484  0.2260
10020TIP3    H151475   1.087   3.576  16.224 -0.3804  0.9580 -0.1393
10020TIP3    H251476   1.097   3.608  16.372  0.7494 -0.6752  0.1675
10021TIP3   OH251477   4.853   5.229   4.165  0.2150 -0.8162  0.4239
10021TIP3    H151478   4.906   5.284   4.107 -1.4536  0.7177  0.2738
10021TIP3    H251479   4.821   5.159   4.109  1.2138 -1.1629  0.2710
10022TIP3   OH251480   4.549   6.043   4.466 -0.1398 -0.4092  0.2096
10022TIP3    H151481   4.526   5.962   4.422 -0.3859 -0.1139 -0.2216
10022TIP3    H251482   4.618   6.081   4.412 -0.0880 -0.2891  0.3592
10023TIP3   OH251483   3.210   0.600   1.318 -0.4226 -0.1389  0.0070
10023TIP3    H151484   3.143   0.653   1.362  0.0519  0.4036  0.0796
10023TIP3    H251485   3.177   0.510   1.327 -1.2283  0.1309 -0.1127
10024TIP3   OH251486   0.743   4.059   1.323  0.1198 -0.5378  0.5955
10024TIP3    H151487   0.774   4.047   1.413 -1.1831 -0.5240  1.0725
10024TIP3    H251488   0.802   4.007   1.270 -0.0918 -1.9242  1.6605
10025TIP3   OH251489   6.160   6.750   3.616  0.2559  0.0969  0.6085
10025TIP3    H151490   6.199   6.731   3.702  2.6095  1.2888 -0.1086
10025TIP3    H251491   6.159   6.845   3.611 -3.1487  0.1872  0.6362
10026TIP3   OH251492   4.188   2.231   3.441 -0.0256 -0.5900 -0.1861
10026TIP3    H151493   4.192   2.319   3.479  0.4670 -0.6234 -0.1556
10026TIP3    H251494   4.196   2.246   3.346 -0.1334 -0.5898 -0.1955
10027TIP3   OH251495   6.128   3.619  15.698  0.6019  0.3786  0.2774
10027TIP3    H151496   6.103   3.565  15.773 -1.0550  0.9838  0.1961
10027TIP3    H251497   6.055   3.681  15.687  0.5585  0.0000 -2.1303
10028TIP3   OH251498   3.730   5.568  14.111 -0.2904  0.2416 -0.2789
10028TIP3    H151499   3.717   5.654  14.070 -1.4171 -0.3457 -1.2191
10028TIP3    H251500   3.727   5.586  14.205 -0.3363  1.2538 -0.4618
10029TIP3   OH251501   1.582   1.629   5.016 -0.0158  0.0551  0.0392
10029TIP3    H151502   1.662   1.637   5.069  0.7337  2.7637 -1.2888
10029TIP3    H251503   1.511   1.632   5.080  0.8962  0.4320  1.0819
10030TIP3   OH251504   0.645   3.092  14.457  0.5282 -0.0700 -0.0187
10030TIP3    H151505   0.710   3.125  14.394 -0.9762  1.8272 -0.6738
10030TIP3    H251506   0.605   3.017  14.413  0.7720  0.1006 -0.5426
10031TIP3   OH251507   1.643   0.266  12.563 -0.3643  0.2009  0.4296
10031TIP3    H151508   1.557   0.263  12.604 -1.3968 -1.5415 -1.6641
10031TIP3    H251509   1.632   0.321  12.486  1.1802  2.2622  1.5779
10032TIP3   OH251510   3.885   3.018  16.894 -0.5687 -0.2604  0.3846
10032TIP3    H151511   3.882   2.935  16.941  0.4716 -0.5357 -0.0017
10032TIP3    H251512   3.883   3.085  16.963  3.4886 -0.6585  1.1311
10033TIP3   OH251513   5.749   4.488  14.642  0.0976 -0.3728  0.0413
10033TIP3    H151514   5.665   4.452  14.616  0.8886 -1.5699 -0.9582
10033TIP3    H251515   5.790   4.517  14.561 -0.6586  3.3421  0.8122
10034TIP3   OH251516   3.930   2.306   3.957 -0.6486 -0.1621  0.3880
10034TIP3    H151517   3.897   2.315   4.046  0.1435 -3.3115  1.1169
10034TIP3    H251518   4.023   2.285   3.968 -0.3103  0.2815 -1.2591
10035TIP3   OH251519   5.846   5.817   1.350 -0.4949  0.1806  0.3045
10035TIP3    H151520   5.903   5.787   1.279  0.3945  1.6953  0.3325
10035TIP3    H251521   5.874   5.766   1.426  0.9586  0.9992  0.3537
10036TIP3   OH251522   2.712   2.299  11.431 -0.9935 -1.0509  0.0375
10036TIP3    H151523   2.705   2.353  11.510  0.1092 -0.3242 -0.3319
10036TIP3    H251524   2.623   2.271  11.413 -1.3911 -0.4740  1.0292
10037TIP3   OH251525   4.054   3.146   4.261  0.3964 -0.4731 -0.2268
10037TIP3    H151526   4.083   3.237   4.268 -1.4082  0.1879 -0.8299
10037TIP3    H251527   3.983   3.139   4.325  1.0291 -1.6992  0.3746
10038TIP3   OH251528   3.535   4.997   0.727 -0.3432  0.4506  0.3475
10038TIP3    H151529   3.526   5.056   0.802  1.6802  0.2379  0.8244
10038TIP3    H251530   3.573   5.050   0.658  0.7547 -0.0575  0.5294
10039TIP3   OH251531   2.100   4.722  15.697  0.0762  0.0653 -0.9591
10039TIP3    H151532   2.101   4.790  15.765  0.8251 -0.2736 -0.6246
10039TIP3    H251533   2.157   4.654  15.731 -0.6250 -0.7150 -1.3247
10040TIP3   OH251534   4.685   4.623  15.076  0.4719  0.1679  0.0020
10040TIP3    H151535   4.619   4.612  15.007 -0.0270  1.8938  0.1582
10040TIP3    H251536   4.711   4.714  15.070 -0.1676  0.6059  2.5668
10041TIP3   OH251537   1.746   3.679  14.144 -0.1965  0.8202  0.4083
10041TIP3    H151538   1.746   3.704  14.236  1.7567 -0.8282  0.9365
10041TIP3    H251539   1.708   3.592  14.142  1.2995  0.1322 -0.0401
10042TIP3   OH251540   1.804   0.025  11.651  0.3403  0.7368 -0.8398
10042TIP3    H151541   1.880   0.077  11.679 -0.6473  2.4006 -1.0885
10042TIP3    H251542   1.740   0.091  11.622 -0.9989 -0.6469 -1.1270
10043TIP3   OH251543   2.452   1.174  11.145  0.3291 -0.4174 -0.4280
10043TIP3    H151544   2.385   1.231  11.108 -0.3452 -0.7244  0.2994
10043TIP3    H251545   2.405   1.097  11.175  1.0323 -0.7248 -0.0790
10044TIP3   OH251546   3.594   3.703   4.028  0.0637  0.0382 -0.3570
10044TIP3    H151547   3.503   3.707   4.059  0.5223  1.4685  0.9761
10044TIP3    H251548   3.586   3.699   3.932 -1.3953 -0.3075 -0.2546
10045TIP3   OH251549   3.917   5.419  11.197 -0.6051  0.0765 -0.9793
10045TIP3    H151550   3.836   5.403  11.245 -0.7524 -1.2889 -1.6447
10045TIP3    H251551   3.946   5.505  11.227 -1.0909 -0.4003  0.9882
10046TIP3   OH251552   6.515   0.035  13.265  0.1850 -0.6217  0.4332
10046TIP3    H151553   6.561   0.005  13.343 -0.8058  2.5230  2.4111
10046TIP3    H251554   6.422   0.026  13.288 -0.1285 -0.1874 -0.6176
10047TIP3   OH251555   2.214   5.199  14.707 -0.0295  0.5341 -0.3627
10047TIP3    H151556   2.286   5.205  14.769  0.3145  3.2187 -0.8991
10047TIP3    H251557   2.171   5.116  14.728  1.1981  0.4448  2.1773
10048TIP3   OH251558   3.289   5.481   3.165  0.2987 -0.5037 -0.4520
10048TIP3    H151559   3.259   5.451   3.079  2.2801  0.0791 -1.4133
10048TIP3    H251560   3.349   5.412   3.195 -1.2219 -1.2577  1.0458
10049TIP3   OH251561   1.763   4.924  15.325  0.0335  0.2342  0.2772
10049TIP3    H151562   1.809   4.908  15.407 -0.2771 -0.2562  0.3601
10049TIP3    H251563   1.733   4.838  15.297  0.9033  0.2647 -0.8143
10050TIP3   OH251564   4.387   6.455   0.348  0.6318 -0.1791 -0.5031
10050TIP3    H151565   4.478   6.481   0.335  0.5983  0.8041  0.9967
10050TIP3    H251566   4.337   6.536   0.344 -0.2423 -0.7408 -1.6012
10051TIP3   OH251567   1.259   2.040  11.693  0.4732 -0.3516 -0.5970
10051TIP3    H151568   1.278   2.011  11.603  1.8106  0.3177 -0.5676
10051TIP3    H251569   1.282   1.965  11.748 -1.6091 -1.2379 -0.8685
10052TIP3   OH251570   3.849   0.328   6.603 -0.6937  0.2121 -0.5357
10052TIP3    H151571   3.773   0.384   6.618  0.1119  1.1060  0.3622
10052TIP3    H251572   3.917   0.364   6.660  0.0421 -1.3195 -0.3827
10053TIP3   OH251573   3.374   4.890   1.036  0.0083  0.3873  0.1412
10053TIP3    H151574   3.301   4.937   0.994 -0.9484 -0.7868  0.4293
10053TIP3    H251575   3.452   4.940   1.012 -0.6264  0.3867 -2.1466
10054TIP3   OH251576   5.705   4.986  11.630 -0.3817 -0.1057 -0.3907
10054TIP3    H151577   5.650   4.919  11.589 -0.3308 -1.1234  1.1468
10054TIP3    H251578   5.642   5.047  11.669 -0.4265  0.7642 -1.7284
10055TIP3   OH251579   2.185   2.886   2.440 -0.3072 -0.3866 -0.4437
10055TIP3    H151580   2.207   2.978   2.450 -0.6843 -0.4041  0.7869
10055TIP3    H251581   2.267   2.845   2.413  0.1047  0.1748 -0.0792
10056TIP3   OH251582   3.363   5.725   2.089 -0.2445  0.2642  0.3777
10056TIP3    H151583   3.305   5.653   2.067  0.7428 -0.8687  1.3030
10056TIP3    H251584   3.444   5.682   2.117  0.9670  1.7760 -0.6443
10057TIP3   OH251585   1.686   0.199   0.252 -0.2579  0.4628  0.5348
10057TIP3    H151586   1.618   0.158   0.306  0.2667 -1.3681 -0.1292
10057TIP3    H251587   1.640   0.269   0.206 -1.2117  0.6219  1.6710
10058TIP3   OH251588   1.586   0.103   2.589  0.0152  0.0365 -0.4476
10058TIP3    H151589   1.543   0.185   2.565  0.2430  0.4635  0.5344
10058TIP3    H251590   1.600   0.110   2.684  0.1809 -1.0718 -0.3748
10059TIP3   OH251591   3.245   3.901  10.954  0.1395  0.3701 -0.1652
10059TIP3    H151592   3.324   3.847  10.957 -0.0879 -0.0184 -0.8908
10059TIP3    H251593   3.277   3.991  10.955  0.5578  0.2205  0.2094
10060TIP3   OH251594   4.063   1.686   4.191  0.5182  0.2155  0.2386
10060TIP3    H151595   4.017   1.734   4.122  0.6948  0.9721  0.6323
10060TIP3    H251596   4.119   1.752   4.232 -0.8330  0.1966  2.2223
10061TIP3   OH251597   5.924   6.007   1.556 -0.1701 -0.4806 -0.6966
10061TIP3    H151598   6.015   6.012   1.585 -0.6896  1.2060  0.8647
10061TIP3    H251599   5.910   5.915   1.535  1.2045 -1.2590  1.4941
10062TIP3   OH251600   1.159   3.980  13.688  0.2366 -0.5361 -0.1599
10062TIP3    H151601   1.102   4.052  13.660  0.6014 -0.7497 -1.5558
10062TIP3    H251602   1.185   4.002  13.777  0.1408  0.9460 -0.4761
10063TIP3   OH251603   5.522   4.340  11.908  0.2378 -0.2833 -0.0775
10063TIP3    H151604   5.532   4.264  11.851  0.7131  0.0412 -0.4260
10063TIP3    H251605   5.468   4.308  11.981 -2.6928 -0.0369 -1.9780
10064TIP3   OH251606   3.439   3.076   3.411 -0.2502 -0.3941  0.6888
10064TIP3    H151607   3.518   3.023   3.401 -0.0415  0.2432 -2.1586
10064TIP3    H251608   3.403   3.051   3.496  2.2081 -1.7675  1.4319
10065TIP3   OH251609   4.742   1.860  14.408  0.0580 -0.2629  0.2965
10065TIP3    H151610   4.655   1.890  14.384 -0.5051 -1.0896  1.2166
10065TIP3    H251611   4.774   1.816  14.329 -0.7815 -0.8353  0.2522
10066TIP3   OH251612   0.887   2.919   5.066 -0.3507 -0.5728 -0.2581
10066TIP3    H151613   0.868   2.980   4.994 -0.3770 -1.7659 -1.2867
10066TIP3    H251614   0.816   2.856   5.064 -0.8537 -0.1255  1.4307
10067TIP3   OH251615   3.431   2.564  15.581 -0.3686  0.0103 -0.2641
10067TIP3    H151616   3.457   2.475  15.560  1.2951  0.6431 -1.0572
10067TIP3    H251617   3.336   2.565  15.569 -0.2372 -1.2664 -1.6998
10068TIP3   OH251618   4.219   4.615  13.809  0.0795 -0.1191 -0.0912
10068TIP3    H151619   4.233   4.669  13.887  0.8211  0.3054 -0.5079
10068TIP3    H251620   4.242   4.526  13.837  0.0235 -0.0238  0.2611
10069TIP3   OH251621   2.329   0.670  11.372  0.1256  0.1703  0.5272
10069TIP3    H151622   2.351   0.577  11.375 -1.6382 -0.3231 -0.3951
10069TIP3    H251623   2.360   0.705  11.455 -0.4654 -1.5611  1.5285
10070TIP3   OH251624   5.625   4.717   2.855 -0.2819  0.0742  0.3799
10070TIP3    H151625   5.551   4.657   2.851 -0.9372  0.8927 -0.0784
10070TIP3    H251626   5.586   4.803   2.872  0.6915  0.2670  1.9153
10071TIP3   OH251627   6.683   4.414  15.494 -0.1036 -0.1959 -0.2061
10071TIP3    H151628   6.613   4.446  15.552 -0.5163 -0.2404 -0.6716
10071TIP3    H251629   6.675   4.319  15.499  0.6606 -0.2297  0.6201
10072TIP3   OH251630   0.221   6.562   3.807  1.0489 -0.3707 -0.0733
10072TIP3    H151631   0.269   6.507   3.746 -0.4525 -0.1837 -1.4684
10072TIP3    H251632   0.133   6.570   3.770  0.5419  1.0378  1.2954
10073TIP3   OH251633   1.492   1.994   6.376 -0.1778 -0.2186  0.0198
10073TIP3    H151634   1.572   1.958   6.413 -0.5923  1.1891  2.4905
10073TIP3    H251635   1.449   1.918   6.335  1.8047 -1.2245 -0.3517
10074TIP3   OH251636   2.580   2.959   1.005  0.1609  0.5593 -0.0682
10074TIP3    H151637   2.491   2.925   1.014  0.2960  0.0590 -0.5441
10074TIP3    H251638   2.612   2.966   1.095 -0.9020  2.2818  0.2351
10075TIP3   OH251639   4.401   0.301   1.422  0.3992  0.1489  0.3117
10075TIP3    H151640   4.437   0.383   1.458  1.4553  0.1732 -0.7665
10075TIP3    H251641   4.374   0.324   1.334 -1.9760  0.0249  0.9507
10076TIP3   OH251642   5.202   3.577  15.788 -0.2630  0.4910  0.2627
10076TIP3    H151643   5.241   3.655  15.750 -2.6186  1.3080 -0.6688
10076TIP3    H251644   5.126   3.559  15.733  0.0159 -2.2900  0.6528
10077TIP3   OH251645   2.890   5.254   5.081 -0.1097 -0.1235  0.4623
10077TIP3    H151646   2.834   5.184   5.115 -2.0239  1.0279 -0.1483
10077TIP3    H251647   2.969   5.209   5.052 -0.6107 -1.8096  1.5506
10078TIP3   OH251648   5.438   2.196   1.806  0.3411 -0.2440 -0.6168
10078TIP3    H151649   5.525   2.227   1.780  0.6465 -0.8679 -0.3757
10078TIP3    H251650   5.445   2.183   1.900  0.1441 -0.7822 -0.6744
10079TIP3   OH251651   5.291   4.139  15.527  0.2539  0.1464  0.5375
10079TIP3    H151652   5.221   4.163  15.587 -0.5861  0.1143 -0.4187
10079TIP3    H251653   5.298   4.044  15.535 -0.5848  0.0163 -0.1893
10080TIP3   OH251654   5.396   4.627   2.482 -0.1781 -0.2523 -0.3658
10080TIP3    H151655   5.309   4.586   2.481 -0.8427  1.1113 -0.3690
10080TIP3    H251656   5.385   4.707   2.534  0.7634  0.5923 -1.4098
10081TIP3   OH251657   3.363   1.832  16.355  0.0406  0.4937 -0.1088
10081TIP3    H151658   3.413   1.828  16.437 -0.4340  1.2751  0.2358
10081TIP3    H251659   3.324   1.745  16.346  0.4718  0.2584  0.2539
10082TIP3   OH251660   4.221   3.253  16.980 -0.2638 -0.2020  0.0275
10082TIP3    H151661   4.258   3.336  17.010 -1.3945 -0.1607  1.4379
10082TIP3    H251662   4.149   3.279  16.921 -2.2395 -0.0068  2.3590
10083TIP3   OH251663   3.678   2.760  16.321 -0.1181  0.1500  0.0357
10083TIP3    H151664   3.769   2.756  16.349 -0.3473  1.4863  1.0608
10083TIP3    H251665   3.674   2.704  16.243  1.5609  0.0894 -0.0306
10084TIP3   OH251666   2.986   2.908   2.282 -0.0815 -0.7856 -0.0661
10084TIP3    H151667   3.021   2.901   2.193  1.3777 -1.6018  0.5237
10084TIP3    H251668   2.974   2.817   2.310  1.4886 -0.6340  1.2762
10085TIP3   OH251669   5.102   0.306   2.991 -0.3616 -0.3368  0.4399
10085TIP3    H151670   5.103   0.210   2.992 -0.5425 -0.3431  0.2606
10085TIP3    H251671   5.187   0.331   2.956 -1.5858 -0.5253 -3.1356
10086TIP3   OH251672   6.521   5.277   0.001  0.0584 -0.5414 -0.3863
10086TIP3    H151673   6.443   5.222  -0.002 -0.4894  0.2561 -1.3376
10086TIP3    H251674   6.562   5.265  -0.084  1.0922 -1.0916  0.1665
10087TIP3   OH251675   6.221   6.676   3.966 -0.0951  0.6598 -0.6337
10087TIP3    H151676   6.141   6.623   3.974 -0.0304  0.7060  0.4167
10087TIP3    H251677   6.205   6.752   4.022  0.5951  0.7873 -0.6082
10088TIP3   OH251678   1.170   2.823   3.171  0.4874  0.2555  0.2496
10088TIP3    H151679   1.109   2.867   3.111 -1.0008  0.3400  1.7617
10088TIP3    H251680   1.137   2.733   3.176  1.2664 -0.0408  0.0913
10089TIP3   OH251681   6.407   2.020  10.293 -0.4529 -0.3097  0.7855
10089TIP3    H151682   6.463   1.946  10.268  0.3176  0.5938 -0.2860
10089TIP3    H251683   6.466   2.081  10.338 -0.8929  0.0217  0.9166
10090TIP3   OH251684   0.180   4.628   0.345  0.0131  0.0833 -0.8011
10090TIP3    H151685   0.221   4.570   0.281  0.7272  0.2163 -0.4704
10090TIP3    H251686   0.247   4.694   0.363  0.0228 -0.2618  0.4989
10091TIP3   OH251687   1.089   4.122  10.673 -0.1290 -0.9116 -0.2021
10091TIP3    H151688   1.157   4.142  10.737  0.2095 -1.7982 -0.2575
10091TIP3    H251689   1.061   4.207  10.639 -1.5248 -0.2540  2.3130
10092TIP3   OH251690   4.570   4.439  17.048 -0.0988 -0.4348  0.3891
10092TIP3    H151691   4.520   4.418  17.127  1.1048 -1.5431  0.8931
10092TIP3    H251692   4.505   4.437  16.977 -0.8656 -1.3104  1.0954
10093TIP3   OH251693   0.485   4.072   1.184  0.3098 -0.7442 -0.7799
10093TIP3    H151694   0.494   4.156   1.140  1.7137 -0.4715 -0.0441
10093TIP3    H251695   0.573   4.053   1.216 -0.3495 -1.6324  0.5970
10094TIP3   OH251696   2.527   3.548  13.990  0.7596 -0.5089 -0.7386
10094TIP3    H151697   2.485   3.609  14.051  1.8385  0.7149 -1.1706
10094TIP3    H251698   2.601   3.511  14.039  0.6588 -0.7742 -0.7824
10095TIP3   OH251699   5.941   1.662  13.670 -0.0328 -0.4938 -0.1638
10095TIP3    H151700   5.929   1.608  13.592  3.4030  0.0617 -1.2494
10095TIP3    H251701   6.024   1.632  13.707 -1.5329 -0.7559  3.4086
10096TIP3   OH251702   1.793   6.081   0.936  0.3142 -0.3242 -0.5665
10096TIP3    H151703   1.882   6.076   0.902  0.5724 -1.1078  0.1729
10096TIP3    H251704   1.736   6.076   0.859  0.8958  1.5810 -1.1832
10097TIP3   OH251705   1.289   1.894  13.879 -0.4860 -0.7630  0.3878
10097TIP3    H151706   1.319   1.812  13.919 -0.5709 -1.3013 -0.6140
10097TIP3    H251707   1.273   1.871  13.788 -2.2657 -0.0567  0.4869
10098TIP3   OH251708   0.316   0.315   6.255 -0.3597  0.4210 -0.1612
10098TIP3    H151709   0.279   0.315   6.166  3.3546 -1.9834 -1.9549
10098TIP3    H251710   0.344   0.406   6.269 -0.9636  0.8444 -1.4897
10099TIP3   OH251711   6.763   4.464  14.328  0.2684  0.3344  0.5997
10099TIP3    H151712   6.762   4.559  14.325  3.8471  0.5053 -0.8856
10099TIP3    H251713   6.754   4.437  14.237 -1.5515 -0.8605  1.0775
10100TIP3   OH251714   0.213   4.781  12.939 -0.0507  0.0935  0.0026
10100TIP3    H151715   0.203   4.809  13.030 -0.6363 -0.9940  0.3015
10100TIP3    H251716   0.302   4.747  12.934 -0.1411 -0.1943  0.2843
10101TIP3   OH251717   5.785   4.783  14.324 -0.4070 -0.1054  0.0843
10101TIP3    H151718   5.790   4.850  14.392  0.3509  1.5313 -1.5066
10101TIP3    H251719   5.694   4.787  14.293 -0.7541 -0.8564  0.9736
10102TIP3   OH251720   3.958   4.381  11.305 -0.4675  0.3338  0.2258
10102TIP3    H151721   4.025   4.401  11.370  0.1174  1.6724 -0.7257
10102TIP3    H251722   4.007   4.342  11.232 -1.1593 -1.4780  0.6866
10103TIP3   OH251723   6.113   0.492   4.520  0.3573 -0.4507 -0.0974
10103TIP3    H151724   6.176   0.497   4.593  1.2257  0.9879 -0.8981
10103TIP3    H251725   6.029   0.477   4.563  1.0375 -1.0759  1.1001
10104TIP3   OH251726   0.245   5.373   1.802  0.5043  0.1061  0.2081
10104TIP3    H151727   0.199   5.316   1.741  0.3680  0.3772  0.0575
10104TIP3    H251728   0.338   5.362   1.779  0.6452 -1.4825  1.3999
10105TIP3   OH251729   4.441   1.645  15.043 -0.3542  0.0770  0.1781
10105TIP3    H151730   4.489   1.673  14.965  0.6027  1.0289  1.0883
10105TIP3    H251731   4.419   1.726  15.089  1.2995 -0.5133  2.1737
10106TIP3   OH251732   6.440   4.742  13.537  0.2911  0.1336 -0.1894
10106TIP3    H151733   6.375   4.812  13.537  0.4950  0.3275  0.6351
10106TIP3    H251734   6.516   4.779  13.582 -0.3738 -1.3164  2.3101
10107TIP3   OH251735   5.456   5.055  11.769 -0.3231 -0.1764 -0.0275
10107TIP3    H151736   5.481   5.004  11.846  0.0136  1.3726  0.9465
10107TIP3    H251737   5.362   5.071  11.781 -0.1719  0.4771  0.3374
10108TIP3   OH251738   6.746   0.124  13.173  0.3839  0.3790  0.0436
10108TIP3    H151739   6.661   0.090  13.202 -0.3974  0.9333 -1.4745
10108TIP3    H251740   6.797   0.133  13.253 -0.8524 -0.3539  0.9446
10109TIP3   OH251741   6.584   5.148  14.591  0.2818  0.3393  0.8671
10109TIP3    H151742   6.570   5.209  14.662 -0.0973  1.4541 -0.1383
10109TIP3    H251743   6.647   5.084  14.626 -0.1608  0.6504  2.2907
10110TIP3   OH251744   5.665   5.800   1.780 -1.0161 -0.1951 -0.1917
10110TIP3    H151745   5.760   5.807   1.793 -0.7758 -1.9730 -0.6989
10110TIP3    H251746   5.641   5.879   1.731  0.3157 -0.0182 -0.5972
10111TIP3   OH251747   2.767   0.455  15.052  0.2975 -0.1530  0.0703
10111TIP3    H151748   2.807   0.542  15.051 -0.3725  0.1659  0.3294
10111TIP3    H251749   2.796   0.414  14.970 -0.0768  0.6385 -0.4720
10112TIP3   OH251750   6.054   6.121  11.013  0.0789  0.6515 -0.1760
10112TIP3    H151751   5.991   6.054  10.986 -1.6531  2.0035  0.2981
10112TIP3    H251752   6.065   6.176  10.935 -0.5605  1.3239  0.2019
10113TIP3   OH251753   6.159   0.909  13.024  0.7410  0.4618 -0.3566
10113TIP3    H151754   6.140   1.000  13.001  0.2878  0.7207  0.9288
10113TIP3    H251755   6.105   0.857  12.964 -0.0578  1.0790 -0.1868
10114TIP3   OH251756   2.250   5.764   1.403  0.0771 -0.0133  0.0345
10114TIP3    H151757   2.162   5.778   1.369  0.2503 -1.4805 -1.1302
10114TIP3    H251758   2.256   5.821   1.479 -1.3852  1.1513 -0.6790
10115TIP3   OH251759   5.628   5.372   4.368 -0.0296 -0.3465  0.1052
10115TIP3    H151760   5.685   5.429   4.316 -0.6329  1.5789  1.4378
10115TIP3    H251761   5.542   5.378   4.327 -0.0409 -0.4744  0.1102
10116TIP3   OH251762   3.663   2.139  13.400  0.2816 -0.0165  0.5008
10116TIP3    H151763   3.579   2.093  13.392 -0.2231  1.1120 -1.2120
10116TIP3    H251764   3.729   2.070  13.395 -0.5036 -0.8826  1.5306
10117TIP3   OH251765   0.862   3.076  14.944 -0.3129 -0.3938 -0.2646
10117TIP3    H151766   0.878   3.032  14.861  2.3029  0.1781 -0.1472
10117TIP3    H251767   0.907   3.022  15.009 -0.8790  0.0791  0.5425
10118TIP3   OH251768   1.925   1.369  16.345 -0.2112  0.4350  0.0088
10118TIP3    H151769   1.849   1.378  16.403 -0.1393  1.0207  0.0242
10118TIP3    H251770   1.980   1.445  16.367  1.4409 -1.1070  1.5409
10119TIP3   OH251771   1.741   0.461  12.118  0.0019  0.5451  0.1057
10119TIP3    H151772   1.815   0.503  12.074 -0.0939 -0.4932 -1.0864
10119TIP3    H251773   1.761   0.368  12.115 -0.1593  0.4150  2.0448
10120TIP3   OH251774   5.473   5.574  12.006 -0.3051 -0.1711  0.2000
10120TIP3    H151775   5.401   5.632  12.032  0.3834  0.5072  0.6316
10120TIP3    H251776   5.430   5.498  11.968 -1.2283  0.8531 -0.8658
10121TIP3   OH251777   6.241   1.540   2.551 -0.1110 -0.0526  0.1529
10121TIP3    H151778   6.304   1.485   2.505 -0.0354  1.0774 -1.1830
10121TIP3    H251779   6.293   1.591   2.613  0.3345  0.8519 -0.9200
10122TIP3   OH251780   0.109   3.968   2.263 -0.0649  0.0529 -0.2767
10122TIP3    H151781   0.125   4.036   2.328 -0.3221 -0.2209  0.0825
10122TIP3    H251782   0.158   3.995   2.186  1.1015 -0.1329  0.3814
10123TIP3   OH251783   4.165   6.152  16.693  0.2150  0.3993 -0.4819
10123TIP3    H151784   4.107   6.099  16.748  2.3617  0.4688  2.0144
10123TIP3    H251785   4.170   6.236  16.739 -0.3777  1.6121 -2.5288
10124TIP3   OH251786   6.385   2.974   0.493  0.2326  0.1360  0.1790
10124TIP3    H151787   6.424   2.889   0.473  1.3222  0.7305 -0.3521
10124TIP3    H251788   6.398   2.985   0.587  2.0976  0.6428 -0.0989
10125TIP3   OH251789   6.347   2.953  13.561 -0.1726 -0.3438 -1.3809
10125TIP3    H151790   6.397   2.933  13.482 -0.5741 -0.3136 -1.6394
10125TIP3    H251791   6.331   2.868  13.602  0.6850 -0.3024 -0.9329
10126TIP3   OH251792   6.621   2.137   5.365  0.2345  0.4688  0.4237
10126TIP3    H151793   6.714   2.159   5.367  0.2579  0.3476  0.6882
10126TIP3    H251794   6.588   2.166   5.450 -0.2287  1.6439 -0.1314
10127TIP3   OH251795   4.510   2.483   5.399  0.4037  0.1154 -0.1723
10127TIP3    H151796   4.605   2.491   5.389  0.6846 -0.6316  1.4701
10127TIP3    H251797   4.499   2.445   5.486 -1.3869 -0.5271 -0.6447
10128TIP3   OH251798   3.136   1.483   3.360  0.5198 -0.1089  0.1612
10128TIP3    H151799   3.153   1.576   3.374  0.7210  0.0174 -0.8691
10128TIP3    H251800   3.216   1.439   3.388  0.9799  0.1507 -0.7253
10129TIP3   OH251801   3.853   5.489   2.592 -0.5320  0.0696  0.5277
10129TIP3    H151802   3.840   5.581   2.614 -0.4533  0.0727  0.5617
10129TIP3    H251803   3.948   5.477   2.594 -0.3090  0.6818 -2.1546
10130TIP3   OH251804   5.924   0.909  10.573  0.7533 -0.2130  0.3727
10130TIP3    H151805   5.890   0.821  10.554  0.0754  0.3882 -1.4637
10130TIP3    H251806   5.851   0.956  10.611  0.2680  0.3222 -1.1672
10131TIP3   OH251807   1.160   0.136  15.756 -0.3002 -0.2728  0.3109
10131TIP3    H151808   1.152   0.213  15.812 -2.3973 -1.5205  1.8631
10131TIP3    H251809   1.208   0.072  15.808  1.0178 -0.2117 -0.7846
10132TIP3   OH251810   4.709   4.394  13.835 -0.0184 -0.3653 -0.2342
10132TIP3    H151811   4.727   4.350  13.751  2.3002  0.8281 -0.4558
10132TIP3    H251812   4.728   4.486  13.817 -1.0371  0.1540  1.2223
10133TIP3   OH251813   5.341   1.911   2.409 -0.0629  0.1096 -0.0777
10133TIP3    H151814   5.431   1.933   2.385  0.7931 -2.8494 -0.0887
10133TIP3    H251815   5.307   1.863   2.334 -1.0159 -0.3113  0.5943
10134TIP3   OH251816   2.532   6.302  11.350 -0.4878  0.3223  0.3767
10134TIP3    H151817   2.570   6.342  11.272 -0.8419  1.5398  0.8167
10134TIP3    H251818   2.450   6.263  11.319 -0.2058  0.0435 -0.0265
10135TIP3   OH251819   4.354   4.842  14.972  0.8261  0.4695 -0.4221
10135TIP3    H151820   4.401   4.838  14.889  0.6894  1.2395 -0.5456
10135TIP3    H251821   4.278   4.897  14.954  0.4734  0.1544  0.0659
10136TIP3   OH251822   3.392   0.147   3.098  0.4088 -0.0439  0.2573
10136TIP3    H151823   3.314   0.140   3.152 -0.4365  2.8231 -0.4477
10136TIP3    H251824   3.367   0.108   3.015 -0.2204  0.6379  0.1151
10137TIP3   OH251825   4.586   0.917  13.601  1.3416  0.1757  0.1940
10137TIP3    H151826   4.521   0.957  13.544  1.6668  2.2873  1.2031
10137TIP3    H251827   4.565   0.824  13.601  0.4184  0.3388 -2.1358
10138TIP3   OH251828   2.363   1.303  15.106 -0.7333 -0.3114 -0.1604
10138TIP3    H151829   2.427   1.239  15.075 -0.5169  0.4568 -1.3296
10138TIP3    H251830   2.416   1.370  15.150 -0.9632 -0.9309  1.1048
10139TIP3   OH251831   3.534   4.983   2.021 -0.2093  0.3512 -0.4513
10139TIP3    H151832   3.520   4.964   1.929 -1.1902 -0.8851 -0.0769
10139TIP3    H251833   3.485   5.063   2.037 -1.0904 -0.1142 -0.7411
10140TIP3   OH251834   3.464   2.513  15.256  0.2780 -0.1490 -0.5435
10140TIP3    H151835   3.503   2.599  15.237  0.2618 -0.1352 -0.5142
10140TIP3    H251836   3.523   2.475  15.322  0.6360 -0.4236 -1.0167
10141TIP3   OH251837   4.330   3.861  11.619  0.6562  0.0216 -0.6279
10141TIP3    H151838   4.336   3.800  11.692 -0.2160  0.2377 -0.3691
10141TIP3    H251839   4.359   3.810  11.543 -0.1339 -0.7432 -0.4279
10142TIP3   OH251840   4.438   5.265  13.001  0.9002 -0.3173  0.0370
10142TIP3    H151841   4.368   5.249  13.064  1.5166 -0.5290  0.6859
10142TIP3    H251842   4.453   5.360  13.004  0.7081 -0.2846 -0.0348
10143TIP3   OH251843   2.298   6.643   0.656  0.1155 -0.1308 -0.4477
10143TIP3    H151844   2.229   6.685   0.605 -1.0444 -0.3780  0.8497
10143TIP3    H251845   2.370   6.707   0.655 -1.1696  1.4193  0.4851
10144TIP3   OH251846   1.936   4.642   5.031  0.0102 -0.4777 -0.4004
10144TIP3    H151847   1.988   4.566   5.060  1.3832  0.7582  0.5333
10144TIP3    H251848   1.999   4.698   4.986 -0.7531  0.5637 -0.2029
10145TIP3   OH251849   1.386   5.766   2.708  0.3187 -0.8082  0.0459
10145TIP3    H151850   1.381   5.783   2.614 -0.7718 -1.2921 -0.0043
10145TIP3    H251851   1.478   5.746   2.724  0.5715 -0.4151 -0.8607
10146TIP3   OH251852   2.795   3.998  10.583 -0.0982  0.2360 -0.4820
10146TIP3    H151853   2.790   4.050  10.503 -0.4200  1.9412  0.5778
10146TIP3    H251854   2.810   3.909  10.553 -0.6264  0.7514 -2.4446
10147TIP3   OH251855   5.750   6.340   2.600  0.0848  0.4215 -0.5130
10147TIP3    H151856   5.824   6.384   2.559 -0.9690  2.6472 -0.1517
10147TIP3    H251857   5.732   6.265   2.543  1.2774  1.0475 -1.7547
10148TIP3   OH251858   6.386   5.050  14.192  0.3877 -0.1066  0.5653
10148TIP3    H151859   6.319   5.104  14.235  1.1432 -0.2133  1.9382
10148TIP3    H251860   6.415   4.990  14.260  0.6970 -1.2008 -0.4996
10149TIP3   OH251861   3.108   5.740  13.975  0.3781 -0.3396  0.8604
10149TIP3    H151862   3.081   5.650  13.995 -0.0025  0.1642  2.8334
10149TIP3    H251863   3.033   5.777  13.928  0.0100 -0.6755  1.1743
10150TIP3   OH251864   5.879   1.165  11.057 -0.4964 -0.4440  0.2413
10150TIP3    H151865   5.966   1.148  11.093 -0.6277  0.5587  1.0655
10150TIP3    H251866   5.894   1.219  10.980 -0.3451 -0.9572 -0.0944
10151TIP3   OH251867   6.363   2.269   0.824 -0.1378  0.3753  0.4339
10151TIP3    H151868   6.378   2.349   0.773  1.7220 -0.1735  0.0117
10151TIP3    H251869   6.287   2.288   0.878  0.8132  2.7953  1.0601
10152TIP3   OH251870   0.216   6.087   0.390  0.4197 -0.6755  0.5822
10152TIP3    H151871   0.156   6.153   0.355  0.3332 -0.2434  1.5289
10152TIP3    H251872   0.303   6.122   0.373  0.3854 -0.5840  0.5983
10153TIP3   OH251873   1.356   5.612  17.076  0.5463 -0.3150 -0.0680
10153TIP3    H151874   1.335   5.521  17.099 -0.6535 -0.4991 -1.7177
10153TIP3    H251875   1.444   5.607  17.038  0.4589 -0.8031 -0.2133
10154TIP3   OH251876   4.624   0.041  16.229 -0.4331  0.5625 -0.4052
10154TIP3    H151877   4.579   0.120  16.197 -0.0542  0.8894 -0.1524
10154TIP3    H251878   4.573  -0.032  16.193 -0.6291  0.9217 -0.8818
10155TIP3   OH251879   0.624   3.972  15.085  0.3249 -0.0601  0.3196
10155TIP3    H151880   0.667   3.963  15.170  0.4715  2.5346  0.6116
10155TIP3    H251881   0.620   4.067  15.071 -0.2411 -0.4149 -2.3106
10156TIP3   OH251882   6.508   4.466  15.243  0.3360  0.4220 -0.3214
10156TIP3    H151883   6.575   4.457  15.311  2.5417  0.3814 -2.3309
10156TIP3    H251884   6.497   4.377  15.209  0.4789  0.6769 -1.0572
10157TIP3   OH251885   5.153   5.217  16.600 -0.2041 -0.0644  0.2749
10157TIP3    H151886   5.188   5.232  16.513 -0.9053 -1.0523 -0.1978
10157TIP3    H251887   5.064   5.253  16.596 -0.5831 -0.9712  0.2663
10158TIP3   OH251888   1.041   2.379  14.680  0.0811  0.0014 -0.0631
10158TIP3    H151889   1.101   2.311  14.710  1.4049  0.4538 -1.5628
10158TIP3    H251890   1.041   2.370  14.584 -0.4981  1.4609 -0.2212
10159TIP3   OH251891   4.632   1.610   3.574  0.7038  0.2239 -0.0238
10159TIP3    H151892   4.610   1.549   3.644  1.5451  1.2503  1.1938
10159TIP3    H251893   4.623   1.559   3.494  0.1027 -1.1084  0.8478
10160TIP3   OH251894   6.659   2.781   1.650 -0.2318  0.2267 -0.2354
10160TIP3    H151895   6.652   2.871   1.617  1.2283  0.0649 -1.0423
10160TIP3    H251896   6.632   2.788   1.742  2.0611  1.9729  0.4092
10161TIP3   OH251897   4.436   2.499  12.949  0.2145  0.4730  0.0805
10161TIP3    H151898   4.444   2.528  13.040  0.3826 -0.4950  0.3872
10161TIP3    H251899   4.360   2.546  12.915  0.8916  1.8229  0.3200
10162TIP3   OH251900   5.337   4.908   1.174  0.1134  0.2678  0.2053
10162TIP3    H151901   5.329   4.994   1.131  2.5338  1.2018  1.4323
10162TIP3    H251902   5.417   4.870   1.138 -0.7817 -1.4131 -0.1132
10163TIP3   OH251903   5.056   3.884  13.023 -0.3582 -0.1846 -0.2792
10163TIP3    H151904   4.997   3.891  12.948 -1.4937 -1.8294  0.4055
10163TIP3    H251905   5.009   3.926  13.095 -0.8350 -1.7057  0.3268
10164TIP3   OH251906   3.822   4.594   0.308  0.4512 -0.0905 -0.5888
10164TIP3    H151907   3.742   4.627   0.266  0.0725 -1.1216 -0.7120
10164TIP3    H251908   3.817   4.499   0.297  2.1052 -0.1272 -1.3171
10165TIP3   OH251909   5.259   3.727  12.919  0.3640  0.4499 -0.0588
10165TIP3    H151910   5.238   3.740  12.827  0.5770  0.1192 -0.1568
10165TIP3    H251911   5.202   3.788  12.966  0.5238  0.8914 -0.4336
10166TIP3   OH251912   2.395   2.007   1.756 -0.4377 -0.3978  0.0516
10166TIP3    H151913   2.444   1.951   1.695  0.6826 -2.2977  2.5259
10166TIP3    H251914   2.454   2.020   1.830 -1.9636  1.2968  1.0447
10167TIP3   OH251915   3.696   1.985  12.557  0.5658  0.1202 -0.5977
10167TIP3    H151916   3.698   1.942  12.472  1.2203  1.0179 -1.0622
10167TIP3    H251917   3.665   1.918  12.618 -2.2804  0.1203 -1.8868
10168TIP3   OH251918   4.235   2.898  16.457  0.1321 -0.1263  0.3624
10168TIP3    H151919   4.224   2.981  16.505 -1.4983  1.6124 -2.6496
10168TIP3    H251920   4.329   2.891  16.443  0.2962  1.4296  0.4302
10169TIP3   OH251921   6.214   2.483   1.505  0.0414 -0.1973 -0.7012
10169TIP3    H151922   6.204   2.578   1.518 -0.4005 -0.1387 -1.4331
10169TIP3    H251923   6.153   2.444   1.568  0.8334 -0.0369  0.2052
10170TIP3   OH251924   0.695   6.108  15.978  0.1048 -0.0568 -0.4509
10170TIP3    H151925   0.724   6.177  16.037 -3.0534  2.4660 -1.5605
10170TIP3    H251926   0.730   6.133  15.893 -3.3621  2.0632 -1.4535
10171TIP3   OH251927   0.971   0.256   5.309 -0.4694  0.3190 -0.6276
10171TIP3    H151928   0.968   0.190   5.239  2.6172 -0.3465 -0.2964
10171TIP3    H251929   0.932   0.213   5.384 -1.1916 -0.0283 -1.1930
10172TIP3   OH251930   4.429   0.593   0.494 -0.3563  0.2988  0.5682
10172TIP3    H151931   4.422   0.607   0.588  0.9834  2.1099  0.4570
10172TIP3    H251932   4.492   0.521   0.485 -0.8133 -0.1708  1.0363
10173TIP3   OH251933   5.751   5.556   4.183 -0.3348  0.4050 -0.2987
10173TIP3    H151934   5.732   5.648   4.200  0.6283  0.8620 -1.5409
10173TIP3    H251935   5.844   5.546   4.204 -0.8409 -0.7747  1.6371
10174TIP3   OH251936   5.137   6.759   0.895 -0.3583  0.2216  0.7926
10174TIP3    H151937   5.068   6.795   0.840  0.9038  1.9683  0.2587
10174TIP3    H251938   5.204   6.730   0.834  0.0857  0.0749  1.3379
10175TIP3   OH251939   4.125   1.550  16.477  0.1698 -0.4769 -0.1352
10175TIP3    H151940   4.151   1.591  16.560 -0.0915 -0.6404  0.0292
10175TIP3    H251941   4.177   1.470  16.472  0.9721  0.0658 -0.6473
10176TIP3   OH251942   1.753   1.573  15.030 -0.1732  0.3613 -0.5771
10176TIP3    H151943   1.701   1.624  15.092 -0.6216  1.4835 -1.8282
10176TIP3    H251944   1.688   1.537  14.969  0.3296 -0.0596 -0.8719
10177TIP3   OH251945   2.810   3.004  10.891 -0.3391  0.1236 -0.1393
10177TIP3    H151946   2.737   2.954  10.854 -0.7944  1.0039 -0.4794
10177TIP3    H251947   2.774   3.092  10.904  0.0163  0.0246  1.7658
10178TIP3   OH251948   3.066   6.473  16.042  0.2875 -0.0177 -0.0815
10178TIP3    H151949   3.106   6.436  16.121  2.5020  1.2091 -0.5244
10178TIP3    H251950   3.054   6.398  15.984 -2.1667 -1.0821  1.6434
10179TIP3   OH251951   6.438   3.551  12.657  0.3917 -0.4983  0.2569
10179TIP3    H151952   6.423   3.525  12.747 -0.4336  1.4689  0.7305
10179TIP3    H251953   6.364   3.607  12.635  0.9785 -0.2999 -1.3825
10180TIP3   OH251954   4.477   2.836  11.670  0.0229  0.4000  0.5932
10180TIP3    H151955   4.532   2.855  11.746  0.4808 -0.3468  0.4676
10180TIP3    H251956   4.509   2.895  11.602 -0.6801  1.3790  1.0933
10181TIP3   OH251957   4.638   5.295   0.683 -0.2295 -0.2102  0.5892
10181TIP3    H151958   4.650   5.250   0.599  0.9994  2.7572 -0.9643
10181TIP3    H251959   4.700   5.253   0.742 -0.7291 -1.9982 -0.0965
10182TIP3   OH251960   3.647   0.533  16.694  0.0635 -0.2284  0.0537
10182TIP3    H151961   3.687   0.559  16.777  1.5034  0.3268 -0.7702
10182TIP3    H251962   3.555   0.519  16.715  0.6669 -1.6627  2.0715
10183TIP3   OH251963   0.999   1.438   5.177 -0.3129  0.1143 -0.2305
10183TIP3    H151964   1.056   1.362   5.187 -0.0490  0.3157 -0.2074
10183TIP3    H251965   0.953   1.444   5.261 -0.7527 -0.3582 -0.4337
10184TIP3   OH251966   6.559   4.760  12.871  0.7115 -0.0987 -0.4186
10184TIP3    H151967   6.538   4.806  12.790  1.1365  0.8687 -0.0019
10184TIP3    H251968   6.652   4.739  12.864  1.4162  2.2163  0.8168
10185TIP3   OH251969   5.262   1.638   5.730 -0.2985  0.0439 -0.5707
10185TIP3    H151970   5.314   1.711   5.764 -1.2377  0.8081 -0.7216
10185TIP3    H251971   5.247   1.660   5.638  0.8154 -1.1889 -1.0899
10186TIP3   OH251972   4.125   3.810  13.097 -0.6064 -0.5674  0.1986
10186TIP3    H151973   4.040   3.816  13.141 -0.7326 -0.1899 -0.0876
10186TIP3    H251974   4.142   3.716  13.090 -0.9924 -0.6448  0.2770
10187TIP3   OH251975   3.459   5.298  12.051  0.0794 -0.0682  0.4298
10187TIP3    H151976   3.402   5.221  12.053  0.7925 -0.7629 -2.3049
10187TIP3    H251977   3.437   5.342  11.969  3.5641 -0.5584 -0.9589
10188TIP3   OH251978   3.955   3.730  16.967 -0.9467  0.1133  0.5308
10188TIP3    H151979   3.932   3.785  17.042 -2.4507 -1.3982  1.2609
10188TIP3    H251980   3.910   3.647  16.984  2.6149 -2.0645  0.3903
10189TIP3   OH251981   5.726   1.996  16.226 -0.3462  0.6895 -0.2294
10189TIP3    H151982   5.702   1.920  16.280 -1.1952  1.0630 -0.0587
10189TIP3    H251983   5.647   2.014  16.175  0.2135  0.7901 -1.0741
10190TIP3   OH251984   5.266   6.269   4.726 -0.3986 -0.2460  0.3137
10190TIP3    H151985   5.341   6.235   4.678 -0.3454  0.1581  0.1105
10190TIP3    H251986   5.262   6.215   4.805 -0.6628 -1.1063 -0.2695
10191TIP3   OH251987   4.027   4.984  15.357 -0.9575  0.2439 -0.3821
10191TIP3    H151988   3.942   5.016  15.385 -1.4810 -2.4548  1.4638
10191TIP3    H251989   4.008   4.915  15.294 -0.3057 -1.5680  1.3077
10192TIP3   OH251990   6.713   4.289   3.922 -1.0854 -0.2543 -0.3912
10192TIP3    H151991   6.793   4.302   3.872 -0.7001 -1.7555 -0.2291
10192TIP3    H251992   6.743   4.270   4.011 -1.7448  1.9453  0.3725
10193TIP3   OH251993   5.922   1.401  14.052  0.2152  0.1771 -0.0997
10193TIP3    H151994   5.855   1.360  13.998 -0.2033  0.1758  0.4135
10193TIP3    H251995   5.919   1.353  14.135 -0.6196  1.5384  0.6942
10194TIP3   OH251996   1.541   2.293   5.970 -0.3178  0.4424  0.1182
10194TIP3    H151997   1.551   2.237   5.893  1.4007  1.9367 -0.8357
10194TIP3    H251998   1.575   2.240   6.043  2.0347  0.4416 -0.8939
10195TIP3   OH251999   6.768   6.664  10.600 -0.5016 -0.1743 -0.1612
10195TIP3    H152000   6.813   6.658  10.516 -0.9177 -1.3285 -0.3203
10195TIP3    H252001   6.796   6.747  10.637  1.0097 -0.4361 -0.6819
10196TIP3   OH252002   0.606   2.625   0.344  0.1725  0.5237  0.3774
10196TIP3    H152003   0.608   2.575   0.426 -0.4014 -0.8590 -0.4059
10196TIP3    H252004   0.680   2.591   0.294 -0.9475 -0.4737 -0.6603
10197TIP3   OH252005   6.639   1.849   0.366 -0.1200  0.4851 -0.1039
10197TIP3    H152006   6.556   1.896   0.351  0.4977  1.0891 -1.8987
10197TIP3    H252007   6.700   1.889   0.304  1.2336 -0.6916  0.4322
10198TIP3   OH252008   4.620   5.710  15.166  0.4073  0.3156  0.2211
10198TIP3    H152009   4.638   5.787  15.219  1.0849  0.9570 -0.9313
10198TIP3    H252010   4.524   5.706  15.162  0.3314  0.1926  1.5467
10199TIP3   OH252011   6.484   2.155  14.410  0.0865  0.4751  0.0769
10199TIP3    H152012   6.484   2.188  14.500  0.7888 -1.2079  0.7364
10199TIP3    H252013   6.403   2.103  14.404  1.1185 -1.2585  0.5032
10200TIP3   OH252014   2.590   4.964   4.702 -0.0987  0.2162 -0.2303
10200TIP3    H152015   2.568   4.887   4.755 -1.0724  0.3460 -0.4243
10200TIP3    H252016   2.630   4.929   4.623  1.3348  0.0158  0.5516
10201TIP3   OH252017   6.652   2.987   3.736  0.0584 -0.3235 -0.0592
10201TIP3    H152018   6.737   2.981   3.693  0.1857  0.4434  0.0889
10201TIP3    H252019   6.608   2.905   3.711 -0.4741  0.7119 -2.9156
10202TIP3   OH252020   1.116   2.900   6.084  0.0754 -0.0066  0.5826
10202TIP3    H152021   1.154   2.963   6.146  0.9021 -0.5383  0.6447
10202TIP3    H252022   1.025   2.891   6.112  0.6506 -0.9587  2.3820
10203TIP3   OH252023   4.555   0.570   1.244 -0.7717 -0.8098 -0.1188
10203TIP3    H152024   4.527   0.622   1.319  0.3395 -3.6149  2.4606
10203TIP3    H252025   4.649   0.587   1.237 -1.0750  0.5261 -1.9516
10204TIP3   OH252026   3.619   0.757   1.033  0.0119  0.4645 -0.2223
10204TIP3    H152027   3.708   0.780   1.062 -0.3797  0.7745  0.7622
10204TIP3    H252028   3.632   0.715   0.948  1.1999 -0.4558  0.3828
10205TIP3   OH252029   4.951   2.169   0.673  1.3567  0.3549  0.6513
10205TIP3    H152030   5.001   2.088   0.665 -0.6485 -0.8692 -0.4749
10205TIP3    H252031   4.918   2.168   0.763  0.9651 -0.3459  0.5066
10206TIP3   OH252032   1.185   0.357   3.904  0.1345 -0.2148  0.5222
10206TIP3    H152033   1.233   0.363   3.821  1.5919  0.4690  1.3813
10206TIP3    H252034   1.094   0.372   3.879  0.7566  1.9132 -0.7426
10207TIP3   OH252035   4.185   6.667   4.294  0.5007  0.1287 -0.1839
10207TIP3    H152036   4.202   6.574   4.280  2.2812  0.0009  2.2451
10207TIP3    H252037   4.270   6.709   4.287 -0.2271  1.5664 -0.9157
10208TIP3   OH252038   5.744   6.540  13.504  0.1506  0.6585 -0.3719
10208TIP3    H152039   5.653   6.570  13.503  0.3809  1.5800  1.7317
10208TIP3    H252040   5.759   6.507  13.416 -2.1952  0.5546 -0.8005
10209TIP3   OH252041   5.672   5.496   3.472 -0.8055  0.0079 -0.0778
10209TIP3    H152042   5.591   5.541   3.446 -0.2068  0.6991 -0.7821
10209TIP3    H252043   5.731   5.566   3.499 -0.8444 -0.5758  1.6476
10210TIP3   OH252044   6.799   0.619  12.966 -0.7391 -0.2036 -0.4009
10210TIP3    H152045   6.762   0.637  12.879 -1.1987  2.1466  0.1908
10210TIP3    H252046   6.771   0.694  13.019  0.7859 -0.8201  1.3780
10211TIP3   OH252047   3.665   2.703   4.445  0.4515  0.3696 -0.3216
10211TIP3    H152048   3.636   2.612   4.452  1.3657  0.1418  1.0044
10211TIP3    H252049   3.756   2.697   4.417 -0.1929  1.0026 -2.7631
10212TIP3   OH252050   4.259   1.403  10.867 -0.3305  0.5565  0.1099
10212TIP3    H152051   4.210   1.469  10.818 -0.9183  1.5727  1.9680
10212TIP3    H252052   4.215   1.321  10.847 -1.4572  1.1590  0.0452
10213TIP3   OH252053   0.378   3.890   1.022  0.3274 -0.0010 -0.0332
10213TIP3    H152054   0.426   3.954   1.075  1.6133 -0.3279 -0.7825
10213TIP3    H252055   0.393   3.917   0.932  0.7549 -1.2685 -0.3527
10214TIP3   OH252056   3.390   0.242  14.526  0.1532 -0.7532  0.1900
10214TIP3    H152057   3.392   0.160  14.477 -0.0883 -1.3023  1.0856
10214TIP3    H252058   3.465   0.236  14.586 -1.2205 -1.3758  1.9191
10215TIP3   OH252059   2.166   6.186  14.323 -0.1429  0.6099 -0.0805
10215TIP3    H152060   2.082   6.153  14.356  0.2529 -1.1543 -0.7473
10215TIP3    H252061   2.161   6.281  14.336 -1.7573  0.4208  0.9746
10216TIP3   OH252062   6.199   3.316   3.728 -0.5498  0.4617  0.0389
10216TIP3    H152063   6.207   3.343   3.637 -1.6818  0.4803 -0.0698
10216TIP3    H252064   6.246   3.233   3.734 -0.2111  0.6136 -0.4774
10217TIP3   OH252065   5.856   2.566   1.236 -0.3153  0.3173 -0.4042
10217TIP3    H152066   5.939   2.520   1.226  0.1048  1.4141 -2.6599
10217TIP3    H252067   5.792   2.510   1.193 -0.7054 -0.3042  0.9259
10218TIP3   OH252068   0.220   2.326   0.877  0.3408  0.0369  0.3806
10218TIP3    H152069   0.200   2.294   0.965  0.4310  1.2033  0.8384
10218TIP3    H252070   0.205   2.250   0.820 -0.6766 -0.4701  1.2828
10219TIP3   OH252071   6.204   1.091   3.092  0.0580 -0.1102  0.7231
10219TIP3    H152072   6.298   1.076   3.080  0.1876  1.3856 -0.4339
10219TIP3    H252073   6.172   1.110   3.003 -0.9046  1.6123  1.3927
10220TIP3   OH252074   5.504   3.720   1.754 -0.1573 -0.1215  0.4954
10220TIP3    H152075   5.547   3.685   1.832 -1.7830  0.5446  1.7460
10220TIP3    H252076   5.480   3.643   1.703  2.3200 -0.5152 -0.1807
10221TIP3   OH252077   3.803   4.692   5.880  0.2126  0.2589 -0.0957
10221TIP3    H152078   3.808   4.609   5.927  0.9050  0.2193 -0.2310
10221TIP3    H252079   3.861   4.751   5.929  0.5394  0.3641 -0.5977
10222TIP3   OH252080   3.797   3.452  13.788  0.2956  0.2086 -0.3876
10222TIP3    H152081   3.748   3.389  13.735 -1.2010  1.0422 -0.0314
10222TIP3    H252082   3.828   3.402  13.863 -0.1763 -0.2724 -0.5106
10223TIP3   OH252083   6.142   5.976   0.864 -0.1700  0.4825 -0.0293
10223TIP3    H152084   6.199   5.976   0.787 -1.1783 -2.3114 -0.8986
10223TIP3    H252085   6.163   5.894   0.909 -0.1380  1.7068  2.3244
10224TIP3   OH252086   4.622   0.629  13.552  0.1345  0.0657  0.4564
10224TIP3    H152087   4.587   0.563  13.493  0.9150 -0.4794  0.5839
10224TIP3    H252088   4.580   0.612  13.636 -1.0750  0.9239  0.0502
10225TIP3   OH252089   4.010   0.304   4.432  0.7933 -0.1956  0.7529
10225TIP3    H152090   3.976   0.248   4.362 -1.7162  3.4717 -1.3325
10225TIP3    H252091   4.019   0.246   4.507 -1.8670 -3.3305 -1.0589
10226TIP3   OH252092   4.611   3.331   3.879 -0.7686 -0.0554 -0.3661
10226TIP3    H152093   4.648   3.253   3.838 -0.0274  0.7709 -1.3194
10226TIP3    H252094   4.662   3.403   3.843 -1.7892  0.9178  0.0878
10227TIP3   OH252095   2.996   4.545  14.739  0.0072 -0.0105  0.3397
10227TIP3    H152096   2.944   4.575  14.813  1.2697 -0.2997  1.3663
10227TIP3    H252097   2.978   4.451  14.734 -0.2975  0.0596  0.0935
10228TIP3   OH252098   2.534   1.129   3.310  0.5798  0.2262 -0.3432
10228TIP3    H152099   2.518   1.132   3.404 -0.4250 -0.1680 -0.4900
10228TIP3    H252100   2.598   1.059   3.298 -0.9707 -1.2671 -0.1591
10229TIP3   OH252101   6.113   0.903  16.101  0.5526 -0.2882 -0.6417
10229TIP3    H152102   6.023   0.886  16.073  0.3406  0.3758 -0.3947
10229TIP3    H252103   6.129   0.840  16.171 -0.1479  0.3661  0.1357
10230TIP3   OH252104   3.995   5.340   3.180  0.2527 -0.5630  0.4056
10230TIP3    H152105   4.046   5.262   3.201  0.0543 -0.7608  0.1536
10230TIP3    H252106   4.029   5.370   3.096 -0.0094 -0.6672  0.2606
10231TIP3   OH252107   6.222   6.528   1.157  0.4591 -0.2826 -0.0291
10231TIP3    H152108   6.235   6.622   1.145  0.9496 -0.2593  0.5963
10231TIP3    H252109   6.272   6.488   1.086  0.3703 -0.0764 -0.2109
10232TIP3   OH252110   5.026   5.299  15.330  0.6518  0.6528  0.5066
10232TIP3    H152111   5.003   5.221  15.381 -0.7625  2.1043  2.2585
10232TIP3    H252112   5.018   5.272  15.239 -0.2561 -1.1331  1.0749
10233TIP3   OH252113   2.919   0.077  13.181  0.5999 -0.1667  0.3536
10233TIP3    H152114   3.006   0.045  13.204  1.0638  0.2631 -0.7077
10233TIP3    H252115   2.919   0.168  13.210  0.0160 -0.5315  1.5404
10234TIP3   OH252116   6.187   3.738   5.343 -0.3145  0.2058  0.3759
10234TIP3    H152117   6.159   3.828   5.327  0.9306  0.3975 -0.8768
10234TIP3    H252118   6.107   3.686   5.333 -0.5081  0.8518 -1.9993
10235TIP3   OH252119   5.187   5.467  14.592  0.5449 -0.5464 -0.1251
10235TIP3    H152120   5.196   5.548  14.641  1.3465 -1.6205  1.6186
10235TIP3    H252121   5.276   5.433  14.586  0.1515 -1.5977 -0.2499
10236TIP3   OH252122   2.647   5.856  14.697  0.5316 -0.2436  0.9494
10236TIP3    H152123   2.723   5.899  14.658 -0.3987 -0.6863 -1.5508
10236TIP3    H252124   2.660   5.763  14.677  0.0872 -0.5139  1.8883
10237TIP3   OH252125   4.301   6.030   2.106 -0.3627  0.3322 -0.0032
10237TIP3    H152126   4.289   6.125   2.101  0.6798  0.5196  0.8268
10237TIP3    H252127   4.357   6.009   2.031  0.3518  0.5522  0.4564
10238TIP3   OH252128   1.809   1.160  14.859  0.0282  0.5416 -0.6415
10238TIP3    H152129   1.901   1.144  14.836  0.5358  1.3712  0.7002
10238TIP3    H252130   1.789   1.095  14.926 -0.8789 -0.6696 -2.0313
10239TIP3   OH252131   4.599   0.353   6.115  0.3003  0.3426 -0.1758
10239TIP3    H152132   4.588   0.341   6.021  0.9102  1.5361 -0.4061
10239TIP3    H252133   4.509   0.351   6.149  0.0030  0.8496 -0.8978
10240TIP3   OH252134   5.051   5.396  14.349  0.1387  0.2678  0.3794
10240TIP3    H152135   5.104   5.388  14.428  3.8272 -0.6276 -1.9118
10240TIP3    H252136   5.009   5.310  14.340 -1.5699  0.8684  2.0477
10241TIP3   OH252137   0.356   1.847   5.903 -0.0148 -0.4534  0.4075
10241TIP3    H152138   0.307   1.863   5.984 -1.8638  0.1738 -0.7654
10241TIP3    H252139   0.412   1.924   5.892 -0.1091 -0.3232  0.8315
10242TIP3   OH252140   1.436   4.910  12.131 -0.0736 -0.1232 -0.6958
10242TIP3    H152141   1.408   4.969  12.202 -0.5737 -0.1759 -0.8450
10242TIP3    H252142   1.375   4.928  12.059 -0.8162 -1.4623 -0.4380
10243TIP3   OH252143   5.950   1.994  12.021  0.5437  0.2817  0.0792
10243TIP3    H152144   5.984   1.907  12.000  2.3643  0.7396  0.9321
10243TIP3    H252145   6.017   2.054  11.990 -0.8850  1.4409 -0.8753
10244TIP3   OH252146   6.322   3.999   5.152 -0.3709 -0.0170  0.3782
10244TIP3    H152147   6.272   4.066   5.198 -0.5401  0.8601 -1.0402
10244TIP3    H252148   6.256   3.947   5.106 -0.1304 -0.1873  0.2212
10245TIP3   OH252149   4.521   5.409   6.789 -0.1717 -0.2691  0.0323
10245TIP3    H152150   4.553   5.439   6.703  1.2759  2.0824  1.2790
10245TIP3    H252151   4.452   5.472   6.811  0.5209  0.0872  1.2297
10246TIP3   OH252152   0.106   2.615  15.628  0.0925 -0.8543 -0.0094
10246TIP3    H152153   0.045   2.681  15.661  0.0217 -0.6382 -0.5591
10246TIP3    H252154   0.142   2.573  15.707 -1.7231 -1.8886  0.3371
10247TIP3   OH252155   6.501   6.400  13.774  0.5513 -0.4639  0.1185
10247TIP3    H152156   6.574   6.448  13.812  0.6490 -0.6309  0.1422
10247TIP3    H252157   6.427   6.419  13.832 -0.5791  3.2277 -2.1713
10248TIP3   OH252158   0.232   4.188  16.870 -0.3683  0.2148  0.4385
10248TIP3    H152159   0.175   4.205  16.796  0.5832  0.7227 -0.2051
10248TIP3    H252160   0.173   4.169  16.943 -1.3290  0.3168 -0.2973
10249TIP3   OH252161   4.920   6.523   0.084 -0.6355 -0.3422  0.3196
10249TIP3    H152162   4.993   6.462   0.074 -0.2013  0.1269  0.5368
10249TIP3    H252163   4.849   6.485   0.032 -0.1235 -0.6264 -0.1874
10250TIP3   OH252164   3.544   3.137   3.781 -0.0939 -0.1974 -0.6850
10250TIP3    H152165   3.492   3.182   3.847  0.4591  0.4654 -0.6884
10250TIP3    H252166   3.619   3.102   3.829 -0.9538 -1.9213 -0.5142
10251TIP3   OH252167   3.579   3.937  16.013  0.2713 -0.0355  0.0202
10251TIP3    H152168   3.633   3.914  15.937  1.5301  1.6385  0.3714
10251TIP3    H252169   3.641   3.950  16.084 -0.5751  1.8146  0.4688
10252TIP3   OH252170   1.713   3.915  14.742 -0.0514 -0.2072  0.2179
10252TIP3    H152171   1.745   3.932  14.830  0.9477 -0.2772 -0.1125
10252TIP3    H252172   1.750   3.985  14.689 -1.3095  0.3074 -0.0191
10253TIP3   OH252173   2.260   5.939   5.779  0.0682  0.2624 -0.5775
10253TIP3    H152174   2.196   5.959   5.847  1.7898  0.8989  0.9421
10253TIP3    H252175   2.333   5.997   5.798  1.6178 -1.3093 -1.4953
10254TIP3   OH252176   0.856   2.035   2.647  0.4726 -0.8385 -0.4130
10254TIP3    H152177   0.898   2.117   2.674 -0.8254 -0.0533 -0.7186
10254TIP3    H252178   0.876   2.028   2.554 -2.8273  1.3612 -1.4585
10255TIP3   OH252179   2.602   0.310   3.346 -0.3288 -0.1941 -0.5804
10255TIP3    H152180   2.615   0.278   3.257  0.8809  1.3011 -0.9802
10255TIP3    H252181   2.526   0.262   3.377 -0.5215 -1.0665 -2.2616
10256TIP3   OH252182   2.771   4.683   2.117  0.5052 -0.3918  0.3120
10256TIP3    H152183   2.817   4.684   2.033  1.3235 -1.0456  0.7430
10256TIP3    H252184   2.840   4.696   2.183  0.0801 -1.3937  0.9691
10257TIP3   OH252185   1.534   2.258  15.271 -0.1596  0.0369 -0.2132
10257TIP3    H152186   1.540   2.351  15.247 -0.1463  0.3125  0.8064
10257TIP3    H252187   1.476   2.257  15.347  1.4690 -0.5239  1.0755
10258TIP3   OH252188   0.077   5.727  16.405 -0.5618  0.0922  0.4248
10258TIP3    H152189   0.033   5.728  16.489 -0.2198  1.3562  0.6040
10258TIP3    H252190   0.013   5.764  16.344 -0.2228  0.7142  0.4433
10259TIP3   OH252191   2.895   3.505  15.997 -0.6383 -1.1465 -0.0409
10259TIP3    H152192   2.982   3.476  15.970 -1.3474 -1.1039 -2.5484
10259TIP3    H252193   2.852   3.425  16.028  0.0117 -1.2934  0.5303
10260TIP3   OH252194   6.304   3.277  11.505 -0.1204 -0.0716  0.6402
10260TIP3    H152195   6.346   3.281  11.419  0.1434 -0.6965  0.7333
10260TIP3    H252196   6.328   3.191  11.539 -0.9256 -0.1645  0.9831
10261TIP3   OH252197   0.540   6.195   1.778  0.4001  0.0718 -0.1319
10261TIP3    H152198   0.457   6.151   1.760 -0.8128  2.0747  0.2116
10261TIP3    H252199   0.549   6.192   1.873  1.4111 -1.2248 -0.2314
10262TIP3   OH252200   3.180   1.403   5.698  0.3821 -0.5291  0.0139
10262TIP3    H152201   3.181   1.452   5.781  1.9721  0.2043 -0.4014
10262TIP3    H252202   3.219   1.319   5.720 -1.2992 -1.2310  0.4753
10263TIP3   OH252203   0.096   0.113   0.168 -0.1530  0.2367 -0.5562
10263TIP3    H152204   0.180   0.149   0.194 -0.7941  2.0092 -0.8417
10263TIP3    H252205   0.040   0.124   0.245 -0.4505  0.1350 -0.7553
10264TIP3   OH252206   3.224   1.502  12.336 -0.2998  0.0725  0.5264
10264TIP3    H152207   3.217   1.485  12.430 -0.5073  0.6806  0.6248
10264TIP3    H252208   3.150   1.454  12.297 -1.0146  0.9001  0.8243
10265TIP3   OH252209   1.025   3.502   0.941  0.1115 -0.9627 -0.1226
10265TIP3    H152210   1.066   3.465   0.863  0.5671  2.2053 -1.5264
10265TIP3    H252211   0.935   3.519   0.915  0.3188  0.3019 -0.0778
10266TIP3   OH252212   2.086   0.707  16.274  0.4261  0.5013 -0.4408
10266TIP3    H152213   2.004   0.730  16.318  0.6410  0.6540 -0.1227
10266TIP3    H252214   2.155   0.736  16.334  0.7100  0.0374 -0.5372
10267TIP3   OH252215   2.700   1.489   2.374  0.4055  0.9154 -0.5793
10267TIP3    H152216   2.709   1.541   2.454  2.8652 -0.6289  0.2539
10267TIP3    H252217   2.637   1.537   2.321 -2.5192  1.2672  2.8527
10268TIP3   OH252218   0.510   4.839  10.433  0.0943  0.3618  0.2512
10268TIP3    H152219   0.575   4.827  10.502  0.3083  2.5031  0.4924
10268TIP3    H252220   0.426   4.830  10.477  0.2318  1.3420  0.7499
10269TIP3   OH252221   1.029   6.052   1.816 -0.1896 -0.2810  0.2007
10269TIP3    H152222   1.046   5.961   1.790  0.8898 -0.2635  0.7854
10269TIP3    H252223   1.116   6.089   1.831 -0.5854  1.0489 -0.6656
10270TIP3   OH252224   5.176   5.559   0.077  0.1799  0.3704 -0.3500
10270TIP3    H152225   5.139   5.489   0.022 -1.0174  0.9232 -0.2778
10270TIP3    H252226   5.188   5.633   0.018  1.1201  0.2349 -0.3493
10271TIP3   OH252227   4.665   0.606  16.744  0.5991 -0.7251  0.2248
10271TIP3    H152228   4.746   0.636  16.784  1.0908 -1.8973  0.1512
10271TIP3    H252229   4.677   0.621  16.650  0.1500  0.4003  0.3331
10272TIP3   OH252230   5.819   0.259  14.582 -0.1698  0.1526 -0.7492
10272TIP3    H152231   5.793   0.179  14.537  2.8658 -0.9426 -0.8123
10272TIP3    H252232   5.815   0.238  14.675 -2.7564  1.1742 -0.5502
10273TIP3   OH252233   4.317   1.634  16.260 -0.1820  0.0643 -0.0063
10273TIP3    H152234   4.261   1.664  16.332  0.4802  1.3252  0.0087
10273TIP3    H252235   4.273   1.556  16.227 -2.5587  1.6044 -0.7214
10274TIP3   OH252236   1.225   0.318  16.330  0.1142 -0.3907  0.2456
10274TIP3    H152237   1.234   0.297  16.236 -0.1033  0.7969 -0.0520
10274TIP3    H252238   1.155   0.383  16.333  0.8234  0.3534  1.1179
10275TIP3   OH252239   4.004   2.732   4.517 -0.2534 -0.1784 -0.0380
10275TIP3    H152240   4.016   2.807   4.459  0.5211 -0.4931 -0.3020
10275TIP3    H252241   4.024   2.656   4.462 -1.5821 -0.6211  0.0679
10276TIP3   OH252242   1.865   3.509   6.695 -0.0399 -0.0158 -0.1300
10276TIP3    H152243   1.829   3.421   6.697 -1.8174  0.6487 -0.7245
10276TIP3    H252244   1.822   3.554   6.768  0.0215  0.6367 -0.4861
10277TIP3   OH252245   2.037   1.112   4.193 -0.6660 -0.4415  0.5512
10277TIP3    H152246   1.990   1.083   4.114  0.5071  1.2895 -0.8509
10277TIP3    H252247   2.046   1.032   4.246 -1.3750 -1.6904 -1.1192
10278TIP3   OH252248   6.137   5.470   2.124  0.2290 -0.5167  0.3397
10278TIP3    H152249   6.043   5.485   2.129  0.1458 -1.1799  0.9381
10278TIP3    H252250   6.170   5.493   2.211  0.6927  0.1586 -0.0049
10279TIP3   OH252251   1.972   6.510   4.041 -0.0539  0.4943  0.1099
10279TIP3    H152252   1.878   6.497   4.056  0.3307 -0.8971  1.5306
10279TIP3    H252253   1.995   6.582   4.100  0.0145 -0.0664  0.7831
10280TIP3   OH252254   3.042   2.863  11.245  0.4671  0.2960 -0.6558
10280TIP3    H152255   3.073   2.931  11.185  0.3299  0.0671 -0.9856
10280TIP3    H252256   3.097   2.787  11.225  0.4066  0.2107 -0.5026
10281TIP3   OH252257   2.342   1.973   0.445 -0.1121 -0.3903 -0.2870
10281TIP3    H152258   2.253   2.007   0.434 -0.2530 -1.1088 -1.5436
10281TIP3    H252259   2.398   2.035   0.398 -0.2712 -1.3100 -1.7845
10282TIP3   OH252260   3.788   3.017  13.268 -0.2725 -0.2442  0.3022
10282TIP3    H152261   3.699   2.998  13.297 -0.9555  0.2245 -1.4030
10282TIP3    H252262   3.783   3.019  13.173  1.8345 -1.4674  0.1032
10283TIP3   OH252263   6.046   1.901  11.107  0.3703 -0.7540 -0.4637
10283TIP3    H152264   6.006   1.988  11.110 -0.3808 -1.1085  1.8112
10283TIP3    H252265   6.085   1.895  11.020  1.8816  2.5137 -0.1609
10284TIP3   OH252266   1.050   2.618  11.768  0.5555 -0.1926  0.4414
10284TIP3    H152267   1.103   2.687  11.810 -0.5830  0.7498  0.4006
10284TIP3    H252268   1.058   2.543  11.827 -0.1200  0.7587  1.8260
10285TIP3   OH252269   3.389   0.399   1.546  0.0716 -0.4598 -0.0356
10285TIP3    H152270   3.413   0.375   1.635 -0.1995 -0.0947  0.1379
10285TIP3    H252271   3.298   0.426   1.552 -0.0013 -0.5966 -0.4561
10286TIP3   OH252272   1.810   2.316   4.404  0.1286  0.6812  0.2022
10286TIP3    H152273   1.867   2.345   4.333  0.2726  0.6198  0.2926
10286TIP3    H252274   1.773   2.233   4.372  0.9441  0.1523  0.5915
10287TIP3   OH252275   1.765   6.449   6.004 -0.3498 -0.0113 -0.6660
10287TIP3    H152276   1.725   6.506   6.070  0.2366  2.3421 -2.2095
10287TIP3    H252277   1.858   6.449   6.026 -0.2284  0.3541 -1.1474
10288TIP3   OH252278   0.607   6.542  12.157  0.2711 -0.3134 -0.6869
10288TIP3    H152279   0.571   6.455  12.180  0.6470 -0.2546  0.1744
10288TIP3    H252280   0.701   6.532  12.168  0.4460 -0.1672 -1.9234
10289TIP3   OH252281   6.601   0.907   4.080 -0.3981 -0.0420 -0.1835
10289TIP3    H152282   6.668   0.846   4.049  2.0735  1.5487  1.6505
10289TIP3    H252283   6.536   0.852   4.124  1.4827 -1.4467  0.9799
10290TIP3   OH252284   0.304   6.514   4.380  0.1924 -0.4554  0.1285
10290TIP3    H152285   0.317   6.457   4.303  1.4571  0.0588 -0.0751
10290TIP3    H252286   0.321   6.602   4.348 -2.4948  0.1944  0.2666
10291TIP3   OH252287   2.918   1.041  13.856  1.0462 -0.0714 -0.4591
10291TIP3    H152288   2.900   1.128  13.892 -0.7394 -0.3284 -0.6445
10291TIP3    H252289   2.918   1.053  13.761  0.3727 -0.3219 -0.5003
10292TIP3   OH252290   6.151   3.310  16.674  0.0637 -0.4090 -0.6380
10292TIP3    H152291   6.206   3.234  16.656 -1.4928 -1.8541  0.3354
10292TIP3    H252292   6.109   3.289  16.758  0.2596  1.9474  0.1204
10293TIP3   OH252293   5.658   3.849  13.634 -0.4228 -0.3368 -0.3610
10293TIP3    H152294   5.685   3.848  13.542 -0.3138  1.2811 -0.3693
10293TIP3    H252295   5.592   3.779  13.641 -1.1574  0.1773 -1.8870
10294TIP3   OH252296   4.825   4.164   4.856 -0.6155 -0.5597  0.0640
10294TIP3    H152297   4.737   4.199   4.870 -0.6830 -0.6571 -0.1220
10294TIP3    H252298   4.819   4.073   4.886 -0.8977 -0.9267 -1.0801
10295TIP3   OH252299   3.078   2.379  13.618  0.4585 -0.8571 -0.0568
10295TIP3    H152300   3.155   2.353  13.670 -0.5620  0.8575  2.5099
10295TIP3    H252301   3.012   2.313  13.638  0.2353 -0.5030  0.3704
10296TIP3   OH252302   0.799   1.897  11.373  0.2219  0.3238 -0.0223
10296TIP3    H152303   0.722   1.871  11.423  0.9816 -2.9703 -0.3466
10296TIP3    H252304   0.830   1.977  11.417 -1.8730  0.2877  1.6950
10297TIP3   OH252305   4.385   2.747   6.407 -0.1133 -0.4173 -0.0361
10297TIP3    H152306   4.347   2.812   6.348  0.9321  0.5446  0.3228
10297TIP3    H252307   4.322   2.675   6.407 -0.1658 -0.4136 -2.2380
10298TIP3   OH252308   6.222   1.882  15.292 -0.6674  0.0113 -0.6063
10298TIP3    H152309   6.197   1.970  15.265  1.6540  1.2121  0.8257
10298TIP3    H252310   6.286   1.896  15.362 -0.7257 -2.8364  0.1244
10299TIP3   OH252311   0.438   4.264  12.884  0.6981 -0.5817 -0.9567
10299TIP3    H152312   0.531   4.270  12.906 -0.1232  1.5827  2.8698
10299TIP3    H252313   0.418   4.347  12.841 -0.2350  1.5093  2.9771
10300TIP3   OH252314   2.091   2.217  13.279 -0.2759 -0.2016 -0.3322
10300TIP3    H152315   2.013   2.166  13.300 -0.5100  0.3932  0.3021
10300TIP3    H252316   2.103   2.206  13.185  0.2427 -2.1882 -0.0757
10301TIP3   OH252317   5.197   3.336  14.890 -0.1407  0.3825 -0.3887
10301TIP3    H152318   5.282   3.372  14.862 -0.4488 -0.3451 -2.4879
10301TIP3    H252319   5.200   3.244  14.863 -1.9830  0.6073 -1.5508
10302TIP3   OH252320   6.791   0.337   4.644  0.1948  0.0393  0.0659
10302TIP3    H152321   6.863   0.314   4.703 -0.7919  1.8241  2.1395
10302TIP3    H252322   6.818   0.420   4.605 -0.9176  1.0420  1.3295
10303TIP3   OH252323   6.248   1.350  14.349 -0.1768  0.1759 -0.9996
10303TIP3    H152324   6.218   1.282  14.411 -0.8638  0.5573 -0.9059
10303TIP3    H252325   6.252   1.305  14.265 -1.9361  0.3264 -1.1998
10304TIP3   OH252326   4.971   4.610  13.799  0.1274  0.9433 -0.1829
10304TIP3    H152327   4.917   4.582  13.873  0.7186  2.5550  0.9334
10304TIP3    H252328   4.922   4.682  13.760 -0.1203  0.1818 -1.3159
10305TIP3   OH252329   4.162   4.012   2.531  0.5722 -0.4678  0.2596
10305TIP3    H152330   4.173   4.103   2.560 -0.5717 -0.4580  0.7125
10305TIP3    H252331   4.235   3.965   2.571 -0.9998 -0.5011  3.4581
10306TIP3   OH252332   2.189   6.441  12.662  0.5925  0.0046 -0.3443
10306TIP3    H152333   2.261   6.380  12.677  0.4487 -0.3114 -0.9291
10306TIP3    H252334   2.176   6.484  12.747 -0.5520 -2.1282  0.6530
10307TIP3   OH252335   5.938   0.537  15.409 -0.0833 -1.1329  0.4082
10307TIP3    H152336   5.881   0.584  15.348  1.6325  0.2421 -0.2168
10307TIP3    H252337   6.007   0.501  15.354  3.5706  3.1515  1.6416
10308TIP3   OH252338   3.046   1.975   1.970  0.1865 -0.4869 -0.1242
10308TIP3    H152339   3.082   2.016   1.892 -1.5079  0.4617 -0.4553
10308TIP3    H252340   2.964   2.021   1.986 -0.4709 -1.9744  1.0821
10309TIP3   OH252341   1.914   3.746   4.356  0.0383  1.0455 -0.2846
10309TIP3    H152342   1.933   3.799   4.278 -1.4196 -0.1354 -1.4991
10309TIP3    H252343   1.819   3.735   4.355 -0.0243  1.1394  1.7847
10310TIP3   OH252344   4.227   2.870  14.241 -0.0928 -0.1857  0.1322
10310TIP3    H152345   4.310   2.908  14.271 -0.2777  0.2887  0.0449
10310TIP3    H252346   4.171   2.871  14.318  0.8280 -3.0020  0.9522
10311TIP3   OH252347   2.066   6.579   0.132  0.0782 -0.5405  0.3958
10311TIP3    H152348   2.097   6.670   0.125 -0.3914 -0.4385 -0.6285
10311TIP3    H252349   1.971   6.587   0.132  0.0285 -0.9768  1.4292
10312TIP3   OH252350   1.481   1.493  10.925  0.1962 -0.2938  0.3544
10312TIP3    H152351   1.479   1.520  11.017 -1.7604 -0.5707  0.4256
10312TIP3    H252352   1.437   1.409  10.923  0.9749 -0.7040 -0.7424
10313TIP3   OH252353   4.184   4.276   4.188  0.4387  0.3028  0.3174
10313TIP3    H152354   4.229   4.352   4.225 -0.3062  0.0198  1.8914
10313TIP3    H252355   4.250   4.207   4.188  0.7424  0.5867  0.1067
10314TIP3   OH252356   5.550   1.612   1.034 -0.0787 -0.2467  0.4578
10314TIP3    H152357   5.630   1.623   0.982 -0.5095 -1.0541 -0.4180
10314TIP3    H252358   5.531   1.699   1.068  0.1552  0.3431 -0.8478
10315TIP3   OH252359   3.408   6.727  11.733  0.1969 -0.1411 -0.0285
10315TIP3    H152360   3.354   6.803  11.713  0.2113  0.3233  1.5545
10315TIP3    H252361   3.478   6.729  11.668 -0.6210  0.3383 -0.9117
10316TIP3   OH252362   1.634   2.219   1.685 -0.0060 -0.1321 -0.2340
10316TIP3    H152363   1.704   2.252   1.629  1.0229 -0.2749  0.9106
10316TIP3    H252364   1.566   2.191   1.625  1.1191 -0.4293 -1.4192
10317TIP3   OH252365   4.301   5.261   1.294  0.3331  0.3146  0.4448
10317TIP3    H152366   4.261   5.179   1.324  3.0415 -0.0756  3.5130
10317TIP3    H252367   4.238   5.329   1.318 -0.9262 -0.6537 -0.0247
10318TIP3   OH252368   2.695   1.639  11.440  0.4307 -0.2678  0.1574
10318TIP3    H152369   2.636   1.564  11.439  0.5982 -0.3995 -0.5322
10318TIP3    H252370   2.646   1.708  11.394  0.0603  0.2266  1.2534
10319TIP3   OH252371   5.150   1.045  11.447  0.0249 -0.1151 -0.0407
10319TIP3    H152372   5.141   0.955  11.478 -0.3114  0.2486  0.9492
10319TIP3    H252373   5.225   1.042  11.387 -0.5273 -1.2134 -0.7062
10320TIP3   OH252374   6.255   3.644  11.525  0.0283 -0.1271  0.0794
10320TIP3    H152375   6.268   3.666  11.617  1.4150 -1.2103  0.1837
10320TIP3    H252376   6.291   3.719  11.478 -0.3380  0.2633  0.4159
10321TIP3   OH252377   1.850   5.461   2.726  0.7997  0.5679 -0.0932
10321TIP3    H152378   1.913   5.523   2.763  1.3657 -0.3677  0.5719
10321TIP3    H252379   1.791   5.442   2.799  1.2441 -0.4341  0.0224
10322TIP3   OH252380   4.456   5.364  12.529 -0.6674 -0.5070  0.2525
10322TIP3    H152381   4.507   5.320  12.460  0.5424 -0.2073  0.9289
10322TIP3    H252382   4.366   5.357  12.499 -0.3368 -1.8740 -0.5387
10323TIP3   OH252383   4.690   0.659   4.153  0.8598 -0.2421  0.2055
10323TIP3    H152384   4.708   0.723   4.084  0.1925 -0.5576 -0.2639
10323TIP3    H252385   4.756   0.678   4.220 -0.8636  2.6398  1.2804
10324TIP3   OH252386   4.766   2.009  10.460 -0.6885 -0.3361 -0.2025
10324TIP3    H152387   4.732   2.098  10.462  1.3806  0.5738 -1.8117
10324TIP3    H252388   4.857   2.017  10.491 -0.9897 -2.2182  1.4017
10325TIP3   OH252389   0.335   5.670   6.227  0.7229  0.3317  0.2014
10325TIP3    H152390   0.263   5.734   6.222  2.0579  1.8502 -0.4966
10325TIP3    H252391   0.389   5.688   6.150  0.7634 -2.1979 -0.4551
10326TIP3   OH252392   6.607   0.254  12.611 -0.1468 -0.3317  0.1411
10326TIP3    H152393   6.617   0.201  12.531 -2.7614 -0.4915 -0.1698
10326TIP3    H252394   6.696   0.277  12.636  0.7778  0.1226 -3.0993
10327TIP3   OH252395   0.034   4.949  16.580  1.0709  0.3901 -0.8159
10327TIP3    H152396   0.014   5.040  16.557  0.3876  0.1627 -1.1201
10327TIP3    H252397   0.013   4.899  16.501 -1.7429 -0.4719  0.3586
10328TIP3   OH252398   1.905   3.884   4.079 -0.1745  0.1413  0.3029
10328TIP3    H152399   1.978   3.888   4.018 -1.2182  1.4222 -0.9112
10328TIP3    H252400   1.923   3.953   4.143 -0.5475  0.7977 -0.2867
10329TIP3   OH252401   0.719   2.358  16.305 -0.5022 -0.1656 -0.6534
10329TIP3    H152402   0.634   2.316  16.288 -0.7686 -0.4873  1.2498
10329TIP3    H252403   0.782   2.286  16.300 -0.1628  0.2105 -2.9211
10330TIP3   OH252404   3.335   5.684  13.754  0.4084  0.2872 -0.3002
10330TIP3    H152405   3.381   5.609  13.792 -0.8799 -0.3985 -0.0341
10330TIP3    H252406   3.308   5.654  13.667 -1.9272 -0.3456  0.5926
10331TIP3   OH252407   2.590   4.086  12.451 -0.4912  0.2506 -0.0708
10331TIP3    H152408   2.561   4.175  12.470  0.8206  0.3638  1.7113
10331TIP3    H252409   2.554   4.033  12.523 -0.1626 -0.4131 -0.3828
10332TIP3   OH252410   2.112   1.818  13.390  0.2022  0.2189  0.5886
10332TIP3    H152411   2.154   1.779  13.467  0.9517 -0.7066 -0.2759
10332TIP3    H252412   2.175   1.883  13.358  0.3796 -0.1904  0.1019
10333TIP3   OH252413   5.285   1.948   5.514  0.5612 -0.0513  0.1102
10333TIP3    H152414   5.224   1.918   5.581 -0.9050  0.1769 -1.0536
10333TIP3    H252415   5.268   2.042   5.507  1.4571  0.1252  0.1470
10334TIP3   OH252416   5.732   2.185  15.942  0.1864  0.2361 -0.8484
10334TIP3    H152417   5.776   2.129  15.878  1.2241 -0.3870  0.3803
10334TIP3    H252418   5.802   2.238  15.979 -0.4255  0.6709 -0.2984
10335TIP3   OH252419   0.393   2.973   1.746  0.1287  0.5084 -0.2974
10335TIP3    H152420   0.370   3.045   1.687  2.5405  0.7711 -1.0302
10335TIP3    H252421   0.436   3.016   1.820 -2.7641  0.1737  1.7205
10336TIP3   OH252422   4.034   0.629  15.972  0.0984 -0.4629 -0.6154
10336TIP3    H152423   3.950   0.663  16.003  1.1046  2.8789 -1.1397
10336TIP3    H252424   4.042   0.664  15.883  2.9291  1.2409  0.1890
10337TIP3   OH252425   5.803   5.215   1.176 -0.1586 -0.3350 -0.3601
10337TIP3    H152426   5.715   5.186   1.201 -0.3697  1.8490  1.8283
10337TIP3    H252427   5.831   5.270   1.249  2.5506  0.0286 -1.5760
10338TIP3   OH252428   5.291   1.160   3.635  0.3861 -0.6839  0.3924
10338TIP3    H152429   5.233   1.166   3.559  0.7040 -2.6348 -0.0653
10338TIP3    H252430   5.376   1.191   3.602  0.3328 -0.7873  0.1540
10339TIP3   OH252431   6.773   2.713  14.525 -0.2485 -0.0896 -0.0278
10339TIP3    H152432   6.726   2.698  14.443 -0.4178  0.1985  0.0133
10339TIP3    H252433   6.866   2.711  14.501 -0.2570 -1.4206  0.0201
10340TIP3   OH252434   0.628   3.128   5.135  0.0753  0.0528  0.1299
10340TIP3    H152435   0.672   3.136   5.051  3.3539 -0.3997  1.6600
10340TIP3    H252436   0.626   3.034   5.153 -1.7511  0.0350  0.0825
10341TIP3   OH252437   3.749   1.350   2.850  0.6050 -0.4428  0.1056
10341TIP3    H152438   3.690   1.380   2.781 -0.3213 -0.4082  0.8916
10341TIP3    H252439   3.831   1.332   2.805 -0.0204 -0.5596 -1.0325
10342TIP3   OH252440   3.496   2.686   1.958 -0.2584 -0.4766 -0.1911
10342TIP3    H152441   3.499   2.768   2.007  0.1614 -1.1418  0.9597
10342TIP3    H252442   3.517   2.619   2.024 -0.7876 -1.5182 -1.0551
10343TIP3   OH252443   4.094   4.360   2.047  0.4187 -0.1579 -0.2536
10343TIP3    H152444   4.141   4.443   2.059  1.0749 -0.5586 -0.0495
10343TIP3    H252445   4.030   4.379   1.978  0.5021  0.5457 -0.1466
10344TIP3   OH252446   3.127   3.645   2.590  0.1827 -0.5749 -0.1532
10344TIP3    H152447   3.149   3.571   2.534  0.8773 -0.0169 -0.6366
10344TIP3    H252448   3.113   3.607   2.677 -0.8642 -1.4463 -0.6752
10345TIP3   OH252449   1.215   2.554   3.533  0.3076  0.0805 -0.1029
10345TIP3    H152450   1.286   2.612   3.505  0.7538 -0.2518  0.3294
10345TIP3    H252451   1.258   2.488   3.587 -0.3863  0.0719  0.4417
10346TIP3   OH252452   0.921   3.397   3.293 -0.2046 -0.0005  0.6925
10346TIP3    H152453   0.922   3.472   3.352 -0.4472  2.1076 -1.7708
10346TIP3    H252454   0.836   3.402   3.249 -0.0161 -1.4229  0.0820
10347TIP3   OH252455   0.591   1.505  13.705 -0.6644 -0.5832 -0.3640
10347TIP3    H152456   0.573   1.517  13.612 -0.1653 -0.5655 -0.4642
10347TIP3    H252457   0.542   1.574  13.749 -0.7448 -0.4716 -0.6307
10348TIP3   OH252458   2.709   0.484  14.088  0.4340  0.0552  0.1732
10348TIP3    H152459   2.771   0.513  14.021 -2.6581  2.3488 -1.9979
10348TIP3    H252460   2.718   0.548  14.158 -0.2700  1.1334 -0.6928
10349TIP3   OH252461   0.610   6.535  14.715 -0.3130  0.2121 -0.4210
10349TIP3    H152462   0.540   6.469  14.716  1.7611 -2.1476  1.4217
10349TIP3    H252463   0.612   6.570  14.804  2.6071 -1.9547  0.5183
10350TIP3   OH252464   0.848   1.232  15.038  0.2449 -0.3920  0.0460
10350TIP3    H152465   0.771   1.286  15.020  0.6531  0.1341 -0.1550
10350TIP3    H252466   0.905   1.246  14.962 -0.6429 -2.9622 -1.2212
10351TIP3   OH252467   4.518   6.447  15.223  0.0028 -1.0707  0.6432
10351TIP3    H152468   4.481   6.535  15.208 -1.1422 -1.4986  0.8368
10351TIP3    H252469   4.605   6.451  15.184 -0.9178 -0.5738 -1.5335
10352TIP3   OH252470   2.795   3.263  13.300 -0.3189  0.5725 -0.2688
10352TIP3    H152471   2.826   3.187  13.251 -1.5476 -1.1587  1.4928
10352TIP3    H252472   2.760   3.322  13.233 -0.5284 -0.9849 -1.5928
10353TIP3   OH252473   2.822   4.966   5.447 -0.6907 -0.2331 -0.0825
10353TIP3    H152474   2.814   5.060   5.431 -0.1546  0.4617  3.1151
10353TIP3    H252475   2.907   4.942   5.410  1.0961  1.5118  2.5793
10354TIP3   OH252476   6.285   3.419   3.496  0.1042 -0.0738  0.2140
10354TIP3    H152477   6.304   3.468   3.416  1.8664  0.7417  1.0752
10354TIP3    H252478   6.350   3.349   3.497 -0.5587 -0.6872  0.4351
10355TIP3   OH252479   3.940   1.415   3.704 -0.3071  0.2768 -0.3783
10355TIP3    H152480   4.031   1.441   3.714 -0.1542  0.7074 -2.5281
10355TIP3    H252481   3.890   1.486   3.745  0.2927  0.3433  0.2493
10356TIP3   OH252482   4.387   5.555  13.049 -0.1381 -0.1752  0.2191
10356TIP3    H152483   4.314   5.527  13.105 -0.7595 -0.6635 -0.8029
10356TIP3    H252484   4.345   5.610  12.982  0.5199  0.0258 -0.0292
10357TIP3   OH252485   1.813   1.260  12.922 -0.7538  0.4572 -0.2033
10357TIP3    H152486   1.737   1.251  12.979 -0.4620 -0.6119  0.0573
10357TIP3    H252487   1.887   1.240  12.979 -0.1841  2.2909 -0.2511
10358TIP3   OH252488   6.072   5.759  10.851  0.4686  0.6234 -0.3275
10358TIP3    H152489   6.154   5.802  10.827  0.7716  0.2734  0.0619
10358TIP3    H252490   6.034   5.731  10.767  1.5860 -0.7132 -0.4145
10359TIP3   OH252491   4.690   2.389   4.748  0.1365  0.0176  0.0770
10359TIP3    H152492   4.605   2.432   4.736 -0.2972 -0.6153  0.7759
10359TIP3    H252493   4.683   2.348   4.835  0.8176 -0.8137 -0.2535
10360TIP3   OH252494   3.510   5.147   4.381 -0.0255 -0.4502 -0.3312
10360TIP3    H152495   3.522   5.228   4.332  0.5628 -0.9235 -0.9973
10360TIP3    H252496   3.439   5.102   4.334 -0.6144 -0.1576  0.2653
10361TIP3   OH252497   2.396   4.321  11.992 -0.2232 -0.1019 -0.6411
10361TIP3    H152498   2.323   4.271  11.956 -0.6556  0.4066 -0.4839
10361TIP3    H252499   2.359   4.365  12.068  0.3065 -0.0059 -0.4375
10362TIP3   OH252500   2.348   3.661  14.191 -0.7340  0.6055  0.1508
10362TIP3    H152501   2.280   3.619  14.244 -0.1553  0.7977  1.0740
10362TIP3    H252502   2.307   3.741  14.158 -1.0119  0.6301  0.5546
10363TIP3   OH252503   2.503   5.490  16.419 -0.0163 -0.3765  0.1679
10363TIP3    H152504   2.585   5.442  16.415  0.8026  0.9485  0.4166
10363TIP3    H252505   2.439   5.432  16.378  0.9242 -1.6458  0.4294
10364TIP3   OH252506   1.736   0.899  14.164 -0.5243  0.6701  0.1906
10364TIP3    H152507   1.715   0.825  14.107  0.1803  2.1430 -2.1306
10364TIP3    H252508   1.790   0.861  14.234 -0.9579 -1.1359 -0.4053
10365TIP3   OH252509   6.732   6.519  16.836  0.2193  0.4066  0.6340
10365TIP3    H152510   6.666   6.455  16.863  1.0648 -0.5216  0.5765
10365TIP3    H252511   6.815   6.484  16.871  0.5603  2.0591  1.5760
10366TIP3   OH252512   1.152   5.517   1.846 -0.4838  0.3379  0.3216
10366TIP3    H152513   1.210   5.549   1.915 -0.5766 -0.7308  0.9181
10366TIP3    H252514   1.063   5.534   1.879 -0.5255  0.1764  0.2920
10367TIP3   OH252515   4.749   0.097   3.495 -1.0277 -0.6768  0.0636
10367TIP3    H152516   4.809   0.102   3.570 -0.9281 -0.7330 -0.0124
10367TIP3    H252517   4.686   0.167   3.510  0.5728  1.1225 -1.2105
10368TIP3   OH252518   2.649   4.569   4.981  0.2475  0.1327  0.2366
10368TIP3    H152519   2.636   4.482   4.944  0.8397  0.3616 -0.5524
10368TIP3    H252520   2.685   4.621   4.909 -0.8961  1.2684  0.4463
10369TIP3   OH252521   4.944   4.380   5.419 -0.3329 -0.6232 -0.0490
10369TIP3    H152522   4.868   4.403   5.366  0.0026 -1.1387 -0.7672
10369TIP3    H252523   4.973   4.295   5.385  0.3944 -0.5662  0.3928
10370TIP3   OH252524   2.102   1.847  13.760  0.0240  0.4763 -0.0604
10370TIP3    H152525   2.139   1.817  13.677 -0.1677 -0.4268  0.1725
10370TIP3    H252526   2.168   1.906  13.796  1.1992 -1.0399  0.3103
10371TIP3   OH252527   1.755   5.064  10.624  0.2784  0.5239  0.5870
10371TIP3    H152528   1.712   4.987  10.661 -4.0659  2.4776  0.1059
10371TIP3    H252529   1.777   5.038  10.534  1.6316 -1.0014  1.3072
10372TIP3   OH252530   3.570   4.645   5.018  0.1707  0.1064  0.1777
10372TIP3    H152531   3.540   4.734   4.999  1.1218  0.6665  1.1140
10372TIP3    H252532   3.665   4.649   5.003  0.2587 -0.6694  0.5058
10373TIP3   OH252533   6.701   2.649  11.283 -0.1428  0.5007 -0.5206
10373TIP3    H152534   6.721   2.574  11.227  1.1933  1.1996 -1.0469
10373TIP3    H252535   6.636   2.699  11.234 -1.4300 -0.5515  0.0683
10374TIP3   OH252536   5.140   5.014   0.572 -0.5004 -1.0525  0.3581
10374TIP3    H152537   5.185   5.004   0.656 -1.4799 -0.4869  0.9720
10374TIP3    H252538   5.208   5.044   0.512 -0.2525  1.0020  1.5613
10375TIP3   OH252539   1.701   3.162   3.731 -0.0012 -0.2206  0.1240
10375TIP3    H152540   1.743   3.080   3.703  0.9993  0.4187 -0.3413
10375TIP3    H252541   1.691   3.213   3.650  0.3589  0.5333  0.5374
10376TIP3   OH252542   4.912   5.075  15.482  0.1144  0.8043 -0.3167
10376TIP3    H152543   4.859   5.002  15.514  2.4565 -0.9200 -0.1185
10376TIP3    H252544   4.890   5.147  15.541  0.2260 -0.7171  1.7106
10377TIP3   OH252545   3.628   5.628   2.057  0.7847  0.0255 -0.2737
10377TIP3    H152546   3.688   5.649   2.129  2.0279 -1.0566 -0.9465
10377TIP3    H252547   3.681   5.637   1.978 -0.4740  0.8488 -1.0491
10378TIP3   OH252548   0.916   0.278  10.556 -1.0333  0.5342  0.1846
10378TIP3    H152549   0.926   0.310  10.466 -0.7096 -0.5454 -0.1892
10378TIP3    H252550   0.883   0.353  10.605  0.6112  1.7005 -0.4136
10379TIP3   OH252551   5.178   2.480  11.369  0.2325  0.4271  0.2490
10379TIP3    H152552   5.231   2.434  11.433  0.8831  2.1513  1.0203
10379TIP3    H252553   5.158   2.415  11.302  1.3489 -0.8621  1.1278
10380TIP3   OH252554   0.070   2.261  14.679 -0.2114  0.1965 -0.2490
10380TIP3    H152555  -0.000   2.310  14.636 -1.1248 -1.5886 -0.9063
10380TIP3    H252556   0.025   2.211  14.747  0.7443  0.4667  0.6030
10381TIP3   OH252557   2.783   5.574   0.306 -0.0433 -0.0002 -0.6299
10381TIP3    H152558   2.855   5.637   0.304 -0.3355  0.3471 -2.3887
10381TIP3    H252559   2.781   5.542   0.396  1.6095  0.7759 -0.2811
10382TIP3   OH252560   4.961   6.002  14.763  0.3000 -0.4469  0.1874
10382TIP3    H152561   4.866   5.995  14.772  0.3533 -1.3829  0.1808
10382TIP3    H252562   4.987   6.072  14.822 -0.4788  0.3296 -0.3774
10383TIP3   OH252563   2.750   0.821  15.358  0.8977 -0.3172  0.1579
10383TIP3    H152564   2.729   0.814  15.264  1.1753  0.2276  0.0502
10383TIP3    H252565   2.825   0.881  15.361  1.1554 -0.6606  0.6982
10384TIP3   OH252566   6.573   4.225   3.584 -0.0605 -0.1485  0.1514
10384TIP3    H152567   6.510   4.297   3.591 -0.7230 -0.6544 -0.5119
10384TIP3    H252568   6.611   4.235   3.497 -0.6177 -0.9731 -0.1929
10385TIP3   OH252569   1.870   0.188   2.316  0.0381  0.1886 -1.5400
10385TIP3    H152570   1.935   0.143   2.261  0.7518 -3.2977  1.7260
10385TIP3    H252571   1.788   0.143   2.296  0.0367 -0.1554 -0.7758
10386TIP3   OH252572   3.381   2.677   4.889 -0.2786 -0.5663  0.0362
10386TIP3    H152573   3.320   2.610   4.859  0.0913 -0.9615  0.1468
10386TIP3    H252574   3.451   2.678   4.823 -1.9003  2.1012 -1.8334
10387TIP3   OH252575   2.140   0.952   5.708  0.1470 -0.3397  0.4340
10387TIP3    H152576   2.145   0.907   5.623  1.2527 -3.2054  1.8614
10387TIP3    H252577   2.209   1.019   5.703  0.1000 -0.3536 -0.9449
10388TIP3   OH252578   6.550   0.811  16.772 -0.3897 -0.8006 -0.1393
10388TIP3    H152579   6.567   0.834  16.680 -0.4046 -1.2036 -0.2428
10388TIP3    H252580   6.463   0.846  16.789 -0.8409 -1.6845 -0.6069
10389TIP3   OH252581   1.692   0.029  15.252 -0.5016  0.2020 -0.3113
10389TIP3    H152582   1.751   0.103  15.243  0.5465 -0.7779 -2.1427
10389TIP3    H252583   1.715  -0.010  15.336 -0.6582  1.5745  0.3915
10390TIP3   OH252584   6.504   5.409   5.415 -1.0420 -0.5105 -0.3850
10390TIP3    H152585   6.575   5.463   5.450  0.5581 -2.1930 -0.8517
10390TIP3    H252586   6.472   5.458   5.339  1.6771 -1.0059 -1.9846
10391TIP3   OH252587   4.312   1.019  13.922  0.2151  0.4564  0.7847
10391TIP3    H152588   4.317   1.066  13.839  0.3505  0.3785  0.7500
10391TIP3    H252589   4.380   1.058  13.977  1.1174 -0.4821  0.3650
10392TIP3   OH252590   1.738   4.912   4.807 -0.1437  0.4368  0.1797
10392TIP3    H152591   1.669   4.887   4.868 -1.2911 -0.2885 -1.3487
10392TIP3    H252592   1.792   4.975   4.855 -0.9660 -0.1552  1.9316
10393TIP3   OH252593   6.789   2.261  15.135  0.3671 -0.2902  0.0967
10393TIP3    H152594   6.799   2.356  15.130  3.1466 -0.1194  4.0231
10393TIP3    H252595   6.699   2.247  15.164 -0.7596  0.8710 -2.5297
10394TIP3   OH252596   1.693   1.517  14.274  0.4538  0.5799  0.0543
10394TIP3    H152597   1.774   1.568  14.280 -0.9763  2.9687  0.5474
10394TIP3    H252598   1.634   1.572  14.223 -0.8311 -1.1653 -0.4181
10395TIP3   OH252599   5.855   6.725  11.690 -0.3556 -0.4231 -0.5948
10395TIP3    H152600   5.949   6.711  11.677  0.4410  1.1707  2.4939
10395TIP3    H252601   5.827   6.776  11.614  1.7870  0.9200 -0.5467
10396TIP3   OH252602   6.679   1.728  14.416 -0.2953  0.3026 -0.7000
10396TIP3    H152603   6.617   1.734  14.344  0.1162 -2.2947 -1.3400
10396TIP3    H252604   6.625   1.717  14.494 -0.6776  0.7138 -0.9027
10397TIP3   OH252605   6.181   2.359   4.956 -0.0192  0.9822  0.6612
10397TIP3    H152606   6.110   2.362   4.891 -0.7509 -1.4315  1.2364
10397TIP3    H252607   6.146   2.407   5.031 -0.3608  1.2365  0.3479
10398TIP3   OH252608   0.763   2.405   1.328 -0.5138 -0.1755  0.5643
10398TIP3    H152609   0.833   2.385   1.266 -0.8225 -2.4028  0.8437
10398TIP3    H252610   0.790   2.487   1.370  0.0167  1.0571 -2.0046
10399TIP3   OH252611   1.757   5.728  12.957 -0.4554 -0.0637  0.1288
10399TIP3    H152612   1.818   5.794  12.924  0.1538  0.6819  2.5677
10399TIP3    H252613   1.730   5.680  12.879 -0.5980  2.7728 -1.7233
10400TIP3   OH252614   6.163   0.599  11.888  0.2904  0.3622  0.6283
10400TIP3    H152615   6.226   0.534  11.917 -0.1717 -0.2395  0.3095
10400TIP3    H252616   6.142   0.649  11.967 -0.0330 -0.4664  1.0740
10401TIP3   OH252617   5.641   1.993  15.142 -0.7007  0.0361  0.2293
10401TIP3    H152618   5.631   1.928  15.073 -1.2457 -0.3428  0.6588
10401TIP3    H252619   5.644   2.077  15.095 -0.8656 -0.2296 -0.2660
10402TIP3   OH252620   4.555   0.316  10.382 -0.5883  0.5079  0.3009
10402TIP3    H152621   4.629   0.265  10.417  0.3065  0.2955 -1.7659
10402TIP3    H252622   4.597   0.390  10.338 -1.6422  0.5487 -0.6422
10403TIP3   OH252623   3.091   0.170  11.865 -0.0230 -0.6831  0.1062
10403TIP3    H152624   2.999   0.187  11.884  0.2795 -0.4190  1.4190
10403TIP3    H252625   3.136   0.252  11.889  0.4927 -0.5611 -1.1493
10404TIP3   OH252626   0.843   1.102  16.147  0.5411 -0.4396  0.1750
10404TIP3    H152627   0.754   1.069  16.158  1.1371 -2.6071 -0.8278
10404TIP3    H252628   0.860   1.154  16.226 -1.1448 -1.1033  1.0102
10405TIP3   OH252629   5.537   3.540   0.360 -0.2815 -0.1734 -0.0413
10405TIP3    H152630   5.562   3.448   0.371 -0.2857  0.0401  2.0279
10405TIP3    H252631   5.613   3.582   0.320  0.8247 -0.5223  1.6315
10406TIP3   OH252632   5.529   2.098  16.074  0.6463 -0.1108  0.2937
10406TIP3    H152633   5.593   2.113  16.004 -1.4511 -0.4020 -1.8250
10406TIP3    H252634   5.489   2.184  16.089  1.1354 -0.0327  1.2401
10407TIP3   OH252635   2.824   1.443  12.466 -0.7638 -0.0816 -0.4086
10407TIP3    H152636   2.779   1.528  12.462  0.2431  0.7746  2.9177
10407TIP3    H252637   2.859   1.430  12.378  0.0217  3.5577 -0.8161
10408TIP3   OH252638   1.620   3.008   0.463  0.0588  0.0569  0.0279
10408TIP3    H152639   1.708   3.041   0.482 -0.1188  0.1785  0.6454
10408TIP3    H252640   1.581   3.075   0.407  1.0206 -0.8789 -1.8603
10409TIP3   OH252641   2.738   5.634  16.543 -0.6249 -0.4653 -0.5713
10409TIP3    H152642   2.789   5.570  16.493  0.1975 -0.0019 -0.3485
10409TIP3    H252643   2.656   5.643  16.494  0.0274 -0.2686 -1.6662
10410TIP3   OH252644   5.884   3.287  13.265 -0.1274 -0.3818  0.3006
10410TIP3    H152645   5.931   3.371  13.264  1.7293 -1.3456 -1.6174
10410TIP3    H252646   5.953   3.221  13.256 -1.7492 -1.9341 -1.6840
10411TIP3   OH252647   1.101   6.321   3.988 -0.3278  0.2256  0.0533
10411TIP3    H152648   1.044   6.364   4.051  1.9668  2.8903  0.4945
10411TIP3    H252649   1.163   6.272   4.040  1.1903  1.9293 -0.0687
10412TIP3   OH252650   6.505   2.741   1.350  0.2180 -0.3199  0.3706
10412TIP3    H152651   6.593   2.770   1.374 -0.6164  1.5088  1.3540
10412TIP3    H252652   6.486   2.670   1.411  0.1737  0.7697  1.6554
10413TIP3   OH252653   3.522   0.068  14.170  0.4476  0.0556 -0.5485
10413TIP3    H152654   3.507   0.162  14.161 -1.2277 -0.1983 -0.7281
10413TIP3    H252655   3.552   0.040  14.083  4.0815  0.8692  0.2765
10414TIP3   OH252656   3.094   4.230   2.450  0.6384  0.1894  0.1067
10414TIP3    H152657   3.042   4.157   2.483  0.4738  0.3329  0.1654
10414TIP3    H252658   3.031   4.291   2.413  0.8474 -0.1098 -0.7589
10415TIP3   OH252659   0.491   1.306   3.548  0.7261 -0.3642  0.1716
10415TIP3    H152660   0.478   1.291   3.642 -0.0248 -0.0382  0.1259
10415TIP3    H252661   0.455   1.393   3.532 -1.9639 -1.5712 -0.9577
10416TIP3   OH252662   0.117   2.447  11.421 -0.3843 -0.9473  0.2555
10416TIP3    H152663   0.055   2.515  11.448  0.2729 -0.4170  0.4565
10416TIP3    H252664   0.082   2.366  11.457 -0.9589 -0.6538  0.3647
10417TIP3   OH252665   2.407   4.423  16.079 -0.4676 -0.3164  0.2505
10417TIP3    H152666   2.388   4.517  16.077 -0.4461 -0.3205 -0.9744
10417TIP3    H252667   2.360   4.388  16.003  1.9334 -0.8036 -1.1187
10418TIP3   OH252668   1.332   3.248  17.070  0.7029  0.0595 -0.0009
10418TIP3    H152669   1.329   3.172  17.012 -0.4296  0.3409 -0.3510
10418TIP3    H252670   1.423   3.255  17.097  0.9157 -1.1199 -0.3685
10419TIP3   OH252671   2.240   1.080  16.645  0.2178  0.4722  0.0826
10419TIP3    H152672   2.331   1.108  16.647  1.1397 -2.2037  0.2102
10419TIP3    H252673   2.195   1.138  16.707  1.6767  2.2009 -0.3919
10420TIP3   OH252674   1.398   6.078  11.664  0.2915 -0.1668 -0.6598
10420TIP3    H152675   1.417   6.129  11.743  0.1044 -0.6322 -0.3065
10420TIP3    H252676   1.429   6.132  11.592  0.1657  0.4109 -0.2859
10421TIP3   OH252677   3.919   0.085   3.746  0.0833 -0.1520 -0.7321
10421TIP3    H152678   3.969   0.004   3.752 -0.5110 -0.5973 -1.6122
10421TIP3    H252679   3.869   0.077   3.665 -0.4271  0.8439 -0.5362
10422TIP3   OH252680   0.244   5.508   1.046  0.4204  0.3426 -0.4574
10422TIP3    H152681   0.183   5.478   0.979 -0.6710  1.2524  0.0889
10422TIP3    H252682   0.230   5.603   1.049  0.9851  0.4013  0.5339
10423TIP3   OH252683   3.425   3.956   1.074 -0.0513  0.0132  0.4129
10423TIP3    H152684   3.360   3.910   1.021 -0.5711 -2.0720  2.6528
10423TIP3    H252685   3.399   4.048   1.071 -0.2672 -0.0502 -2.4975
10424TIP3   OH252686   1.005   0.878  12.611  0.0646 -0.2603  0.2696
10424TIP3    H152687   0.970   0.846  12.527  0.9447 -0.9246  0.1359
10424TIP3    H252688   0.960   0.961  12.626 -0.6574 -0.5011 -0.4908
10425TIP3   OH252689   1.648   3.132   1.979  0.3364 -0.7079 -0.3215
10425TIP3    H152690   1.615   3.212   2.019  0.2167  0.0076 -1.7791
10425TIP3    H252691   1.738   3.154   1.954  0.1226 -0.8303 -1.2199
10426TIP3   OH252692   2.980   1.333  14.220  0.5230  0.0747 -0.2339
10426TIP3    H152693   3.000   1.426  14.233  1.4058 -0.0180 -0.8090
10426TIP3    H252694   3.016   1.289  14.297 -0.2376  0.2392  0.2269
10427TIP3   OH252695   4.237   0.164  12.401 -0.2408  0.1139 -0.6744
10427TIP3    H152696   4.249   0.223  12.475 -0.7384 -0.8591  0.2121
10427TIP3    H252697   4.326   0.144  12.370  0.0085 -0.0904  0.1643
10428TIP3   OH252698   4.954   2.782   2.951  0.0692  0.3017 -0.0818
10428TIP3    H152699   4.997   2.838   2.887  0.2464  0.4105  0.1295
10428TIP3    H252700   5.018   2.714   2.970  1.2866  1.9679  2.2759
10429TIP3   OH252701   2.692   3.021   3.218 -0.0671  0.6011 -0.1782
10429TIP3    H152702   2.600   3.010   3.243  0.5598  0.2099  2.2160
10429TIP3    H252703   2.719   2.934   3.189 -0.1145  0.3649  0.4591
10430TIP3   OH252704   0.406   2.474  13.423  0.8353 -0.2309 -0.4785
10430TIP3    H152705   0.343   2.457  13.493  0.1708 -2.6566 -1.5480
10430TIP3    H252706   0.491   2.478  13.468  0.3309 -0.8233  0.5718
10431TIP3   OH252707   3.450   0.520   3.954  0.0436 -0.3431  0.3230
10431TIP3    H152708   3.466   0.456   4.024  0.1658  0.2608  0.8601
10431TIP3    H252709   3.442   0.603   4.000 -2.1080 -0.2245 -0.1586
10432TIP3   OH252710   1.509   6.277   3.649 -0.4359  0.0329 -0.2081
10432TIP3    H152711   1.454   6.343   3.607 -1.6689 -0.8216  0.0013
10432TIP3    H252712   1.536   6.219   3.577  0.3286  0.5359 -0.3335
10433TIP3   OH252713   6.722   6.286  14.030 -0.0410  0.4499 -0.3919
10433TIP3    H152714   6.658   6.219  14.055 -1.9261  2.0793 -0.5839
10433TIP3    H252715   6.757   6.256  13.946  0.5246 -1.1607  0.3842
10434TIP3   OH252716   1.830   6.247   3.219 -0.2223 -0.1170 -0.4768
10434TIP3    H152717   1.815   6.223   3.127 -1.1926 -2.0076  0.1250
10434TIP3    H252718   1.862   6.337   3.215 -1.5678  0.3458 -2.5950
10435TIP3   OH252719   1.866   0.530  13.688 -0.0057  0.3951 -0.5043
10435TIP3    H152720   1.808   0.559  13.619 -0.6548  0.3178  0.0005
10435TIP3    H252721   1.817   0.545  13.769 -0.9478 -3.2836 -0.2463
10436TIP3   OH252722   2.718   2.822  11.473  0.2762  0.6661  0.2444
10436TIP3    H152723   2.674   2.798  11.555 -0.5755 -0.2442 -0.4524
10436TIP3    H252724   2.808   2.841  11.499  0.0352  0.3318  1.3863
10437TIP3   OH252725   0.343   0.246  16.051  0.3626  0.3517 -0.2050
10437TIP3    H152726   0.310   0.176  16.109  2.2896  0.0863  0.6271
10437TIP3    H252727   0.313   0.327  16.093  1.4863  0.1499  1.0674
10438TIP3   OH252728   2.559   1.312   0.717  0.2887 -0.4134  0.3794
10438TIP3    H152729   2.580   1.329   0.809  1.0960  1.7279 -0.1408
10438TIP3    H252730   2.530   1.397   0.683  1.9954 -0.6382 -1.8408
10439TIP3   OH252731   3.262   6.055   5.780  0.2381 -0.2350  0.6769
10439TIP3    H152732   3.193   6.091   5.836  0.3359  0.3030  0.4569
10439TIP3    H252733   3.256   5.961   5.793 -2.2003 -0.4383 -1.2579
10440TIP3   OH252734   6.481   0.165  15.904 -0.4988 -0.2272 -0.2401
10440TIP3    H152735   6.422   0.121  15.965  1.2814 -0.7729  1.1859
10440TIP3    H252736   6.568   0.133  15.927  1.1704  4.6300  1.5923
10441TIP3   OH252737   0.075   5.287   2.247 -0.0072  0.1888  0.0493
10441TIP3    H152738   0.062   5.381   2.256  0.6625  0.4883 -1.6937
10441TIP3    H252739   0.161   5.278   2.208  0.2242 -1.2034  0.8101
10442TIP3   OH252740   6.701   2.338  14.145 -0.4148  0.1186  0.1184
10442TIP3    H152741   6.613   2.359  14.111 -0.1468 -0.0636 -0.7068
10442TIP3    H252742   6.752   2.317  14.067  0.3063 -0.0023  0.6192
10443TIP3   OH252743   3.995   6.387   5.561  0.3629  0.2343 -0.2948
10443TIP3    H152744   4.036   6.457   5.510  0.3830  0.1398 -0.4107
10443TIP3    H252745   3.904   6.385   5.531  0.6280 -0.5155 -1.0961
10444TIP3   OH252746   4.330   3.010  12.599 -0.2801 -0.5638 -0.0600
10444TIP3    H152747   4.265   3.078  12.586 -1.4552 -1.5772  0.2910
10444TIP3    H252748   4.283   2.928  12.582  0.9484 -1.3236  0.0240
10445TIP3   OH252749   2.234   4.588  11.851  0.0194 -0.1282  0.1402
10445TIP3    H152750   2.198   4.520  11.907  0.8461  0.3114  1.2454
10445TIP3    H252751   2.160   4.616  11.797 -0.2517 -2.1607 -0.6429
10446TIP3   OH252752   2.789   4.751  16.995 -0.0382  0.1610  0.0872
10446TIP3    H152753   2.848   4.817  17.030  1.6454 -1.6815  0.9426
10446TIP3    H252754   2.721   4.741  17.062  0.1612  0.4461  0.3335
10447TIP3   OH252755   3.176   4.033   1.488  0.2233  0.0902  0.7725
10447TIP3    H152756   3.256   3.984   1.468  1.5191  1.3618  2.5173
10447TIP3    H252757   3.163   4.090   1.412  0.2241 -1.0428 -0.0949
10448TIP3   OH252758   2.302   4.599   1.712  0.3911 -0.3044  0.5998
10448TIP3    H152759   2.289   4.668   1.777 -0.0400  0.6513 -0.4712
10448TIP3    H252760   2.328   4.645   1.633  0.1893 -1.3866 -0.1188
10449TIP3   OH252761   5.289   1.851   6.197  0.4504 -0.2786 -0.2886
10449TIP3    H152762   5.298   1.918   6.265  0.0600 -0.9181  0.4008
10449TIP3    H252763   5.333   1.774   6.233 -0.6579 -0.9392 -0.3115
10450TIP3   OH252764   0.505   1.675  14.314  0.2192  0.4142 -0.4911
10450TIP3    H152765   0.491   1.644  14.224  2.4642  3.2958 -2.0165
10450TIP3    H252766   0.438   1.743  14.326  0.1151  0.2415 -0.0978
10451TIP3   OH252767   0.949   4.467  14.388 -0.0360 -0.3729 -0.4789
10451TIP3    H152768   1.007   4.399  14.423  0.7865  0.0665 -0.9428
10451TIP3    H252769   0.869   4.421  14.363 -0.3240 -0.8305  1.1607
10452TIP3   OH252770   4.831   6.241  11.442  0.7484  0.0966 -0.0091
10452TIP3    H152771   4.834   6.200  11.529  1.2081  2.3297  1.1005
10452TIP3    H252772   4.894   6.191  11.390 -0.3327 -1.9971  0.5465
10453TIP3   OH252773   6.170   2.157  15.200 -0.1978 -0.9363  0.9873
10453TIP3    H152774   6.132   2.203  15.275 -2.4023 -1.8767  0.5505
10453TIP3    H252775   6.245   2.210  15.174 -0.2162  0.1636  2.9703
10454TIP3   OH252776   2.331   2.288  12.368 -0.1862  0.3372 -0.4569
10454TIP3    H152777   2.417   2.322  12.394 -0.1059 -0.4175  0.3360
10454TIP3    H252778   2.351   2.216  12.307 -0.1040 -1.2910  1.3838
10455TIP3   OH252779   0.328   5.093   4.561 -0.4707 -0.4272  0.0229
10455TIP3    H152780   0.236   5.108   4.539 -0.8043 -0.3659  1.3746
10455TIP3    H252781   0.342   5.142   4.643  1.2105  0.9444 -0.9960
10456TIP3   OH252782   5.652   5.470  12.499 -0.1460 -0.8063 -0.0636
10456TIP3    H152783   5.611   5.556  12.489 -0.9718 -1.2409 -0.5105
10456TIP3    H252784   5.738   5.480  12.457 -0.1058 -0.1117  0.1740
10457TIP3   OH252785   2.069   0.733   2.165  0.2031  0.1119  0.4572
10457TIP3    H152786   2.098   0.645   2.142 -0.5004  0.1577 -0.6955
10457TIP3    H252787   2.150   0.782   2.181  0.5847 -0.9243  1.9347
10458TIP3   OH252788   1.572   6.143   3.896  0.4293  0.0186  0.1598
10458TIP3    H152789   1.544   6.174   3.810 -0.7425 -1.2455  0.0604
10458TIP3    H252790   1.556   6.217   3.954 -0.6606  0.2312 -0.3737
10459TIP3   OH252791   4.701   2.031  15.084 -0.2396  0.0827 -0.4474
10459TIP3    H152792   4.655   2.113  15.064 -2.5899 -0.8021  0.9215
10459TIP3    H252793   4.700   2.026  15.180 -0.9803 -1.9706 -0.5210
10460TIP3   OH252794   3.306   4.237  16.180 -0.5191  0.5097 -0.4463
10460TIP3    H152795   3.229   4.229  16.125 -0.3064  1.9784 -1.0044
10460TIP3    H252796   3.278   4.293  16.253 -0.0592  0.8438 -0.5211
10461TIP3   OH252797   2.283   0.793   3.776  0.5539  0.1933  0.2919
10461TIP3    H152798   2.190   0.771   3.769 -0.0297  2.5137  0.0196
10461TIP3    H252799   2.305   0.832   3.691  0.7301  3.0562  1.5336
10462TIP3   OH252800   2.155   4.634   3.436  0.2453  0.5229  0.0133
10462TIP3    H152801   2.231   4.688   3.415 -0.2299  0.9694 -0.5921
10462TIP3    H252802   2.081   4.695   3.435 -0.1149  0.1179  0.6991
10463TIP3   OH252803   6.677   5.620   5.485 -0.1407 -0.1324  0.0425
10463TIP3    H152804   6.762   5.602   5.446 -0.1982  1.9866 -1.2082
10463TIP3    H252805   6.652   5.706   5.451 -1.8804  0.2067  1.9382
10464TIP3   OH252806   0.404   3.429   5.872 -0.2184 -0.6748  0.5453
10464TIP3    H152807   0.346   3.379   5.929  0.3895 -0.7090  1.1405
10464TIP3    H252808   0.478   3.371   5.855 -0.5464 -0.7941 -0.5689
10465TIP3   OH252809   0.225   1.516   1.176  0.0150  0.1006  0.1068
10465TIP3    H152810   0.260   1.444   1.230 -0.7344 -0.1075  0.3283
10465TIP3    H252811   0.136   1.489   1.155 -0.4479  1.1879  0.5934
10466TIP3   OH252812   2.833   2.191   0.785  0.2395 -0.1781  0.3510
10466TIP3    H152813   2.809   2.104   0.817  0.4450 -0.7273 -0.9394
10466TIP3    H252814   2.919   2.179   0.744 -0.6234  0.1342 -1.6851
10467TIP3   OH252815   3.973   6.309   4.390  0.0305 -0.1768 -0.3725
10467TIP3    H152816   3.887   6.279   4.419 -0.0967 -1.6587 -2.1294
10467TIP3    H252817   3.954   6.373   4.321  0.3643  1.1949  0.7483
10468TIP3   OH252818   5.440   6.356   2.432 -0.0406  0.1823 -0.7556
10468TIP3    H152819   5.356   6.324   2.464  0.7099 -1.5890 -0.4594
10468TIP3    H252820   5.467   6.292   2.366  1.0187  0.7812 -0.9255
10469TIP3   OH252821   5.963   2.423   1.912 -0.2989  0.6076 -0.4182
10469TIP3    H152822   5.919   2.507   1.906  0.3194  0.9028 -0.9817
10469TIP3    H252823   5.997   2.419   2.001 -1.1231  0.5398 -0.1000
10470TIP3   OH252824   6.682   5.022   5.620  0.3220 -0.3626 -0.0829
10470TIP3    H152825   6.621   5.053   5.686 -0.8937 -3.6669  0.5467
10470TIP3    H252826   6.629   5.010   5.542  1.1824  0.9044 -0.9116
10471TIP3   OH252827   0.321   0.303   3.917  0.2031 -0.6147 -0.4680
10471TIP3    H152828   0.346   0.222   3.961  0.3020 -0.0727  0.4928
10471TIP3    H252829   0.390   0.318   3.853  1.2852 -0.2010  0.7726
10472TIP3   OH252830   1.027   3.303   4.361  0.1814 -0.1991  0.1299
10472TIP3    H152831   1.090   3.347   4.303  1.0388 -1.6672 -0.0984
10472TIP3    H252832   0.945   3.303   4.311  0.3252  0.5554 -0.1231
10473TIP3   OH252833   4.729   1.338  15.933  0.1204  0.3836  0.4439
10473TIP3    H152834   4.808   1.341  15.879  0.2228 -0.3870  0.5295
10473TIP3    H252835   4.670   1.279  15.885 -0.8382  1.8006 -0.1756
10474TIP3   OH252836   0.756   3.508  14.396 -0.2886 -0.4601 -0.0908
10474TIP3    H152837   0.835   3.543  14.436  0.6107 -1.4660 -0.9226
10474TIP3    H252838   0.779   3.418  14.371 -2.5742 -1.8680  2.2763
10475TIP3   OH252839   6.219   5.163   2.239  0.0449 -0.2013  0.0687
10475TIP3    H152840   6.266   5.241   2.269  0.0621 -0.3024  0.3106
10475TIP3    H252841   6.251   5.148   2.151  0.6904 -0.4495  0.3460
10476TIP3   OH252842   2.360   4.664  14.432 -0.2115 -0.3792 -0.2219
10476TIP3    H152843   2.271   4.636  14.412 -0.3277 -0.2316  0.0733
10476TIP3    H252844   2.378   4.733  14.368 -1.4178  1.6799  1.5342
10477TIP3   OH252845   4.037   5.933  12.680 -0.6258  0.0980 -0.0014
10477TIP3    H152846   4.050   5.857  12.622 -2.6178 -0.4764  0.2320
10477TIP3    H252847   4.057   5.900  12.767  1.1368  0.6253 -0.1569
10478TIP3   OH252848   6.048   2.981   2.277  0.6497  0.5761  0.5803
10478TIP3    H152849   6.090   2.906   2.318 -1.0367 -0.4339  0.5206
10478TIP3    H252850   6.115   3.016   2.217  1.2336 -1.2737  0.1046
10479TIP3   OH252851   2.139   0.941  16.133  0.4723 -0.0192  0.1046
10479TIP3    H152852   2.071   0.877  16.154  0.7056  0.1774  1.5524
10479TIP3    H252853   2.204   0.892  16.083 -0.0231 -0.5620 -0.0171
10480TIP3   OH252854   0.497   5.299   4.031  0.2084  0.7244 -0.5272
10480TIP3    H152855   0.403   5.282   4.036  0.4810 -1.0836 -0.9262
10480TIP3    H252856   0.530   5.273   4.116  0.5322  0.0332 -0.8612
10481TIP3   OH252857   6.218   6.268  15.167  0.1308  0.0492  0.3305
10481TIP3    H152858   6.279   6.266  15.241 -1.0190 -0.1038  1.3150
10481TIP3    H252859   6.135   6.238  15.204 -1.2300  2.6908 -0.3259
10482TIP3   OH252860   5.466   6.573  14.704 -0.1641 -0.3781 -0.7066
10482TIP3    H152861   5.510   6.652  14.737  0.3751 -0.5668 -0.9642
10482TIP3    H252862   5.482   6.507  14.771 -1.3852 -0.0403 -0.0525
10483TIP3   OH252863   1.918   0.184   4.089 -0.0462 -0.6333  0.0370
10483TIP3    H152864   1.903   0.110   4.148 -0.6547 -1.1191 -0.7161
10483TIP3    H252865   2.000   0.162   4.044  0.6367 -0.0702  0.9719
10484TIP3   OH252866   0.037   5.271   0.465 -0.5440 -0.3673 -0.0565
10484TIP3    H152867   0.057   5.178   0.462  0.6419 -0.1100 -0.8255
10484TIP3    H252868   0.012   5.294   0.376  2.5760  0.6966 -0.8076
10485TIP3   OH252869   4.164   0.685  15.397 -0.3793 -0.4730 -0.0618
10485TIP3    H152870   4.257   0.677  15.375 -0.1005 -0.9830  1.1915
10485TIP3    H252871   4.129   0.596  15.388 -0.5597 -0.4311  0.2017
10486TIP3   OH252872   2.924   3.043   2.731  0.0249  0.3348  0.4197
10486TIP3    H152873   2.897   2.951   2.729  1.1487 -0.0114 -0.1442
10486TIP3    H252874   2.843   3.093   2.731 -0.6213 -0.6414 -1.1199
10487TIP3   OH252875   5.232   2.992  14.477  0.2522  0.5976 -0.1196
10487TIP3    H152876   5.314   2.962  14.516 -0.8127  0.3572  2.1088
10487TIP3    H252877   5.164   2.950  14.529 -1.3004  1.4014 -1.4079
10488TIP3   OH252878   0.523   2.835   0.083  0.6636  0.0185 -0.2958
10488TIP3    H152879   0.551   2.746   0.059  2.6709  0.0506  1.6281
10488TIP3    H252880   0.438   2.822   0.125 -0.6181 -0.5497 -2.8404
10489TIP3   OH252881   2.174   0.300  16.279  0.2219 -0.4142  0.2255
10489TIP3    H152882   2.121   0.357  16.223 -0.8740 -0.2337  1.3890
10489TIP3    H252883   2.207   0.233  16.220  0.7479  0.8665 -1.0047
10490TIP3   OH252884   5.721   0.993  12.822  0.0212  0.3186  0.3449
10490TIP3    H152885   5.661   0.952  12.884  1.7735 -1.5220  0.9361
10490TIP3    H252886   5.754   0.920  12.769  2.3815  1.0577  0.6657
10491TIP3   OH252887   1.080   5.286   2.966 -0.2607  0.1825  0.5683
10491TIP3    H152888   0.985   5.293   2.979 -0.8814 -2.5080 -1.6915
10491TIP3    H252889   1.108   5.219   3.029 -0.0218  0.2738  0.5590
10492TIP3   OH252890   5.509   0.163  10.461 -0.5028 -0.2750  0.0829
10492TIP3    H152891   5.506   0.090  10.522 -1.4799  0.9147  1.5478
10492TIP3    H252892   5.418   0.176  10.435 -0.1754 -0.3439 -1.1126
10493TIP3   OH252893   0.679   4.921  14.786 -0.6461 -0.0156 -0.3508
10493TIP3    H152894   0.645   4.928  14.875 -0.2571 -0.6502 -0.1465
10493TIP3    H252895   0.639   4.995  14.739 -2.2986 -0.7117 -0.1201
10494TIP3   OH252896   2.381   5.804   4.681  0.1742 -0.4158 -0.7821
10494TIP3    H152897   2.357   5.889   4.717 -1.2703 -1.0244 -0.2297
10494TIP3    H252898   2.414   5.754   4.756 -1.6315 -1.2500 -0.4782
10495TIP3   OH252899   5.588   1.831  16.417 -0.0830 -0.1949 -0.2166
10495TIP3    H152900   5.547   1.746  16.401  0.3738 -0.5215  0.3023
10495TIP3    H252901   5.637   1.819  16.499 -0.9094  0.8767  0.4675
10496TIP3   OH252902   0.822   6.134   1.292 -0.5341 -0.1180 -0.2613
10496TIP3    H152903   0.896   6.128   1.352  0.1382  1.3739 -0.8887
10496TIP3    H252904   0.847   6.080   1.217 -0.4745 -0.3259 -0.0917
10497TIP3   OH252905   6.208   3.374  15.571  0.5190  1.2835  0.3422
10497TIP3    H152906   6.209   3.456  15.619 -4.4322  1.5665  0.4396
10497TIP3    H252907   6.157   3.393  15.492  2.3662 -0.9285 -1.5460
10498TIP3   OH252908   3.060   5.359  13.270  0.2162 -0.6518  0.0536
10498TIP3    H152909   3.011   5.288  13.230 -0.3243 -0.6660  0.7232
10498TIP3    H252910   3.054   5.342  13.364 -2.1798  1.7085  0.4314
10499TIP3   OH252911   6.290   0.306   1.279 -0.3155 -0.1018 -0.2348
10499TIP3    H152912   6.368   0.257   1.306  0.5486  0.6911 -1.2225
10499TIP3    H252913   6.261   0.350   1.359  0.3866 -0.2255  0.0951
10500TIP3   OH252914   5.341   2.788  12.471 -0.0497  0.6461  0.0024
10500TIP3    H152915   5.435   2.795  12.485  0.3504 -0.4365 -1.7799
10500TIP3    H252916   5.306   2.872  12.501  1.2647  0.5241  2.0323
10501TIP3   OH252917   0.821   5.365  15.019 -0.0414 -0.2960  0.1877
10501TIP3    H152918   0.866   5.366  14.935 -0.4357  1.4080 -0.0278
10501TIP3    H252919   0.834   5.452  15.055 -0.0545 -0.9299  1.8197
10502TIP3   OH252920   4.227   0.727   1.624  0.5666 -0.2497  0.2957
10502TIP3    H152921   4.171   0.650   1.616 -1.5027  1.2440 -0.7008
10502TIP3    H252922   4.237   0.740   1.718 -0.6877 -0.6668  0.5098
10503TIP3   OH252923   4.316   6.539  13.363  0.1096  0.5184 -0.1558
10503TIP3    H152924   4.391   6.591  13.393  1.2575 -0.8139 -0.6332
10503TIP3    H252925   4.328   6.532  13.268 -0.3848 -0.1030 -0.1774
10504TIP3   OH252926   6.807   2.370   0.243  0.5856  0.0143  0.5854
10504TIP3    H152927   6.803   2.457   0.282 -0.4175 -0.0224  0.5830
10504TIP3    H252928   6.883   2.373   0.185  1.1741  0.5562  1.3528
10505TIP3   OH252929   4.545   3.100  15.112 -0.1684 -0.1345 -0.2278
10505TIP3    H152930   4.626   3.118  15.159  0.8581 -1.1093 -1.5492
10505TIP3    H252931   4.526   3.008  15.130 -2.4459  0.6662  2.1412
10506TIP3   OH252932   3.680   6.790   3.243 -0.1624  0.3977  0.0988
10506TIP3    H152933   3.615   6.810   3.175  1.1776 -1.2579 -1.7900
10506TIP3    H252934   3.736   6.867   3.246  0.5189  0.0269 -1.6575
10507TIP3   OH252935   5.800   5.370   3.732 -0.4928  0.2015  0.1349
10507TIP3    H152936   5.813   5.379   3.826  1.5011  1.8880 -0.2353
10507TIP3    H252937   5.805   5.460   3.698  2.1079 -0.5667 -1.8892
10508TIP3   OH252938   1.616   2.627   1.809  0.4571  0.4386 -0.0136
10508TIP3    H152939   1.563   2.623   1.888  0.2124  3.8806  0.1146
10508TIP3    H252940   1.705   2.646   1.840  0.5922  0.6729 -0.5331
10509TIP3   OH252941   3.170   4.629  14.281  0.2524  0.2715 -0.4961
10509TIP3    H152942   3.165   4.658  14.190 -2.4154  0.6835 -0.3061
10509TIP3    H252943   3.161   4.534  14.277 -0.4634  0.3425 -0.6428
10510TIP3   OH252944   1.110   2.958  15.447  0.1421 -0.1415 -0.3354
10510TIP3    H152945   1.093   2.927  15.536  1.7091 -0.2165 -0.0332
10510TIP3    H252946   1.191   2.914  15.421  0.4074  0.8707 -1.3113
10511TIP3   OH252947   2.102   5.935  11.042  0.6429  0.1585 -0.2109
10511TIP3    H152948   2.159   6.005  11.008  0.5461  0.9460  1.1644
10511TIP3    H252949   2.019   5.949  10.997 -0.6802  3.5221  2.7907
10512TIP3   OH252950   3.179   3.805  12.981  0.0027  0.5368  0.2303
10512TIP3    H152951   3.256   3.788  13.036 -0.4192 -0.9713  0.3793
10512TIP3    H252952   3.198   3.759  12.899  0.0092  1.6172 -0.3979
10513TIP3   OH252953   0.969   6.751  14.942  0.1911  0.6820 -0.2253
10513TIP3    H152954   0.998   6.777  14.854 -0.0633 -0.6182 -0.7141
10513TIP3    H252955   1.021   6.806  15.001  0.2409  1.7012 -1.1829
10514TIP3   OH252956   3.043   1.991  15.109 -0.0907  0.7306  0.3904
10514TIP3    H152957   3.046   1.987  15.204 -1.3351 -3.1329  0.4423
10514TIP3    H252958   3.084   1.910  15.079 -1.8571  0.6575 -2.2340
10515TIP3   OH252959   2.080   2.864  13.817 -0.9526  0.1869 -0.6740
10515TIP3    H152960   2.113   2.945  13.855  0.5070 -0.9229  0.5341
10515TIP3    H252961   2.007   2.839  13.874  0.2518 -0.6622  0.5701
10516TIP3   OH252962   4.935   4.704  12.729 -0.0106 -0.0815  0.3217
10516TIP3    H152963   5.010   4.646  12.741  1.1252  1.4280  0.8103
10516TIP3    H252964   4.879   4.688  12.805 -0.1319 -1.1074  0.0326
10517TIP3   OH252965   0.185   3.302   4.472 -0.1655 -0.5079 -0.4902
10517TIP3    H152966   0.165   3.213   4.499 -0.2581 -0.2705  0.2438
10517TIP3    H252967   0.201   3.349   4.554 -0.4667  0.2296 -0.8491
10518TIP3   OH252968   6.757   4.908   4.522  0.5294  0.0189  0.1505
10518TIP3    H152969   6.840   4.881   4.562  0.8328 -0.4588 -0.7681
10518TIP3    H252970   6.710   4.953   4.592  1.3611 -0.1315  0.8219
10519TIP3   OH252971   3.427   0.111   4.013  0.1808  0.3309 -0.3621
10519TIP3    H152972   3.480   0.034   3.992  1.0895  1.0797 -0.8900
10519TIP3    H252973   3.337   0.085   3.992  0.0237 -1.5777  2.1841
10520TIP3   OH252974   5.550   1.282   3.590  0.3456  0.1824 -0.4490
10520TIP3    H152975   5.593   1.288   3.505 -0.9499  0.1075 -1.1281
10520TIP3    H252976   5.526   1.372   3.612  1.4226  0.3147  0.2522
10521TIP3   OH252977   5.605   2.744   2.102 -0.2567 -0.3293 -0.2973
10521TIP3    H152978   5.530   2.691   2.130 -1.7465  1.2253 -1.1611
10521TIP3    H252979   5.572   2.833   2.101  1.9762  0.5678  0.4040
10522TIP3   OH252980   5.222   0.565  15.910 -0.0349 -0.5176  0.2441
10522TIP3    H152981   5.217   0.475  15.877 -0.9858 -0.9985  1.6070
10522TIP3    H252982   5.307   0.597  15.879  0.4321 -1.9640 -0.0706
10523TIP3   OH252983   5.830   4.892  15.678  0.4353 -0.2969  0.2498
10523TIP3    H152984   5.873   4.930  15.754  0.8076 -1.3388  0.5705
10523TIP3    H252985   5.799   4.968  15.628  0.5405  0.4053  1.2207
10524TIP3   OH252986   5.761   4.678   5.017  0.0903  0.3103 -0.7352
10524TIP3    H152987   5.819   4.698   4.943  0.0405  2.1700 -0.3372
10524TIP3    H252988   5.802   4.603   5.061  2.1205  1.4182 -0.6007
10525TIP3   OH252989   5.643   2.643  12.275 -0.2145 -0.1079 -0.3775
10525TIP3    H152990   5.639   2.715  12.338  2.2595 -0.3466  0.1484
10525TIP3    H252991   5.654   2.565  12.328  0.7998 -0.4324 -1.0245
10526TIP3   OH252992   6.243   0.040  13.311  0.4366 -0.4240  0.4713
10526TIP3    H152993   6.251   0.051  13.406 -0.0835 -0.3889  0.5141
10526TIP3    H252994   6.199  -0.045  13.301  1.1087 -0.7483  0.2405
10527TIP3   OH252995   2.477   1.647   2.923 -0.2359 -0.3188  0.2509
10527TIP3    H152996   2.515   1.698   2.851  0.6060 -1.5191 -0.1781
10527TIP3    H252997   2.382   1.655   2.911 -0.1067 -0.6824 -1.1336
10528TIP3   OH252998   3.755   2.248   1.701  0.1981 -0.0860  0.4340
10528TIP3    H152999   3.679   2.190   1.700  1.0032 -1.1596  0.5468
10528TIP3    H253000   3.718   2.335   1.683 -1.0463 -0.5865  0.4464
10529TIP3   OH253001   1.434   6.775   3.392  0.3845 -0.1783 -0.3146
10529TIP3    H153002   1.339   6.773   3.403  0.5846 -1.4587  1.8384
10529TIP3    H253003   1.458   6.865   3.414 -0.2961  0.0643 -0.5314
10530TIP3   OH253004   3.402   5.495  10.850 -0.2577 -0.5180  0.7711
10530TIP3    H153005   3.417   5.413  10.898 -0.0168 -0.4373  0.8386
10530TIP3    H253006   3.396   5.468  10.759  3.0629 -0.3180  0.3621
10531TIP3   OH253007   6.255   2.351   5.578 -0.7517  0.4560  0.1925
10531TIP3    H153008   6.239   2.334   5.671  0.7224  1.4496  0.6751
10531TIP3    H253009   6.298   2.436   5.577 -0.3185  0.2435 -1.3721
10532TIP3   OH253010   3.959   5.584   1.132  0.4242 -0.3976  0.1173
10532TIP3    H153011   3.883   5.534   1.103 -0.0501 -0.3050  1.1516
10532TIP3    H253012   3.948   5.670   1.091  0.9110 -0.9163 -1.1518
10533TIP3   OH253013   1.340   3.132  16.589  0.0030 -0.1650  0.3158
10533TIP3    H153014   1.305   3.120  16.501  0.8410  0.0604 -0.0595
10533TIP3    H253015   1.338   3.226  16.603 -0.2069 -0.2077  0.5679
10534TIP3   OH253016   2.447   0.779  11.966  0.2870  0.3485 -0.6592
10534TIP3    H153017   2.388   0.833  12.019 -0.8784 -0.1768 -1.3920
10534TIP3    H253018   2.468   0.834  11.890  1.6897  0.9716  0.1312
10535TIP3   OH253019   4.985   2.757   0.686  0.5586  0.5674  0.0439
10535TIP3    H153020   4.985   2.712   0.602  1.7581 -0.1780  0.4152
10535TIP3    H253021   4.900   2.735   0.725  0.6539 -0.4342 -0.2818
10536TIP3   OH253022   1.950   3.530   4.752 -0.7228 -0.0235 -0.2456
10536TIP3    H153023   1.909   3.566   4.673 -1.0717  0.8338  0.3119
10536TIP3    H253024   1.901   3.570   4.824 -0.4854 -0.8903  0.4062
10537TIP3   OH253025   0.967   6.341   0.291  0.1994  0.1888 -0.5520
10537TIP3    H153026   0.944   6.301   0.375  1.1305  1.6987  0.4765
10537TIP3    H253027   0.885   6.340   0.241 -0.8019  0.7041  0.9910
10538TIP3   OH253028   4.053   6.731  13.811 -0.3390  0.3842  0.1391
10538TIP3    H153029   4.078   6.784  13.735  1.0452  0.4425  0.6085
10538TIP3    H253030   3.969   6.693  13.787 -2.1274  3.8245  0.2924
10539TIP3   OH253031   0.663   5.181   4.827  0.2525 -0.2930  0.3312
10539TIP3    H153032   0.713   5.105   4.856 -0.4885 -1.1303 -0.5322
10539TIP3    H253033   0.630   5.158   4.740  0.5469  1.2786 -0.2373
10540TIP3   OH253034   5.382   0.254  11.230 -0.1758 -0.2609  0.4591
10540TIP3    H153035   5.370   0.274  11.138  2.6713  1.1855  0.2905
10540TIP3    H253036   5.338   0.325  11.277  1.5690  1.1670  0.0550
10541TIP3   OH253037   3.031   4.723  14.516  0.1267 -0.1232  0.2686
10541TIP3    H153038   3.082   4.662  14.568  0.3411 -0.1371  0.0427
10541TIP3    H253039   3.070   4.719  14.429 -0.5483 -0.4699 -0.0198
10542TIP3   OH253040   2.688   6.013   1.029  0.4814 -0.1112 -0.5005
10542TIP3    H153041   2.762   5.959   1.001  2.0420  2.6348 -2.2489
10542TIP3    H253042   2.726   6.074   1.093 -0.7579  0.0579  0.0978
10543TIP3   OH253043   4.369   6.327   2.362 -0.1177 -0.1075  0.1142
10543TIP3    H153044   4.393   6.420   2.363 -0.1272 -0.0960 -0.4571
10543TIP3    H253045   4.274   6.327   2.365 -0.0961 -0.1663  3.0991
10544TIP3   OH253046   5.463   5.351  15.286 -0.1443 -0.0486  0.5968
10544TIP3    H153047   5.517   5.295  15.231 -0.7613 -1.4346  1.3541
10544TIP3    H253048   5.396   5.384  15.227  1.0299  1.0566 -0.1714
10545TIP3   OH253049   4.461   4.146  10.469 -0.4761  0.3523  0.1228
10545TIP3    H153050   4.546   4.103  10.481 -0.2931  0.9605  1.1635
10545TIP3    H253051   4.483   4.229  10.425 -0.5070  0.5786  0.5296
10546TIP3   OH253052   3.551   4.198  13.780 -0.0441  0.6390  0.0266
10546TIP3    H153053   3.535   4.271  13.840 -0.8584  1.3112 -0.9670
10546TIP3    H253054   3.530   4.233  13.693 -0.5686 -0.8029 -0.4652
10547TIP3   OH253055   6.709   4.227  15.228  0.4266  0.8055  0.3876
10547TIP3    H153056   6.764   4.286  15.175  1.7770 -1.0383 -0.3987
10547TIP3    H253057   6.764   4.205  15.304  1.2318 -1.6511 -0.7775
10548TIP3   OH253058   6.685   1.032   2.716  0.0721  0.1423 -0.0888
10548TIP3    H153059   6.649   1.071   2.636 -1.2520  0.2004  0.5094
10548TIP3    H253060   6.628   0.957   2.733  0.7983 -0.3042  0.3991
10549TIP3   OH253061   6.747   5.455  12.530 -0.3379 -0.1204 -0.1102
10549TIP3    H153062   6.725   5.374  12.483 -1.1569  0.4529 -0.7398
10549TIP3    H253063   6.819   5.493  12.480 -0.1285 -0.3197  0.0354
10550TIP3   OH253064   4.448   2.069   5.429 -0.3197  0.0360 -0.5136
10550TIP3    H153065   4.544   2.064   5.435 -0.1034  0.6568 -2.6577
10550TIP3    H253066   4.419   2.090   5.518  1.3405 -2.3563  0.6985
10551TIP3   OH253067   5.298   0.668  14.297 -0.4061 -0.4393 -0.4491
10551TIP3    H153068   5.367   0.733  14.286 -2.3868  2.1889  1.3911
10551TIP3    H253069   5.342   0.592  14.337  1.2571  1.6506  1.9699
10552TIP3   OH253070   1.694   1.271  16.442  0.0278 -0.4286 -0.2174
10552TIP3    H153071   1.676   1.305  16.530  2.2027  1.8386 -0.5361
10552TIP3    H253072   1.614   1.288  16.393 -0.1435  1.2351  0.5540
10553TIP3   OH253073   5.615   4.730  11.543  0.3426  0.6055  0.4150
10553TIP3    H153074   5.659   4.714  11.459 -1.0783 -1.7592  0.0325
10553TIP3    H253075   5.670   4.686  11.607  0.4404  0.7755  0.4471
10554TIP3   OH253076   6.134   3.442   0.817 -0.1775  0.1861 -0.2491
10554TIP3    H153077   6.140   3.471   0.908 -1.1946  1.0422 -0.4425
10554TIP3    H253078   6.051   3.477   0.786  1.3638  2.2765 -2.3316
10555TIP3   OH253079   3.677   0.608  11.270  0.4879 -0.2204 -0.0535
10555TIP3    H153080   3.706   0.697  11.248 -1.9865  0.3671 -1.3683
10555TIP3    H253081   3.643   0.573  11.187  0.0085 -1.8156  0.7758
10556TIP3   OH253082   1.245   3.878  12.902  0.1546 -0.2321  0.0234
10556TIP3    H153083   1.244   3.965  12.861 -2.7932 -0.9651 -1.7567
10556TIP3    H253084   1.330   3.842  12.876  0.3835  1.1835 -1.4192
10557TIP3   OH253085   5.497   1.489   3.821  0.7210  0.4785 -0.3988
10557TIP3    H153086   5.468   1.555   3.885 -0.8411 -1.2783  0.8017
10557TIP3    H253087   5.590   1.477   3.840  0.8505  1.7328 -0.1179
10558TIP3   OH253088   5.965   5.581   3.199 -0.1302 -0.1833 -0.7166
10558TIP3    H153089   5.883   5.609   3.159 -1.0122 -1.3009  0.2406
10558TIP3    H253090   5.965   5.486   3.190 -0.2018 -0.4651  1.5139
10559TIP3   OH253091   4.639   3.473   3.488  0.3664 -0.2787  0.2778
10559TIP3    H153092   4.727   3.472   3.449 -0.7116  0.8277 -2.4001
10559TIP3    H253093   4.580   3.452   3.416 -1.6895  0.0334  1.7729
10560TIP3   OH253094   1.236   2.034  11.367 -0.1660  0.3241  0.4301
10560TIP3    H153095   1.161   2.093  11.372 -1.8269 -1.6419  0.0230
10560TIP3    H253096   1.272   2.049  11.280  0.8216  2.2490  1.1105
10561TIP3   OH253097   5.990   5.282   6.131  0.0219  0.1168 -0.1591
10561TIP3    H153098   6.083   5.275   6.112 -0.1715 -0.8296 -0.8747
10561TIP3    H253099   5.963   5.192   6.151 -0.7394  0.3727 -0.0089
10562TIP3   OH253100   0.508   5.799   0.637  0.0464 -0.2863 -0.1484
10562TIP3    H153101   0.504   5.713   0.594 -0.2798 -0.8859  1.0296
10562TIP3    H253102   0.421   5.837   0.622 -0.3824 -0.8854  0.7298
10563TIP3   OH253103   1.087   5.939  16.550 -0.5775 -0.0226  0.1316
10563TIP3    H153104   1.155   5.993  16.510  0.2666 -0.1749  1.3101
10563TIP3    H253105   1.099   5.852  16.511 -0.7563  0.1961 -0.4137
10564TIP3   OH253106   1.267   4.385   2.709  0.0757 -0.4861  0.1282
10564TIP3    H153107   1.270   4.408   2.616  1.6987  0.6198  0.4136
10564TIP3    H253108   1.205   4.313   2.714 -2.0781  1.1251 -1.4285
10565TIP3   OH253109   3.491   3.223   5.191  0.0220 -0.3311  0.4575
10565TIP3    H153110   3.560   3.172   5.148  2.0129  2.9844 -0.6636
10565TIP3    H253111   3.413   3.168   5.186  1.8210 -2.9373 -1.1755
10566TIP3   OH253112   2.758   5.101  14.626 -0.2390  0.3567 -0.2998
10566TIP3    H153113   2.721   5.077  14.542  0.0633 -0.6444 -0.1568
10566TIP3    H253114   2.824   5.034  14.644  0.4501  1.1580  0.2325
10567TIP3   OH253115   3.070   5.340  16.868 -0.2724  0.0687  0.4173
10567TIP3    H153116   3.077   5.425  16.825 -1.0896 -1.3947 -2.8820
10567TIP3    H253117   3.148   5.336  16.924  0.6470  2.3280 -0.5586
10568TIP3   OH253118   4.548   1.982  11.194 -0.0647 -0.1823  0.0513
10568TIP3    H153119   4.577   2.073  11.199  0.4317 -0.2909 -0.6397
10568TIP3    H253120   4.513   1.963  11.281  0.3362  0.4971  0.3720
10569TIP3   OH253121   0.817   2.281   2.090 -0.1513 -0.1630 -1.1705
10569TIP3    H153122   0.909   2.301   2.101 -0.5192  1.0588 -0.0924
10569TIP3    H253123   0.779   2.361   2.053 -0.6727 -0.8788 -2.2290
10570TIP3   OH253124   1.943   6.637   0.729  0.2516 -0.3818  0.0554
10570TIP3    H153125   1.857   6.642   0.687  0.8771 -0.5705 -1.3035
10570TIP3    H253126   2.003   6.676   0.666  1.5880 -2.8167 -0.3341
10571TIP3   OH253127   0.358   6.249  16.825 -0.1599  0.1659  0.1090
10571TIP3    H153128   0.439   6.246  16.774 -0.0186  1.0276  0.2550
10571TIP3    H253129   0.297   6.192  16.778  0.7446 -1.0860  0.3974
10572TIP3   OH253130   5.232   1.209   2.883  0.1253  0.2738 -0.1174
10572TIP3    H153131   5.248   1.127   2.838  0.5492 -0.5356  1.4354
10572TIP3    H253132   5.293   1.271   2.843 -0.5098 -0.0132 -1.6121
10573TIP3   OH253133   0.322   1.471  16.510 -0.3724  0.3739 -0.1061
10573TIP3    H153134   0.412   1.488  16.537 -0.8403  0.7435  1.2845
10573TIP3    H253135   0.330   1.401  16.446  1.0481  1.5468 -1.3161
10574TIP3   OH253136   3.821   6.211  12.179 -0.2222  0.0475  0.8012
10574TIP3    H153137   3.801   6.122  12.208  1.5084 -0.2571  1.1675
10574TIP3    H253138   3.771   6.267  12.237 -1.5622 -0.6769  0.3802
10575TIP3   OH253139   1.946   1.379  14.968 -0.1482  0.2511  0.4718
10575TIP3    H153140   1.888   1.435  15.020  1.0720  0.8862  1.2074
10575TIP3    H253141   1.903   1.294  14.968 -0.9255  0.6273  1.2700
10576TIP3   OH253142   1.789   0.246  10.853  0.6077 -0.4049  0.4469
10576TIP3    H153143   1.863   0.221  10.908  1.8924  1.8741 -0.1028
10576TIP3    H253144   1.829   0.292  10.779 -1.3422  1.1680  0.2905
10577TIP3   OH253145   2.648   6.515  12.161  0.7955 -0.7456  0.2138
10577TIP3    H153146   2.557   6.516  12.189  0.3943  1.0384 -0.9966
10577TIP3    H253147   2.644   6.526  12.066  2.2488 -2.0001 -0.0398
10578TIP3   OH253148   0.959   1.101   1.897 -0.5595  0.4089 -0.3345
10578TIP3    H153149   1.038   1.047   1.899 -0.5114  0.4091  2.3625
10578TIP3    H253150   0.889   1.040   1.922 -0.7921  1.1614  0.9160
10579TIP3   OH253151   4.959   4.635   2.590 -0.4155  0.5369 -0.4945
10579TIP3    H153152   4.906   4.672   2.660 -0.8845  3.0453 -2.0379
10579TIP3    H253153   5.049   4.648   2.618 -0.5994  1.3318 -0.2497
10580TIP3   OH253154   4.138   3.323   0.612 -0.3285 -0.2398  0.3792
10580TIP3    H153155   4.049   3.351   0.594 -0.5108 -0.1230  1.3972
10580TIP3    H253156   4.130   3.260   0.684  0.2233 -1.7703 -0.8257
10581TIP3   OH253157   3.836   2.735  14.311 -0.1393  0.7765  0.0557
10581TIP3    H153158   3.788   2.784  14.245 -0.8630 -0.0470 -0.0543
10581TIP3    H253159   3.925   2.728  14.276 -0.6342 -0.1035 -1.1191
10582TIP3   OH253160   1.389   2.506  14.223  0.1051  0.1262  0.1086
10582TIP3    H153161   1.345   2.542  14.145  0.1672 -0.5297 -0.2352
10582TIP3    H253162   1.441   2.579  14.256  0.7471  0.1909 -0.9636
10583TIP3   OH253163   1.556   6.458  13.038 -0.2790  0.0583  0.3197
10583TIP3    H153164   1.550   6.548  13.069 -0.4239  0.3137 -0.4546
10583TIP3    H253165   1.615   6.461  12.963 -0.3966 -0.4665  0.1975
10584TIP3   OH253166   0.734   1.581   2.738 -0.7296  0.0693 -0.0807
10584TIP3    H153167   0.672   1.573   2.811 -0.5195  1.9524  0.3648
10584TIP3    H253168   0.688   1.633   2.672 -0.1294  0.3022 -0.3273
10585TIP3   OH253169   0.819   0.402   2.476 -0.0806  0.7342  0.4298
10585TIP3    H153170   0.879   0.330   2.455 -0.5588  0.8861 -1.6509
10585TIP3    H253171   0.753   0.362   2.533 -0.8418 -0.7618 -1.3926
10586TIP3   OH253172   4.051   0.286   0.748  0.4572 -0.0123  0.0793
10586TIP3    H153173   4.143   0.268   0.727  0.2710 -1.2234  0.2169
10586TIP3    H253174   4.039   0.250   0.836 -0.0163  0.6283  0.2845
10587TIP3   OH253175   3.275   6.662   5.660 -0.1679 -0.1814  0.0952
10587TIP3    H153176   3.321   6.579   5.644  1.0660  0.3933  0.5853
10587TIP3    H253177   3.317   6.725   5.602 -0.4656  0.3236  0.4240
10588TIP3   OH253178   1.424   2.552   4.489  0.3941 -0.0815 -0.3467
10588TIP3    H153179   1.382   2.466   4.481 -0.3254  0.0840  1.2150
10588TIP3    H253180   1.444   2.578   4.399  0.1924 -1.6653 -0.8795
10589TIP3   OH253181   5.500   3.758   5.552  0.1223 -0.1249 -0.4748
10589TIP3    H153182   5.540   3.725   5.633 -0.6849  1.2756  0.5514
10589TIP3    H253183   5.559   3.828   5.524 -0.0546 -0.0348 -0.6153
10590TIP3   OH253184   4.973   1.808   6.338  0.6113 -0.1139 -0.7406
10590TIP3    H153185   5.017   1.750   6.400 -1.1605 -0.1511  0.5551
10590TIP3    H253186   4.996   1.897   6.368 -0.3121 -0.1294  0.0807
10591TIP3   OH253187   6.653   0.885   0.591  0.0908 -0.4190  0.1963
10591TIP3    H153188   6.721   0.874   0.658  1.7096 -1.9509 -1.5859
10591TIP3    H253189   6.620   0.796   0.576 -1.3789  0.1275  0.0449
10592TIP3   OH253190   1.360   1.472   3.085  0.2398  0.7707  0.1388
10592TIP3    H153191   1.302   1.452   3.159 -2.4284  2.4787 -1.3153
10592TIP3    H253192   1.317   1.546   3.041  3.0430  1.4415 -1.6978
10593TIP3   OH253193   0.184   2.290   4.647 -0.0988  0.4432 -0.4530
10593TIP3    H153194   0.261   2.234   4.663 -0.0429  0.7199  0.3138
10593TIP3    H253195   0.130   2.239   4.587 -0.9651 -1.3342  1.6846
10594TIP3   OH253196   5.304   4.208   1.433 -0.7487  0.0131  0.1264
10594TIP3    H153197   5.257   4.127   1.414  0.0990 -0.6793  0.9067
10594TIP3    H253198   5.371   4.183   1.497 -1.1272  1.5229  1.1744
10595TIP3   OH253199   2.432   0.285   0.905  0.7893  0.1475  0.5896
10595TIP3    H153200   2.393   0.200   0.924 -1.7477  0.1876 -3.3504
10595TIP3    H253201   2.511   0.265   0.855  0.2194  0.0380 -0.2937
10596TIP3   OH253202   5.068   6.475   0.857 -0.4781  0.7826 -0.0398
10596TIP3    H153203   5.036   6.453   0.769 -0.4930  0.9130 -0.0661
10596TIP3    H253204   5.093   6.567   0.852  0.2854  0.5796 -0.1326
10597TIP3   OH253205   2.914   4.715   6.277  0.2409 -0.7660 -0.7281
10597TIP3    H153206   2.997   4.678   6.310 -0.3905 -1.4413  0.1469
10597TIP3    H253207   2.847   4.679   6.335 -0.2963  3.1842  1.4933
10598TIP3   OH253208   1.166   0.195   3.171  0.3962  0.4613 -0.8105
10598TIP3    H153209   1.221   0.127   3.210 -0.6815 -1.3619 -2.2802
10598TIP3    H253210   1.080   0.184   3.213  0.4075  1.4631 -0.4994
10599TIP3   OH253211   2.457   4.047   6.247  0.2242 -0.5555 -0.4691
10599TIP3    H153212   2.543   4.070   6.283  0.2781 -0.7230 -0.4931
10599TIP3    H253213   2.401   4.041   6.324  0.1974 -0.2900 -0.4664
10600TIP3   OH253214   3.476   3.363  16.014 -0.2705 -0.0649 -0.4598
10600TIP3    H153215   3.483   3.458  16.013  0.8628 -0.1294  0.2806
10600TIP3    H253216   3.424   3.342  15.936 -0.0594  1.1161 -0.9344
10601TIP3   OH253217   2.234   6.737   2.839  0.3502 -0.0498 -0.1841
10601TIP3    H153218   2.266   6.795   2.907  0.1060 -1.3600  1.0949
10601TIP3    H253219   2.196   6.663   2.886  2.6455 -2.3761 -1.6720
10602TIP3   OH253220   5.865   4.882   5.890 -0.0086 -0.2433 -0.0185
10602TIP3    H153221   5.785   4.854   5.936  0.0325  0.5853  0.5809
10602TIP3    H253222   5.905   4.801   5.861 -0.8483 -0.7002  0.0578
10603TIP3   OH253223   5.893   1.038   2.330 -0.2647  0.8308 -0.0036
10603TIP3    H153224   5.851   1.068   2.250 -0.6500 -0.3339 -0.2593
10603TIP3    H253225   5.836   0.969   2.363 -0.4086  1.6762  1.5917
10604TIP3   OH253226   0.481   0.919  13.288 -0.7386 -0.1304  0.9236
10604TIP3    H153227   0.520   0.966  13.361 -1.1321 -1.4934  2.0449
10604TIP3    H253228   0.523   0.833  13.289 -2.0189 -0.7827  0.6530
10605TIP3   OH253229   3.031   6.511  12.581  0.0149  0.4106  0.4304
10605TIP3    H153230   3.083   6.448  12.531  0.1596 -0.1731  1.2927
10605TIP3    H253231   2.960   6.535  12.522  0.4779  0.1503 -0.2503
10606TIP3   OH253232   1.191   3.101  12.555  0.4585 -0.7365 -0.1538
10606TIP3    H153233   1.218   3.038  12.488  0.4182 -1.3008  0.3545
10606TIP3    H253234   1.271   3.119  12.604  0.4747 -0.3684 -0.3075
10607TIP3   OH253235   1.197   4.540  13.233  0.0291  0.0317  0.1569
10607TIP3    H153236   1.272   4.486  13.210 -0.0115 -0.8150  1.8472
10607TIP3    H253237   1.234   4.622  13.266  0.1253  0.4488 -0.9342
10608TIP3   OH253238   0.243   5.583   2.516 -0.1326  0.6674  0.0525
10608TIP3    H153239   0.248   5.618   2.427 -2.0083  0.5714 -0.1232
10608TIP3    H253240   0.220   5.659   2.570  1.8114  0.8994  0.6155
10609TIP3   OH253241   5.322   1.574   4.575 -0.0234  0.2053 -0.5589
10609TIP3    H153242   5.332   1.524   4.494 -0.2621 -0.3419 -0.2540
10609TIP3    H253243   5.230   1.562   4.600  0.6447 -1.8074  1.1825
10610TIP3   OH253244   1.721   4.328   3.165  0.5304 -0.7003  0.0501
10610TIP3    H153245   1.644   4.383   3.180  2.1068  0.9683  2.8150
10610TIP3    H253246   1.697   4.244   3.204 -0.5138 -0.7969 -0.7502
10611TIP3   OH253247   2.542   0.399  16.717 -0.0967 -0.1344 -0.2230
10611TIP3    H153248   2.536   0.383  16.622 -0.1514  0.5809 -0.3455
10611TIP3    H253249   2.530   0.493  16.726  0.4299 -0.1245  0.4582
10612TIP3   OH253250   4.093   4.998   1.709  0.2459  0.1423  0.3544
10612TIP3    H153251   4.097   4.945   1.630  2.3622  0.7125  0.0154
10612TIP3    H253252   4.016   4.965   1.756  0.3384 -1.8409 -0.7717
10613TIP3   OH253253   0.906   1.475   3.693  0.2388  0.0271  0.6911
10613TIP3    H153254   0.823   1.462   3.739  0.0298 -0.1108  0.2807
10613TIP3    H253255   0.946   1.388   3.692  0.8137  0.2708  1.6879
10614TIP3   OH253256   1.721   0.409   3.086 -0.1919 -0.4890  0.1643
10614TIP3    H153257   1.773   0.488   3.068  1.9720 -2.1389 -1.4152
10614TIP3    H253258   1.653   0.410   3.018 -0.8851  0.5345  0.8407
10615TIP3   OH253259   3.652   5.638   6.267 -0.2597 -0.0024 -0.0149
10615TIP3    H153260   3.709   5.579   6.217  1.6176  1.9189 -0.2760
10615TIP3    H253261   3.573   5.644   6.214 -0.1289 -1.5498 -0.4354
10616TIP3   OH253262   4.623   6.066   3.968 -0.0200  0.1520  0.1138
10616TIP3    H153263   4.638   6.138   3.906 -1.0925 -0.4411 -0.8928
10616TIP3    H253264   4.527   6.063   3.977  0.0980 -0.0790  1.4609
10617TIP3   OH253265   0.581   0.503   4.268 -0.4305 -0.6320  0.2289
10617TIP3    H153266   0.606   0.411   4.259  0.2536 -0.3865 -0.5492
10617TIP3    H253267   0.495   0.508   4.225  0.7524 -0.4055 -2.3446
10618TIP3   OH253268   2.612   6.640   3.848 -0.1318  0.0604 -0.4408
10618TIP3    H153269   2.690   6.689   3.874 -1.6779  1.1594  2.6779
10618TIP3    H253270   2.621   6.555   3.890  0.3974 -0.6846 -2.0011
10619TIP3   OH253271   1.290   2.102  15.035 -0.2991  0.8529  0.3749
10619TIP3    H153272   1.255   2.021  15.071 -2.4930  1.6493  0.1753
10619TIP3    H253273   1.384   2.087  15.029 -0.7163 -1.9772 -0.4326
10620TIP3   OH253274   5.363   6.297  14.680 -0.7963 -0.4717  0.2407
10620TIP3    H153275   5.340   6.343  14.760 -3.2800 -0.9573 -0.1067
10620TIP3    H253276   5.430   6.352  14.639  0.2893 -0.0373  2.4192
10621TIP3   OH253277   6.781   5.523   2.410 -0.8538  0.0326 -0.0621
10621TIP3    H153278   6.741   5.605   2.440 -0.0085  0.4869 -0.1500
10621TIP3    H253279   6.869   5.524   2.448 -1.1316 -1.2588  0.6727
10622TIP3   OH253280   4.649   5.588   0.629 -0.9332 -0.0859  0.0876
10622TIP3    H153281   4.650   5.614   0.721 -2.5171 -0.7522  0.3268
10622TIP3    H253282   4.651   5.493   0.631 -0.8437 -0.1018 -0.5740
10623TIP3   OH253283   4.947   6.518   0.604 -0.5440 -0.7395 -0.2336
10623TIP3    H153284   4.968   6.435   0.562  1.0662 -0.4811  0.0043
10623TIP3    H253285   4.911   6.572   0.534  0.0895 -1.0478 -0.8088
10624TIP3   OH253286   1.018   5.233  16.814  0.0327  0.3692  0.5447
10624TIP3    H153287   1.085   5.181  16.770  1.1115  2.4699 -0.4168
10624TIP3    H253288   0.939   5.179  16.808  0.4729 -0.1079 -2.6675
10625TIP3   OH253289   1.057   3.665  12.930 -0.3131 -0.4331  0.5636
10625TIP3    H153290   0.999   3.630  12.862 -0.1040 -0.9792  0.6562
10625TIP3    H253291   1.081   3.752  12.899 -2.2213  0.3693  1.1506
10626TIP3   OH253292   1.307   5.954  13.379 -0.0951 -0.5769  0.8411
10626TIP3    H153293   1.378   5.998  13.332  0.3232 -0.4898  1.5352
10626TIP3    H253294   1.287   5.877  13.326  0.2861 -0.4211  0.4653
10627TIP3   OH253295   0.456   1.498  12.051  0.7904 -0.0024  0.4114
10627TIP3    H153296   0.452   1.413  12.094  2.5344  0.2050  1.0644
10627TIP3    H253297   0.532   1.492  11.992  2.0441  1.6132  1.7395
10628TIP3   OH253298   5.026   5.542  11.839  0.3014  0.1642 -0.5245
10628TIP3    H153299   5.001   5.607  11.904  1.3984 -0.3102  0.4086
10628TIP3    H253300   4.948   5.488  11.828  0.3531 -0.3125  1.1116
10629TIP3   OH253301   0.925   4.516  13.078  0.5138 -0.6738 -0.2841
10629TIP3    H153302   0.999   4.492  13.135 -0.4193  1.4471  2.0314
10629TIP3    H253303   0.850   4.470  13.116 -0.2311  1.2238  0.6927
10630TIP3   OH253304   5.681   2.258   1.753 -1.0673  0.1343  0.4652
10630TIP3    H153305   5.689   2.299   1.839 -3.8341  1.4572  0.1890
10630TIP3    H253306   5.750   2.299   1.701 -0.3776  0.4759  1.6106
10631TIP3   OH253307   5.850   5.641   1.553 -0.1763  0.8435 -0.4006
10631TIP3    H153308   5.758   5.634   1.528 -0.2116 -1.5729  0.1757
10631TIP3    H253309   5.848   5.656   1.648  0.0455  1.6784 -0.5163
10632TIP3   OH253310   1.312   3.334  13.974 -0.0356  0.5282  0.2109
10632TIP3    H153311   1.311   3.310  13.881 -1.3207  1.2873  0.0190
10632TIP3    H253312   1.397   3.376  13.986  0.2873  0.1143 -0.5285
10633TIP3   OH253313   1.859   4.448  12.624  0.3158  0.5216  0.0250
10633TIP3    H153314   1.921   4.395  12.674  0.9983  0.2802 -1.0343
10633TIP3    H253315   1.914   4.499  12.564 -0.3509  2.2008  0.7786
10634TIP3   OH253316   6.195   1.462   0.942 -0.4372 -0.0688 -0.1250
10634TIP3    H153317   6.240   1.538   0.977 -0.7718  0.1537 -0.1737
10634TIP3    H253318   6.115   1.497   0.903  0.2156 -0.2112 -1.7062
10635TIP3   OH253319   6.052   3.888   1.983 -0.0016 -0.2574  0.3601
10635TIP3    H153320   6.069   3.883   2.077  0.1511 -0.6827  0.3156
10635TIP3    H253321   6.067   3.980   1.960  0.8064 -0.3153  0.5978
10636TIP3   OH253322   3.615   2.724  16.662 -0.5026  0.0689 -0.2912
10636TIP3    H153323   3.677   2.794  16.644  0.0844 -0.4815 -0.4232
10636TIP3    H253324   3.623   2.665  16.587  0.8694 -1.4554  0.9902
10637TIP3   OH253325   5.104   3.017   3.068  0.0020 -0.1802  0.0152
10637TIP3    H153326   5.189   2.981   3.093 -2.0470 -4.3262  2.1163
10637TIP3    H253327   5.088   2.982   2.980  0.6935  1.2704 -0.7245
10638TIP3   OH253328   0.871   2.956   5.345  0.2662  0.0504  0.2764
10638TIP3    H153329   0.846   2.969   5.253 -0.8335 -0.3517  0.4982
10638TIP3    H253330   0.911   2.869   5.346  2.1207  0.8663 -0.1554
10639TIP3   OH253331   5.139   4.702   0.603 -0.0039 -0.0034  0.3563
10639TIP3    H153332   5.210   4.657   0.556  2.0696  0.2707  2.9930
10639TIP3    H253333   5.136   4.789   0.562  0.7140 -0.2445 -0.2496
10640TIP3   OH253334   6.640   4.681  13.356 -0.1457 -0.7666  0.1442
10640TIP3    H153335   6.576   4.685  13.285  0.8522 -0.0903 -0.7332
10640TIP3    H253336   6.598   4.728  13.428 -0.0987  0.9041 -0.8715
10641TIP3   OH253337   3.677   0.985   6.306  0.1971 -0.0790 -0.8356
10641TIP3    H153338   3.767   1.014   6.322  0.0021  0.6400 -1.0017
10641TIP3    H253339   3.623   1.045   6.358 -0.1556 -0.9047 -0.2281
10642TIP3   OH253340   1.188   5.849   0.098 -0.5031 -0.2357 -0.2569
10642TIP3    H153341   1.139   5.767   0.105 -0.6925 -0.2222 -1.2971
10642TIP3    H253342   1.136   5.903   0.040 -1.6195  1.5730  2.2500
10643TIP3   OH253343   4.773   0.229  10.524  0.0109 -0.5931  0.4785
10643TIP3    H153344   4.713   0.155  10.528 -0.2335 -0.5146 -1.1698
10643TIP3    H253345   4.858   0.189  10.503 -0.1687 -0.3919 -0.6479
10644TIP3   OH253346   3.080   5.574  16.177  0.1778  0.0484  0.3764
10644TIP3    H153347   3.069   5.663  16.144  1.5861  0.1675  0.1466
10644TIP3    H253348   2.993   5.547  16.205 -0.2662  1.5139  0.4746
10645TIP3   OH253349   6.427   0.003  15.415  0.3607  0.3232  0.1496
10645TIP3    H153350   6.451   0.071  15.477  0.6090  0.2734  0.1090
10645TIP3    H253351   6.478  -0.074  15.443 -1.5181 -0.4976  1.5279
10646TIP3   OH253352   0.997   5.357  13.663  0.3532  0.0841  0.6048
10646TIP3    H153353   0.970   5.403  13.743  1.3084 -0.3141  1.1791
10646TIP3    H253354   0.924   5.297  13.645  0.3328 -0.1738  1.4695
10647TIP3   OH253355   4.993   2.972  15.910  0.9440  0.0879  0.3764
10647TIP3    H153356   5.077   2.978  15.957 -0.5905  0.7179  3.2876
10647TIP3    H253357   4.969   3.063  15.892  0.2495  0.0124  0.8642
10648TIP3   OH253358   3.232   3.505   1.578 -1.1915 -0.3552  0.1846
10648TIP3    H153359   3.309   3.545   1.621 -2.1242  0.7391  0.9073
10648TIP3    H253360   3.169   3.577   1.572 -2.6987 -1.5622  0.9389
10649TIP3   OH253361   1.368   5.022  16.697  0.6532  0.4284 -0.1266
10649TIP3    H153362   1.351   4.928  16.689  2.4256  0.0027  0.5139
10649TIP3    H253363   1.460   5.031  16.670  0.3352  2.0827 -0.7601
10650TIP3   OH253364   2.213   0.045  15.596 -0.4319 -0.1264  0.2524
10650TIP3    H153365   2.260   0.062  15.515 -1.3196  1.3646 -0.0013
10650TIP3    H253366   2.238  -0.043  15.621  1.0809 -0.0313 -0.8055
10651TIP3   OH253367   3.405   2.049  12.423  0.8251  0.0767  0.0638
10651TIP3    H153368   3.476   2.101  12.385  0.4111  1.0254  0.5341
10651TIP3    H253369   3.343   2.115  12.456 -0.5648 -0.7099 -0.8663
10652TIP3   OH253370   2.445   3.700  11.521 -0.1981  0.4987  0.1152
10652TIP3    H153371   2.494   3.774  11.559 -0.8647  0.5143  0.9628
10652TIP3    H253372   2.494   3.623  11.550  0.9326  0.6063 -1.3903
10653TIP3   OH253373   0.330   4.116   5.785 -0.1087  0.0243 -0.5892
10653TIP3    H153374   0.343   4.135   5.692  0.7226  0.0835 -0.4677
10653TIP3    H253375   0.397   4.167   5.829  0.9206 -1.6579 -0.1082
10654TIP3   OH253376   1.047   6.068   2.315 -0.4545 -1.2790 -0.1609
10654TIP3    H153377   0.969   6.088   2.367 -1.6068 -1.9503 -1.5610
10654TIP3    H253378   1.023   6.091   2.225  2.1040  1.6128 -0.2792
10655TIP3   OH253379   4.302   2.191  14.644  0.1396 -0.1507 -0.6071
10655TIP3    H153380   4.214   2.225  14.628  0.3810  1.1407  0.5921
10655TIP3    H253381   4.288   2.102  14.676 -0.9052  0.6678  1.4238
10656TIP3   OH253382   5.056   2.442   1.762 -0.5353  0.1832  0.2754
10656TIP3    H153383   5.006   2.465   1.684 -1.0254  0.3659  0.6344
10656TIP3    H253384   5.057   2.346   1.762 -1.0716  0.1697  0.3669
10657TIP3   OH253385   6.154   1.911   2.582  0.4020  0.0889  0.2709
10657TIP3    H153386   6.228   1.859   2.615  0.8502 -0.5208 -1.5732
10657TIP3    H253387   6.159   1.993   2.630  2.8949  0.4494 -0.4760
10658TIP3   OH253388   3.621   2.057  14.630  0.0901 -0.0772 -0.6814
10658TIP3    H153389   3.651   2.082  14.543 -1.5573 -0.7984 -1.5067
10658TIP3    H253390   3.531   2.027  14.617 -0.2058 -0.1999  1.2758
10659TIP3   OH253391   4.072   2.829   1.166  0.0538 -0.2521 -0.1987
10659TIP3    H153392   4.053   2.854   1.257  1.8305 -1.3776  0.5382
10659TIP3    H253393   3.992   2.849   1.118 -1.0759 -0.0100  1.7007
10660TIP3   OH253394   2.590   3.205   5.590 -0.2022 -0.3415  0.7242
10660TIP3    H153395   2.577   3.111   5.606  1.9724 -1.0787 -1.2689
10660TIP3    H253396   2.624   3.238   5.673 -1.6753 -1.1116  1.6911
10661TIP3   OH253397   4.937   1.570   3.250 -0.7437 -0.6307  0.0886
10661TIP3    H153398   4.856   1.617   3.266  0.2647  0.5609  2.0358
10661TIP3    H253399   4.951   1.518   3.328  0.4921 -0.6224 -0.1069
10662TIP3   OH253400   4.873   5.502  15.497 -0.3163 -0.0391  0.1986
10662TIP3    H153401   4.890   5.412  15.470  0.2858  0.4694 -1.2405
10662TIP3    H253402   4.935   5.519  15.568  0.5202 -0.3582 -0.4323
10663TIP3   OH253403   1.413   3.072  11.895 -0.0104 -0.5330  0.0901
10663TIP3    H153404   1.390   3.019  11.971  1.7472 -0.5053  0.6885
10663TIP3    H253405   1.330   3.087  11.850 -1.1355 -0.2996  2.1454
10664TIP3   OH253406   2.293   5.436  14.589  0.3368 -0.7491 -1.2530
10664TIP3    H153407   2.268   5.366  14.649  1.4889  0.3175  0.5779
10664TIP3    H253408   2.220   5.498  14.592  1.5068  0.6942  1.4140
10665TIP3   OH253409   3.608   6.231  15.809  0.2980  0.3822  0.3314
10665TIP3    H153410   3.582   6.149  15.852 -5.2448  0.6685 -1.6037
10665TIP3    H253411   3.643   6.204  15.724  0.7305 -0.0012  0.6300
10666TIP3   OH253412   5.346   3.892  14.030  0.1193  0.2946 -0.0155
10666TIP3    H153413   5.424   3.885  13.974 -0.6019  0.5642 -1.0789
10666TIP3    H253414   5.276   3.920  13.971 -0.9607 -0.6531  0.7625
10667TIP3   OH253415   1.639   3.127  11.696  0.2939  0.0250 -0.3289
10667TIP3    H153416   1.567   3.115  11.758 -0.0095  2.0122 -0.2363
10667TIP3    H253417   1.609   3.196  11.638  2.2149  1.1014 -0.1160
10668TIP3   OH253418   3.705   1.572   3.058  0.4999 -0.0537  0.2913
10668TIP3    H153419   3.673   1.519   3.132  1.2634 -0.4782  0.3342
10668TIP3    H253420   3.698   1.513   2.983 -1.1288  0.6759 -0.1642
10669TIP3   OH253421   6.129   3.709   3.053 -0.5873  0.5709 -0.0805
10669TIP3    H153422   6.186   3.786   3.054  0.0007  0.1264  0.3670
10669TIP3    H253423   6.133   3.677   2.963  0.1804  0.3075  0.0467
10670TIP3   OH253424   5.755   2.720   0.678  0.1769 -0.0846 -0.0211
10670TIP3    H153425   5.684   2.775   0.644  2.5936  2.8918 -0.6316
10670TIP3    H253426   5.802   2.691   0.599 -0.6263 -2.5878  0.3367
10671TIP3   OH253427   5.953   1.358   3.230 -0.6729 -0.5298 -0.1533
10671TIP3    H153428   5.976   1.266   3.217  0.4713  0.0416 -2.8603
10671TIP3    H253429   6.038   1.403   3.236 -1.2138  0.3784  1.3045
10672TIP3   OH253430   5.199   3.835  11.468  0.6242 -0.2663 -0.6881
10672TIP3    H153431   5.149   3.788  11.402  0.8654 -0.3657 -0.8046
10672TIP3    H253432   5.226   3.916  11.425  1.6295 -0.7715 -1.0635
10673TIP3   OH253433   1.015   2.243   0.878 -0.4309 -0.3558  0.4409
10673TIP3    H153434   0.951   2.296   0.925 -0.7321 -1.0521  0.8326
10673TIP3    H253435   0.975   2.157   0.872  0.8648 -1.0992  1.6086
10674TIP3   OH253436   4.025   4.844  11.589 -0.5529 -0.0963  0.5307
10674TIP3    H153437   3.999   4.754  11.609  0.0864  0.0960  2.3507
10674TIP3    H253438   3.950   4.897  11.616 -0.5384  0.0096  0.3653
10675TIP3   OH253439   0.763   1.545   1.274 -0.6571  0.0166 -0.6447
10675TIP3    H153440   0.678   1.586   1.258 -1.1210  0.9526  3.1990
10675TIP3    H253441   0.823   1.618   1.288 -0.5460 -0.4881  2.0541
10676TIP3   OH253442   1.432   4.713  14.809  0.5058 -0.1318 -0.1894
10676TIP3    H153443   1.465   4.802  14.800  1.3450 -0.3742  0.3467
10676TIP3    H253444   1.349   4.713  14.762  0.4447  0.9589 -0.1070
10677TIP3   OH253445   0.553   2.487  15.766  0.4336  0.5106  0.1503
10677TIP3    H153446   0.471   2.445  15.739  0.2822  0.0031  1.3564
10677TIP3    H253447   0.621   2.424  15.740  0.6598  1.7542 -2.5925
10678TIP3   OH253448   4.012   1.492  11.737  0.0827  0.1546  0.3572
10678TIP3    H153449   4.004   1.556  11.667 -0.4945 -0.8708 -0.5343
10678TIP3    H253450   4.064   1.420  11.699  0.3093 -0.1288  1.1778
10679TIP3   OH253451   3.628   5.050  12.159  0.2151  0.4979  0.2922
10679TIP3    H153452   3.650   5.120  12.097 -2.0966  1.4610  0.4349
10679TIP3    H253453   3.543   5.017  12.129  0.2129 -0.7249  1.5290
10680TIP3   OH253454   4.251   6.260  13.185 -0.0539  0.1265  0.3000
10680TIP3    H153455   4.310   6.333  13.203 -0.2725  0.2708  0.4480
10680TIP3    H253456   4.307   6.191  13.150 -0.0665  0.9469 -1.4591
10681TIP3   OH253457   4.036   4.275  11.570  0.1679 -0.0757 -0.3041
10681TIP3    H153458   4.034   4.243  11.660  2.9232  0.3790 -0.0171
10681TIP3    H253459   3.954   4.242  11.532 -0.6383 -1.0546  2.0646
10682TIP3   OH253460   0.328   4.066  10.878  0.2024 -0.1951  0.5548
10682TIP3    H153461   0.395   4.118  10.835  1.4466 -1.3291  1.0671
10682TIP3    H253462   0.376   3.995  10.922 -1.3379 -1.1869  0.7241
10683TIP3   OH253463   1.812   3.258  16.622 -0.1754 -0.2553  0.2480
10683TIP3    H153464   1.852   3.341  16.647  1.0595 -0.4987 -0.7855
10683TIP3    H253465   1.727   3.282  16.586  0.2809  0.5976 -0.2913
10684TIP3   OH253466   3.941   0.922   5.416  0.3605 -0.5099  0.0107
10684TIP3    H153467   3.985   1.005   5.434  0.9387 -1.1408  1.6029
10684TIP3    H253468   3.949   0.911   5.321  1.8896  0.3524  0.0140
10685TIP3   OH253469   0.854   5.225  16.343  0.2162  0.2074 -0.1237
10685TIP3    H153470   0.779   5.243  16.287  0.5896 -1.7497 -1.3318
10685TIP3    H253471   0.929   5.264  16.298  0.4713 -1.1128 -0.8869
10686TIP3   OH253472   6.486   2.944   3.299 -0.6852 -0.2445 -0.4348
10686TIP3    H153473   6.400   2.953   3.341 -1.1625 -0.3797 -1.3474
10686TIP3    H253474   6.467   2.950   3.205  0.1568 -1.3649 -0.6994
10687TIP3   OH253475   0.534   0.853  16.095 -0.3130  0.2978  0.0456
10687TIP3    H153476   0.508   0.868  16.004  0.3957  2.5243  0.1506
10687TIP3    H253477   0.483   0.776  16.123 -0.9842 -0.0540 -2.0196
10688TIP3   OH253478   3.580   2.349  15.484  0.7216 -0.2633  0.0480
10688TIP3    H153479   3.600   2.257  15.501  0.5494 -0.4950 -0.9618
10688TIP3    H253480   3.663   2.395  15.497  0.2566 -0.0721  3.4892
10689TIP3   OH253481   1.071   6.777   2.629  0.1076 -0.2235  0.1128
10689TIP3    H153482   1.152   6.820   2.603  0.0857  0.2651  0.8476
10689TIP3    H253483   1.079   6.764   2.723  0.5843 -2.8225 -0.2014
10690TIP3   OH253484   3.753   3.343  14.847 -0.9849 -0.0151 -0.4798
10690TIP3    H153485   3.785   3.430  14.822 -1.3527 -0.1439 -1.4445
10690TIP3    H253486   3.664   3.339  14.810 -1.6295 -0.1550  1.0228
10691TIP3   OH253487   4.237   5.723   4.848  0.1506  0.5580 -0.4626
10691TIP3    H153488   4.232   5.690   4.759  1.6914 -1.2375  0.0319
10691TIP3    H253489   4.163   5.682   4.893  2.1646 -2.7777  0.2002
10692TIP3   OH253490   2.828   5.446   4.899  0.0633  0.0575 -0.2911
10692TIP3    H153491   2.843   5.374   4.960 -1.2316  0.6265  0.7557
10692TIP3    H253492   2.871   5.418   4.818  1.0572 -1.1121  0.6003
10693TIP3   OH253493   3.507   4.731  13.717 -0.1662 -0.3422  0.1512
10693TIP3    H153494   3.588   4.709  13.671 -0.0550  0.3981 -0.0166
10693TIP3    H253495   3.443   4.668  13.684  0.5489 -1.5172  0.9589
10694TIP3   OH253496   1.170   4.439   5.468  0.1797 -0.3908 -0.2160
10694TIP3    H153497   1.260   4.452   5.437 -0.0283  2.3349  0.1160
10694TIP3    H253498   1.170   4.469   5.558 -0.9521 -0.9228 -0.0136
10695TIP3   OH253499   3.129   5.622   2.267  0.6319 -0.5686 -0.1417
10695TIP3    H153500   3.173   5.689   2.321 -1.0096 -0.3322  0.9826
10695TIP3    H253501   3.162   5.539   2.301 -0.1065 -0.4108  1.0171
10696TIP3   OH253502   4.310   3.747   4.274  0.1107  0.8200  0.1591
10696TIP3    H153503   4.337   3.662   4.307  0.1299 -0.1967 -2.2646
10696TIP3    H253504   4.217   3.738   4.256  0.2440  1.0683 -0.7293
10697TIP3   OH253505   2.439   4.239  13.046  0.0576  0.0604  0.1458
10697TIP3    H153506   2.535   4.239  13.041 -0.0001 -0.5149 -1.2660
10697TIP3    H253507   2.417   4.152  13.080  0.0849  0.9492  2.6371
10698TIP3   OH253508   5.626   0.131   1.503 -0.4776  0.0039 -0.7033
10698TIP3    H153509   5.669   0.053   1.537 -0.8438 -0.0211 -0.2806
10698TIP3    H253510   5.686   0.165   1.437 -0.6260 -1.0110 -1.3738
10699TIP3   OH253511   4.087   5.058  13.613  0.0967 -0.1077 -0.6471
10699TIP3    H153512   4.039   5.056  13.531 -0.8430  1.2199 -0.1757
10699TIP3    H253513   4.068   4.973  13.654  0.7783 -0.8786 -1.8800
10700TIP3   OH253514   3.600   4.672  17.019 -0.3604  0.6024  0.4751
10700TIP3    H153515   3.593   4.643  17.110  0.1791 -2.4354 -0.3415
10700TIP3    H253516   3.625   4.764  17.025  2.0762 -0.0915  3.4272
10701TIP3   OH253517   5.847   6.553   6.037 -0.4655 -0.7111  0.0503
10701TIP3    H153518   5.821   6.467   6.003  0.1598 -1.4569  1.3734
10701TIP3    H253519   5.771   6.582   6.087 -0.6400 -0.5360 -0.3146
10702TIP3   OH253520   4.713   5.888  15.651 -0.3115 -0.1951 -0.2724
10702TIP3    H153521   4.719   5.918  15.560  0.2636 -0.1729 -0.2333
10702TIP3    H253522   4.625   5.851  15.659  0.0587 -1.3241 -1.1827
10703TIP3   OH253523   1.927   3.609   0.400  0.5725  0.0553 -0.1561
10703TIP3    H153524   1.957   3.528   0.443  0.5043  0.1413  0.0585
10703TIP3    H253525   1.844   3.629   0.444  0.4489  0.0870 -0.4048
10704TIP3   OH253526   3.067   1.061   5.335 -0.5077 -0.6972  0.2241
10704TIP3    H153527   3.048   0.983   5.284  0.3168 -1.0832  0.4855
10704TIP3    H253528   3.150   1.042   5.378 -0.1456  0.4289  0.0676
10705TIP3   OH253529   3.177   0.521  13.058  0.2479 -0.6909 -0.5691
10705TIP3    H153530   3.210   0.476  12.981  1.0538 -1.6958  0.3420
10705TIP3    H253531   3.254   0.537  13.112 -0.0968  1.2463 -0.5690
10706TIP3   OH253532   4.566   2.831   3.453 -0.1941 -0.0375 -0.6274
10706TIP3    H153533   4.653   2.791   3.452 -0.2647 -0.1810 -1.3432
10706TIP3    H253534   4.565   2.883   3.533  0.6501  0.1834 -0.7532
10707TIP3   OH253535   4.169   2.166  12.626  0.5555 -0.2289  0.0806
10707TIP3    H153536   4.184   2.259  12.608  1.4172 -0.4789 -0.5921
10707TIP3    H253537   4.094   2.143  12.571  0.4448  0.0272  0.1236
10708TIP3   OH253538   0.690   6.121   4.073 -0.0047 -0.0139 -0.3934
10708TIP3    H153539   0.746   6.049   4.101  0.2994 -0.0057 -0.9741
10708TIP3    H253540   0.624   6.080   4.017 -1.3549 -0.2277  1.2367
10709TIP3   OH253541   3.109   0.907  13.013  0.4906  0.4901 -0.5462
10709TIP3    H153542   3.200   0.889  12.989  0.6141 -0.2149  0.3623
10709TIP3    H253543   3.111   0.913  13.109 -0.3664  0.8187 -0.5389
10710TIP3   OH253544   3.320   3.410   5.309  0.7158  0.1430  0.7027
10710TIP3    H153545   3.246   3.431   5.252  0.3093  1.3506  1.6208
10710TIP3    H253546   3.369   3.343   5.262 -0.8452 -0.5282 -0.0157
10711TIP3   OH253547   2.442   4.144   2.214  0.3578  0.0009 -0.1060
10711TIP3    H153548   2.521   4.115   2.168 -0.1021 -1.3242 -0.0958
10711TIP3    H253549   2.449   4.106   2.301 -0.4153 -0.3483 -0.1904
10712TIP3   OH253550   5.245   1.787  16.903  0.0595 -0.0815  0.0774
10712TIP3    H153551   5.277   1.870  16.869 -1.2563  0.4387  0.0786
10712TIP3    H253552   5.194   1.810  16.980  1.1147 -1.0597  1.1129
10713TIP3   OH253553   3.617   0.337   1.733  0.1976 -0.0237 -0.5901
10713TIP3    H153554   3.678   0.315   1.663  0.1396 -0.8998 -0.3769
10713TIP3    H253555   3.672   0.375   1.802  0.1433  1.6324 -1.4290
10714TIP3   OH253556   0.468   3.939  11.415 -0.0098 -0.5915 -0.3238
10714TIP3    H153557   0.563   3.937  11.428  0.0854  2.4139  0.1580
10714TIP3    H253558   0.448   3.855  11.373  3.1709 -0.4466 -2.5338
10715TIP3   OH253559   5.256   6.005   5.737  0.0596  0.7759 -0.4843
10715TIP3    H153560   5.182   6.060   5.762  1.5973  2.5813  0.3289
10715TIP3    H253561   5.292   5.973   5.820 -2.6853 -4.3860 -0.8945
10716TIP3   OH253562   5.850   6.620   4.429  0.0920 -0.0059 -0.1594
10716TIP3    H153563   5.928   6.674   4.439  0.4424 -0.4908 -0.2669
10716TIP3    H253564   5.777   6.683   4.433  0.4952  0.4832 -0.3662
10717TIP3   OH253565   6.091   4.307   1.066 -0.0141  0.3346 -0.9311
10717TIP3    H153566   6.014   4.283   1.014  0.3671  0.4173 -1.5317
10717TIP3    H253567   6.149   4.353   1.006  0.1287  1.0614 -0.2639
10718TIP3   OH253568   1.899   4.035   1.099 -0.1432  0.8240  0.4560
10718TIP3    H153569   1.839   3.963   1.080  0.7167 -0.2236  1.5102
10718TIP3    H253570   1.892   4.047   1.194  1.4308  0.5089  0.6474
10719TIP3   OH253571   5.956   4.528  11.485  0.2433 -0.6084  0.2947
10719TIP3    H153572   6.004   4.507  11.405  0.5093 -0.8412  0.5135
10719TIP3    H253573   5.864   4.508  11.464  0.4175 -1.4823  0.3159
10720TIP3   OH253574   2.102   5.205  13.262  0.2118  0.1120  0.0345
10720TIP3    H153575   2.149   5.124  13.282  0.8677  0.2612 -0.8484
10720TIP3    H253576   2.099   5.253  13.345  1.9952  0.2855  0.0244
10721TIP3   OH253577   3.885   1.844  15.329  0.1119  0.3929  0.0156
10721TIP3    H153578   3.802   1.808  15.298 -0.0739 -0.3757  1.3366
10721TIP3    H253579   3.869   1.938  15.335 -0.6251  0.2692  0.1114
10722TIP3   OH253580   5.970   2.340   4.780 -0.0282 -0.8181 -0.1494
10722TIP3    H153581   6.019   2.314   4.702 -1.0459 -2.7718 -0.1794
10722TIP3    H253582   5.894   2.388   4.747 -0.0279 -0.9299 -0.3102
10723TIP3   OH253583   2.409   3.845   1.371  0.0101  0.1865 -0.1647
10723TIP3    H153584   2.345   3.802   1.314  0.9092 -1.1743 -0.2005
10723TIP3    H253585   2.449   3.912   1.316 -0.9223  0.6105 -0.3352
10724TIP3   OH253586   1.030   6.621   2.229  0.1649  0.2707 -0.0999
10724TIP3    H153587   1.012   6.654   2.140  0.6432 -0.2335 -0.3889
10724TIP3    H253588   1.008   6.528   2.225  0.3609  0.2068  0.2587
10725TIP3   OH253589   4.588   2.227  13.595 -0.0449 -0.6861 -0.3340
10725TIP3    H153590   4.530   2.154  13.576  1.1981 -2.3955  1.9334
10725TIP3    H253591   4.537   2.286  13.650 -0.4414 -0.8290 -0.5496
10726TIP3   OH253592   3.043   1.723  15.620  0.3501  1.0673  0.0319
10726TIP3    H153593   3.028   1.788  15.551 -0.8959  0.4985 -0.2600
10726TIP3    H253594   3.119   1.672  15.589  0.4883  1.5215 -0.3789
10727TIP3   OH253595   5.860   2.251  16.329  0.7995 -0.0828 -0.2295
10727TIP3    H153596   5.828   2.256  16.419  1.2653 -0.3854 -0.0393
10727TIP3    H253597   5.819   2.172  16.294 -0.2792  0.6547 -0.6562
10728TIP3   OH253598   4.660   0.359   1.663  0.7101  0.5846 -0.0075
10728TIP3    H153599   4.606   0.417   1.717 -2.2726 -2.1211  0.1869
10728TIP3    H253600   4.697   0.297   1.725 -0.4361 -0.8380 -0.7013
10729TIP3   OH253601   2.659   3.169  14.201  0.3933  0.2273  0.0780
10729TIP3    H153602   2.610   3.115  14.263  0.5884 -1.2500 -0.9915
10729TIP3    H253603   2.743   3.124  14.190  0.2290  0.2486 -1.5028
10730TIP3   OH253604   4.403   1.413  14.375 -0.2844 -0.0435 -0.1619
10730TIP3    H153605   4.388   1.319  14.372 -0.2734 -0.0174 -1.2308
10730TIP3    H253606   4.444   1.434  14.292  0.8421  0.7254  0.5651
10731TIP3   OH253607   0.767   0.677  14.867  0.0298  0.1971 -0.0322
10731TIP3    H153608   0.817   0.664  14.948 -0.5876  1.0038  0.4941
10731TIP3    H253609   0.779   0.769  14.846 -0.6442  0.2285 -0.2944
10732TIP3   OH253610   3.862   1.050   4.940 -0.3867  0.4694  0.2638
10732TIP3    H153611   3.897   0.983   4.998  1.3468  0.8197 -0.3128
10732TIP3    H253612   3.777   1.016   4.912 -0.5378 -0.4266  1.7389
10733TIP3   OH253613   4.128   4.570   5.026  0.1259 -0.0649  0.2718
10733TIP3    H153614   4.166   4.496   5.073  0.0675  0.9010  1.9233
10733TIP3    H253615   4.172   4.570   4.941  0.4255 -1.7239  0.3949
10734TIP3   OH253616   3.263   2.229   0.712 -0.1382  0.1641  0.0969
10734TIP3    H153617   3.256   2.279   0.630 -1.0241 -0.1703 -0.0402
10734TIP3    H253618   3.178   2.188   0.723  0.1570 -0.2660  0.8981
10735TIP3   OH253619   1.920   5.739   0.855  0.3666 -0.1387 -0.5692
10735TIP3    H153620   2.005   5.756   0.895  0.3142 -2.1723  0.5337
10735TIP3    H253621   1.922   5.789   0.773  2.3991  0.2923 -0.3161
10736TIP3   OH253622   2.374   1.878   4.630 -0.2057  0.1287  0.0820
10736TIP3    H153623   2.282   1.868   4.656  0.0679  2.0230  2.0836
10736TIP3    H253624   2.415   1.794   4.654 -1.2059 -0.3800  0.0609
10737TIP3   OH253625   6.340   1.588  17.050  0.3654  0.4186 -0.0124
10737TIP3    H153626   6.246   1.588  17.034  0.2343 -1.3798  0.4348
10737TIP3    H253627   6.357   1.502  17.089  2.1488  0.8226  0.1964
10738TIP3   OH253628   0.821   4.637   2.671 -0.1471  0.1979  0.3609
10738TIP3    H153629   0.908   4.609   2.698 -0.3223  1.2307  2.1585
10738TIP3    H253630   0.836   4.709   2.610  0.2675  0.6076  0.9409
10739TIP3   OH253631   5.590   0.968  14.529  0.2654 -0.3681 -0.2698
10739TIP3    H153632   5.552   0.927  14.607  0.3513  1.1613  0.6310
10739TIP3    H253633   5.516   0.984  14.471 -0.0675 -0.0265  0.2339
10740TIP3   OH253634   6.156   2.811   4.916  0.2029 -0.4938 -0.3289
10740TIP3    H153635   6.207   2.869   4.861  1.8677  0.6749  2.2549
10740TIP3    H253636   6.213   2.735   4.932 -0.1984 -0.7590 -0.1186
10741TIP3   OH253637   0.898   1.784   1.291  0.0951 -0.0779  0.1842
10741TIP3    H153638   0.931   1.793   1.380  0.6767 -0.6133  0.0301
10741TIP3    H253639   0.949   1.848   1.241  1.3751 -1.3147 -0.1654
10742TIP3   OH253640   3.454   4.434  12.040 -0.0571  0.5614 -0.3813
10742TIP3    H153641   3.480   4.355  11.993  2.2847  1.1884 -0.2794
10742TIP3    H253642   3.443   4.500  11.971  2.0481  1.1366 -0.2295
10743TIP3   OH253643   2.604   2.679   5.527  0.1307 -0.2759  0.0861
10743TIP3    H153644   2.661   2.624   5.473  0.9939 -1.3184  1.9462
10743TIP3    H253645   2.637   2.667   5.616 -2.6004 -0.4286  1.1840
10744TIP3   OH253646   1.162   5.554  14.721 -0.0200 -0.0959  0.7624
10744TIP3    H153647   1.118   5.631  14.756  1.1452  0.7673  0.4157
10744TIP3    H253648   1.172   5.572  14.627 -0.4576 -1.0428  0.5177
10745TIP3   OH253649   0.140   2.183  14.290 -0.3659 -0.3235 -0.2403
10745TIP3    H153650   0.233   2.205  14.298 -0.5036  0.0391  0.5094
10745TIP3    H253651   0.135   2.121  14.218  0.5687 -1.0113  0.2688
10746TIP3   OH253652   3.125   3.924  14.528  0.0388  0.1087  0.1221
10746TIP3    H153653   3.188   3.852  14.524  1.3273  1.1325  1.0365
10746TIP3    H253654   3.075   3.907  14.608  0.7544  0.5577  0.6648
10747TIP3   OH253655   5.454   3.900  12.613  0.3048  0.6120  0.2737
10747TIP3    H153656   5.371   3.871  12.577  0.2380  1.6353 -0.4271
10747TIP3    H253657   5.452   3.996  12.605  1.5538  0.6487  0.2009
10748TIP3   OH253658   5.873   5.037  15.913 -0.0507 -0.1912  0.6742
10748TIP3    H153659   5.865   5.127  15.943  0.4317 -0.0010  0.2385
10748TIP3    H253660   5.851   4.984  15.990 -4.3254  0.2393  0.0019
10749TIP3   OH253661   2.892   0.175  14.006  0.2161  0.1271 -0.6561
10749TIP3    H153662   2.921   0.263  13.980  1.3953 -0.2951 -0.8546
10749TIP3    H253663   2.830   0.191  14.077 -0.8082  1.1720 -1.7386
10750TIP3   OH253664   0.710   0.956  11.249  0.1024  0.1479 -0.4376
10750TIP3    H153665   0.700   0.998  11.164  1.1870  1.7275  0.1435
10750TIP3    H253666   0.677   1.021  11.311  1.1375 -0.1579  0.4629
10751TIP3   OH253667   4.742   1.983   0.029  0.3101 -0.5945 -0.1977
10751TIP3    H153668   4.711   2.027  -0.050 -0.4092  0.3709  0.5964
10751TIP3    H253669   4.837   1.992   0.026  0.2271  0.2711 -0.4898
10752TIP3   OH253670   4.778   5.350  13.052  0.7201 -0.2804 -0.3028
10752TIP3    H153671   4.720   5.294  13.103 -1.1217 -0.7577 -2.7452
10752TIP3    H253672   4.738   5.437  13.058  0.7602 -0.2455 -0.5154
10753TIP3   OH253673   3.102   1.004   1.484 -0.1692 -0.0321  0.4491
10753TIP3    H153674   3.191   0.968   1.476 -0.4345 -0.2990 -2.0673
10753TIP3    H253675   3.045   0.937   1.446 -1.3048  0.6867  0.8350
10754TIP3   OH253676   6.351   0.802   4.200 -0.1337 -0.3794  0.1849
10754TIP3    H153677   6.323   0.745   4.128 -4.4350 -1.8770  2.6892
10754TIP3    H253678   6.356   0.744   4.276 -1.0686  1.8927  2.1234
10755TIP3   OH253679   4.117   2.514   5.193  0.1717  0.3867 -0.3148
10755TIP3    H153680   4.088   2.459   5.266 -0.5786  2.6224  1.2053
10755TIP3    H253681   4.056   2.494   5.122  0.0786 -0.8874  0.0926
10756TIP3   OH253682   2.101   5.601   1.176  0.4340  0.6082 -0.4343
10756TIP3    H153683   2.147   5.534   1.227 -1.1663  0.3963  0.8296
10756TIP3    H253684   2.043   5.643   1.239 -1.1430  0.8134 -1.9414
10757TIP3   OH253685   5.648   5.356   0.047  0.2579 -0.0693 -0.0800
10757TIP3    H153686   5.646   5.443   0.007  0.0173  1.3712  2.8442
10757TIP3    H253687   5.565   5.316   0.019 -1.1194  1.8735  0.9699
10758TIP3   OH253688   6.800   2.377   5.764 -0.0534 -0.4146 -0.0788
10758TIP3    H153689   6.773   2.395   5.854 -0.8844 -1.5939 -0.0712
10758TIP3    H253690   6.832   2.287   5.765 -0.3253 -0.5369 -1.0020
10759TIP3   OH253691   6.019   3.272  13.514 -0.3881  0.2909  0.7479
10759TIP3    H153692   5.936   3.281  13.466 -0.1439 -0.4522  0.1685
10759TIP3    H253693   5.995   3.288  13.605 -0.9677  1.1511  0.4606
10760TIP3   OH253694   1.761   0.396   2.753 -0.0412 -0.0920 -0.0784
10760TIP3    H153695   1.758   0.479   2.705 -1.3689 -0.4714 -0.7223
10760TIP3    H253696   1.822   0.341   2.704 -0.5034 -0.0800 -0.6741
10761TIP3   OH253697   4.678   3.600   5.374 -0.4452  0.0909 -0.3354
10761TIP3    H153698   4.608   3.535   5.386  1.2569 -2.1476 -1.6884
10761TIP3    H253699   4.636   3.673   5.328 -2.5487  0.2636  1.6740
10762TIP3   OH253700   6.585   6.499  16.350 -0.0192  0.1528 -0.1022
10762TIP3    H153701   6.571   6.591  16.374 -0.3561  0.2090 -0.5012
10762TIP3    H253702   6.570   6.451  16.431  2.2743  0.6080  0.6591
10763TIP3   OH253703   5.636   1.657   4.233 -0.3119  0.1956 -0.2059
10763TIP3    H153704   5.725   1.632   4.206 -0.7993  0.1558 -1.9179
10763TIP3    H253705   5.648   1.711   4.311  1.1891 -0.0499 -0.2415
10764TIP3   OH253706   2.515   6.158  13.765 -0.4635  0.2892 -0.0982
10764TIP3    H153707   2.515   6.242  13.719  1.2887  0.3447 -0.0732
10764TIP3    H253708   2.529   6.180  13.857 -2.3144  0.0762  0.2757
10765TIP3   OH253709   0.860   0.443   3.499  0.2298 -0.2929 -0.5998
10765TIP3    H153710   0.943   0.397   3.490 -0.3637 -1.5710  0.0316
10765TIP3    H253711   0.880   0.521   3.551  1.0015 -0.6626 -0.3308
10766TIP3   OH253712   6.744   1.845  15.184 -0.4214  0.6241  0.2169
10766TIP3    H153713   6.791   1.895  15.117  1.3729 -0.3922  0.6694
10766TIP3    H253714   6.651   1.860  15.164  0.0679  1.5562 -1.5570
10767TIP3   OH253715   3.853   3.353   5.631  0.5705  0.4137 -0.5319
10767TIP3    H153716   3.885   3.441   5.614 -0.5527  0.7846 -0.7616
10767TIP3    H253717   3.784   3.339   5.567 -0.0716 -0.1846  0.2650
10768TIP3   OH253718   2.247   3.781   0.364 -0.3579 -0.4946  0.1796
10768TIP3    H153719   2.202   3.865   0.376  1.6265  0.7637 -0.6198
10768TIP3    H253720   2.220   3.751   0.277 -1.9759 -1.3308  0.9261
10769TIP3   OH253721   0.422   6.756  13.788 -0.1840 -0.0396 -0.2873
10769TIP3    H153722   0.460   6.669  13.802 -0.4723 -0.0018  0.8304
10769TIP3    H253723   0.360   6.767  13.860  2.0542  2.3332  1.4785
10770TIP3   OH253724   5.430   4.178   6.222  0.0952 -0.0399 -0.3747
10770TIP3    H153725   5.367   4.224   6.278  0.9334 -0.5692  1.0506
10770TIP3    H253726   5.376   4.133   6.157 -0.8926  0.8095 -0.1601
10771TIP3   OH253727   4.066   0.677  13.491  0.4086 -0.2809  0.0606
10771TIP3    H153728   4.141   0.691  13.433 -0.1604  0.8823 -0.4433
10771TIP3    H253729   4.099   0.693  13.579  1.0892 -1.2599  0.0003
10772TIP3   OH253730   4.400   3.150   3.485  0.0441  0.5004  0.3845
10772TIP3    H153731   4.335   3.191   3.542 -0.6464 -0.1144  0.0650
10772TIP3    H253732   4.367   3.165   3.397  0.4817  0.4125  0.2048
10773TIP3   OH253733   1.846   2.165  13.719 -0.4193  0.2927  0.2331
10773TIP3    H153734   1.751   2.176  13.713 -0.3216  0.3752 -1.5062
10773TIP3    H253735   1.879   2.254  13.734 -0.5716  0.3323  0.3431
10774TIP3   OH253736   0.701   3.153   6.063  0.6697  0.0134  0.1789
10774TIP3    H153737   0.607   3.140   6.055 -0.0244  3.6487  0.5951
10774TIP3    H253738   0.731   3.080   6.117 -2.1927 -0.4692  1.2883
10775TIP3   OH253739   0.398   4.993  12.154  0.5656 -0.1298  0.2639
10775TIP3    H153740   0.343   4.933  12.104  1.4523 -0.6042 -0.1761
10775TIP3    H253741   0.356   5.078  12.145 -0.4295 -0.5904  0.4651
10776TIP3   OH253742   5.995   2.940   1.553  0.2828 -0.6723 -0.3060
10776TIP3    H153743   6.056   2.905   1.488 -1.0350 -2.7877 -0.5249
10776TIP3    H253744   5.949   3.011   1.508  0.9102 -0.6615 -0.9398
10777TIP3   OH253745   2.970   5.866   1.013  0.9077 -0.2257  0.6870
10777TIP3    H153746   3.000   5.957   1.017  0.5440 -0.0436 -0.3681
10777TIP3    H253747   3.049   5.814   1.025  0.8730  0.1871  3.1421
10778TIP3   OH253748   1.014   5.609  16.113  0.3723 -0.3073 -0.0141
10778TIP3    H153749   1.101   5.637  16.085  0.7262 -0.3006  1.0347
10778TIP3    H253750   0.962   5.689  16.114 -0.5199 -0.6840 -3.4378
10779TIP3   OH253751   4.123   4.864  13.259 -0.2302  0.3556 -0.5337
10779TIP3    H153752   4.109   4.797  13.191  0.1352 -0.5814  0.2947
10779TIP3    H253753   4.137   4.814  13.339  0.6636  1.4135 -0.0043
10780TIP3   OH253754   5.607   0.776  13.316 -0.4679  0.2843 -0.0484
10780TIP3    H153755   5.668   0.765  13.389 -1.0202 -2.4158  0.1079
10780TIP3    H253756   5.654   0.830  13.253  1.3220 -0.0834  0.9088
10781TIP3   OH253757   1.503   1.328  14.373  0.3091  0.1758  0.3000
10781TIP3    H153758   1.575   1.381  14.338  1.2679  0.6398  2.7877
10781TIP3    H253759   1.523   1.239  14.344  1.3634  0.4430  0.1520
10782TIP3   OH253760   1.279   3.078  16.304 -0.0002 -0.0995 -0.4666
10782TIP3    H153761   1.288   2.993  16.261 -3.1597  0.3889 -2.4404
10782TIP3    H253762   1.319   3.140  16.243 -0.4940  0.1313 -0.5637
10783TIP3   OH253763   0.155   2.163   1.107 -0.1325  0.1318 -0.4384
10783TIP3    H153764   0.250   2.158   1.092 -0.1944  0.4616 -0.9594
10783TIP3    H253765   0.144   2.133   1.197  0.3318 -1.1562 -0.7900
10784TIP3   OH253766   2.222   3.841  14.007 -0.2067 -0.2049  0.2357
10784TIP3    H153767   2.130   3.848  13.982 -0.2127  0.9528  0.5231
10784TIP3    H253768   2.265   3.914  13.962  0.2752  0.2386  1.3736
10785TIP3   OH253769   6.628   3.039   6.260 -0.3381  0.5385 -0.0347
10785TIP3    H153770   6.535   3.025   6.244 -0.5344  0.1510  1.2942
10785TIP3    H253771   6.632   3.084   6.344  0.7016 -1.0092  0.8165
10786TIP3   OH253772   4.279   5.723   1.096 -0.0652  0.7475 -0.3620
10786TIP3    H153773   4.189   5.735   1.067  0.0176 -1.5812 -1.8070
10786TIP3    H253774   4.332   5.761   1.026  0.0767 -1.6838 -1.6659
10787TIP3   OH253775   5.884   4.831  12.959  0.2138 -0.1698  0.1369
10787TIP3    H153776   5.850   4.809  13.046 -1.6694 -1.1405 -0.7647
10787TIP3    H253777   5.813   4.882  12.919  0.1293 -1.5672 -1.5665
10788TIP3   OH253778   3.884   6.520   0.087  0.0697  0.3419 -0.2241
10788TIP3    H153779   3.889   6.484   0.176 -1.3102 -0.4870 -0.4556
10788TIP3    H253780   3.967   6.496   0.047  0.2041 -0.3580  0.4501
10789TIP3   OH253781   0.869   1.678   0.073 -0.3771 -0.1557 -0.0026
10789TIP3    H153782   0.882   1.688   0.167  2.0632  1.0621 -0.4131
10789TIP3    H253783   0.918   1.750   0.033 -1.6731 -0.3940 -2.2182
10790TIP3   OH253784   2.831   5.153  13.810  0.3141  0.7010 -0.0153
10790TIP3    H153785   2.895   5.131  13.877  1.2053  1.4434 -0.6072
10790TIP3    H253786   2.761   5.088  13.821  0.3133  0.9801  1.7894
10791TIP3   OH253787   5.780   1.528  17.006  0.1943 -0.3253  0.2617
10791TIP3    H153788   5.777   1.491  16.918 -0.0903  0.1566  0.0626
10791TIP3    H253789   5.699   1.499  17.047  0.1940 -0.3128  0.2706
10792TIP3   OH253790   4.975   6.422  14.668 -0.3827 -0.3300  0.0536
10792TIP3    H153791   5.027   6.365  14.611 -0.7438  0.3437 -0.9806
10792TIP3    H253792   4.975   6.377  14.753 -0.6993 -1.8950 -0.7290
10793TIP3   OH253793   5.662   4.228   0.232  0.0122  0.7195  0.0479
10793TIP3    H153794   5.639   4.170   0.305  0.6022 -0.8092 -0.9436
10793TIP3    H253795   5.693   4.169   0.163  1.1177  2.2568 -0.8263
10794TIP3   OH253796   2.484   2.174   6.378  0.1669  0.4302  0.9183
10794TIP3    H153797   2.464   2.192   6.286 -0.2387  0.2487  0.9666
10794TIP3    H253798   2.579   2.174   6.382  0.1874  1.2638  0.6662
10795TIP3   OH253799   0.442   1.656  11.339 -0.0712 -0.2268 -0.8863
10795TIP3    H153800   0.409   1.740  11.308  0.1765 -0.2407 -1.1845
10795TIP3    H253801   0.504   1.627  11.272  1.6916  0.4975  0.3493
10796TIP3   OH253802   3.232   5.986  14.049  0.1651  0.0837  0.5706
10796TIP3    H153803   3.322   5.965  14.025  0.5019  1.5089  0.4996
10796TIP3    H253804   3.184   5.904  14.037  1.2916 -0.4956 -0.1417
10797TIP3   OH253805   3.351   0.691  14.093 -0.5060 -0.0661  0.3691
10797TIP3    H153806   3.435   0.722  14.060 -1.0188 -0.5214 -1.4806
10797TIP3    H253807   3.364   0.597  14.107 -0.5860 -0.0563  0.5162
10798TIP3   OH253808   3.796   1.161  16.385  0.4036  0.0975  0.0549
10798TIP3    H153809   3.872   1.140  16.439  1.3020 -0.7976 -1.4851
10798TIP3    H253810   3.785   1.085  16.328 -1.3912  0.3989 -0.0844
10799TIP3   OH253811   1.321   2.453  12.607  0.0835 -0.6698  0.2524
10799TIP3    H153812   1.335   2.494  12.693  1.6110  0.1587 -0.3528
10799TIP3    H253813   1.277   2.520  12.556  0.0909 -0.7933  0.0858
10800TIP3   OH253814   2.023   4.869  15.469 -0.6303 -0.2235 -0.2323
10800TIP3    H153815   2.080   4.945  15.457  1.3195 -1.8330 -2.0665
10800TIP3    H253816   2.036   4.843  15.560  1.9260 -0.7064 -0.6544
10801TIP3   OH253817   0.313   4.817  10.877  0.1292  0.2107 -0.3195
10801TIP3    H153818   0.235   4.790  10.926  0.8304 -2.3879 -0.5164
10801TIP3    H253819   0.285   4.818  10.786 -0.7795  3.6717 -0.1794
10802TIP3   OH253820   2.607   0.596  10.294 -0.1759 -0.2680 -0.3208
10802TIP3    H153821   2.561   0.642  10.365  0.4485  0.0884 -0.1349
10802TIP3    H253822   2.642   0.666  10.239  0.2102 -0.5290 -0.4106
10803TIP3   OH253823   2.009   5.626   5.305 -0.1292  0.1656 -0.5734
10803TIP3    H153824   1.945   5.635   5.375  0.1951  0.9137 -0.3664
10803TIP3    H253825   1.957   5.616   5.225 -0.4993 -0.3470 -0.2731
10804TIP3   OH253826   2.777   6.278  10.676 -0.1375  0.4822 -0.3611
10804TIP3    H153827   2.822   6.327  10.608 -2.0895  1.9956 -0.6626
10804TIP3    H253828   2.723   6.214  10.629  3.0737 -2.8777  0.0395
10805TIP3   OH253829   0.960   4.794   4.538  0.0041  0.3968  0.2103
10805TIP3    H153830   0.930   4.717   4.585  1.6927 -0.4853 -0.0810
10805TIP3    H253831   1.043   4.768   4.498  0.5027  2.2774 -0.1124
10806TIP3   OH253832   6.435   4.196   4.307 -0.1569 -0.3364  0.3957
10806TIP3    H153833   6.521   4.209   4.266  0.7592 -0.9115  2.0330
10806TIP3    H253834   6.401   4.116   4.266 -0.1025  0.1244 -0.5619
10807TIP3   OH253835   3.826   1.132  13.944 -0.5850 -0.7304  0.5033
10807TIP3    H153836   3.887   1.096  13.879 -0.1394  0.0388  0.4957
10807TIP3    H253837   3.783   1.054  13.980  1.4330 -1.4245  1.5732
10808TIP3   OH253838   4.988   3.468  13.848  0.3366 -0.0340 -0.0123
10808TIP3    H153839   4.976   3.395  13.908 -0.9446 -0.4374 -0.7095
10808TIP3    H253840   4.972   3.546  13.901  2.1389 -0.1911  0.8449
10809TIP3   OH253841   5.372   2.253  16.829  0.3276 -0.0157 -0.1383
10809TIP3    H153842   5.425   2.304  16.890 -0.6000  2.3375 -1.1540
10809TIP3    H253843   5.430   2.236  16.755  0.4804  0.0702 -0.0384
10810TIP3   OH253844   2.285   5.268  12.059 -0.2398 -0.3507 -0.0337
10810TIP3    H153845   2.194   5.297  12.050 -0.2257 -0.5878 -1.0895
10810TIP3    H253846   2.336   5.349  12.058 -0.4539 -0.2020  0.8310
10811TIP3   OH253847   4.731   6.656   2.508  0.2297 -0.2043  0.1078
10811TIP3    H153848   4.638   6.682   2.510  0.4577  0.9606 -1.8871
10811TIP3    H253849   4.730   6.565   2.482 -0.3571 -0.4363  0.8702
10812TIP3   OH253850   5.129   4.737   3.616 -0.1413  0.4669  0.2818
10812TIP3    H153851   5.152   4.829   3.599 -0.8472 -0.0044 -4.6127
10812TIP3    H253852   5.036   4.739   3.636 -0.0656  0.8237  0.6122
10813TIP3   OH253853   5.494   3.615   3.168  0.2187  0.4640  0.4439
10813TIP3    H153854   5.530   3.567   3.242  2.8796  1.5912  0.0096
10813TIP3    H253855   5.507   3.707   3.190 -1.3333  0.8965 -0.3276
10814TIP3   OH253856   3.920   6.192  14.797  0.0431  0.2207 -0.8513
10814TIP3    H153857   3.952   6.199  14.707 -0.7117 -2.3503 -1.3884
10814TIP3    H253858   3.826   6.211  14.790  0.2137  1.3591 -0.3399
10815TIP3   OH253859   3.044   2.349   0.574  0.5702 -0.1063  0.0827
10815TIP3    H153860   3.030   2.443   0.587  1.3658 -0.1006  1.0434
10815TIP3    H253861   2.975   2.322   0.513  0.8108  1.2424 -0.8164
10816TIP3   OH253862   6.389   2.587  16.835 -0.6500  0.1425 -0.2787
10816TIP3    H153863   6.309   2.607  16.785 -0.2090  2.3868 -0.2189
10816TIP3    H253864   6.459   2.627  16.784  0.4240 -1.4646 -0.1290
10817TIP3   OH253865   1.093   4.958  13.613 -0.5704  0.3295 -0.1649
10817TIP3    H153866   1.169   4.940  13.667 -0.6444 -0.6081 -0.3681
10817TIP3    H253867   1.077   4.877  13.565 -2.1121  0.2797  0.3888
10818TIP3   OH253868   4.789   2.482   5.325  0.1364  0.0515 -0.6219
10818TIP3    H153869   4.839   2.555   5.287 -0.1014  0.4331 -0.2045
10818TIP3    H253870   4.842   2.453   5.399  0.6945 -0.8172 -1.3318
10819TIP3   OH253871   1.269   0.024  11.398 -0.9109  0.0721 -0.0907
10819TIP3    H153872   1.273  -0.027  11.317 -2.0096  1.0003 -0.7678
10819TIP3    H253873   1.331   0.096  11.385 -2.3495  1.2358 -0.9002
10820TIP3   OH253874   1.811   2.312   1.485  0.4500 -0.3955 -0.4755
10820TIP3    H153875   1.793   2.314   1.391 -0.1002 -0.1370 -0.3693
10820TIP3    H253876   1.860   2.393   1.502  0.2045 -0.2450 -0.4757
10821TIP3   OH253877   2.078   4.383  15.959 -0.2288 -0.1088 -0.5041
10821TIP3    H153878   2.013   4.314  15.969  0.3287 -0.4560  0.9761
10821TIP3    H253879   2.030   4.464  15.977 -0.1601 -0.4025  1.0812
10822TIP3   OH253880   5.302   5.708  12.746 -0.1160  0.5535  0.0198
10822TIP3    H153881   5.251   5.666  12.815 -1.1323  0.9000 -0.4986
10822TIP3    H253882   5.236   5.749  12.690  0.7868  2.0882  0.0244
10823TIP3   OH253883   5.287   1.002   1.199 -0.4953 -0.0054 -0.8895
10823TIP3    H153884   5.310   1.094   1.212 -0.2803 -0.1582 -0.1772
10823TIP3    H253885   5.228   0.981   1.272  2.5133 -1.4977  1.3357
10824TIP3   OH253886   5.774   3.405   5.626  0.3821 -0.1482  0.3746
10824TIP3    H153887   5.762   3.492   5.663  1.2103 -0.3842  1.2138
10824TIP3    H253888   5.831   3.359   5.687 -0.0560 -1.3012 -0.0362
10825TIP3   OH253889   0.345   5.130  16.141  0.0117 -0.5586 -0.3933
10825TIP3    H153890   0.348   5.115  16.235 -0.2859 -0.5718 -0.3879
10825TIP3    H253891   0.329   5.044  16.103 -0.2837 -0.4869 -0.4342
10826TIP3   OH253892   0.840   6.361  11.410 -0.4815  0.2353  0.7931
10826TIP3    H153893   0.756   6.357  11.364 -0.0684  0.1951  0.0219
10826TIP3    H253894   0.830   6.300  11.483 -1.2718  0.5544  0.9707
10827TIP3   OH253895   1.816   6.146   3.641 -0.3669 -0.8549  0.1113
10827TIP3    H153896   1.843   6.105   3.559  1.1434  1.4095 -0.6112
10827TIP3    H253897   1.843   6.085   3.709  0.6406 -1.6564 -0.9707
10828TIP3   OH253898   5.919   3.758  13.708 -0.1126 -0.3905  0.1872
10828TIP3    H153899   5.843   3.790  13.660 -0.3829 -1.2434  0.0174
10828TIP3    H253900   5.990   3.816  13.683 -0.3785 -0.4825 -0.8135
10829TIP3   OH253901   1.057   1.103   5.758 -0.1129  0.5829  0.4768
10829TIP3    H153902   1.098   1.035   5.811 -0.2588 -0.3685 -0.5865
10829TIP3    H253903   0.980   1.130   5.807 -0.4938 -0.5931  0.5617
10830TIP3   OH253904   1.205   3.699  16.100 -0.3279 -0.0151  0.4023
10830TIP3    H153905   1.165   3.776  16.060 -0.7160 -0.9541 -1.1349
10830TIP3    H253906   1.270   3.733  16.161  0.0315  1.5203 -0.7889
10831TIP3   OH253907   1.562   5.160   5.601  0.6269  0.3704  0.1681
10831TIP3    H153908   1.651   5.175   5.634  0.1028  0.7400  1.4412
10831TIP3    H253909   1.576   5.134   5.510  2.0657  0.0787  0.4338
10832TIP3   OH253910   6.147   6.461   2.993  0.1767  1.1934 -0.2175
10832TIP3    H153911   6.214   6.402   2.960 -1.1997  0.6677 -2.3018
10832TIP3    H253912   6.073   6.403   3.014 -0.4695  1.9581 -0.3433
10833TIP3   OH253913   1.660   4.792  12.249 -0.2206  0.0104  0.4442
10833TIP3    H153914   1.586   4.846  12.221  1.0182  1.2499 -0.5651
10833TIP3    H253915   1.737   4.840  12.220  1.0130 -1.0400  1.8313
10834TIP3   OH253916   5.960   4.540  15.073  0.3171 -0.4507 -0.0863
10834TIP3    H153917   5.930   4.620  15.115 -0.8679 -0.6622 -0.4995
10834TIP3    H253918   6.039   4.515  15.122 -0.3532 -0.0510  1.2480
10835TIP3   OH253919   5.158   1.243  16.700  0.0811  0.1571  0.1025
10835TIP3    H153920   5.245   1.247  16.739  0.0150 -0.4601  0.3118
10835TIP3    H253921   5.114   1.322  16.731 -0.2165 -0.6723  1.8579
10836TIP3   OH253922   0.028   5.731  14.884  0.2371 -0.3289 -0.1197
10836TIP3    H153923   0.017   5.814  14.837 -0.6137 -0.5198 -0.2748
10836TIP3    H253924   0.058   5.669  14.817  0.9486 -0.1418  0.0114
10837TIP3   OH253925   0.438   2.824  12.300  0.4315  0.2650 -0.2880
10837TIP3    H153926   0.355   2.777  12.306  0.8857 -0.4231  0.9907
10837TIP3    H253927   0.483   2.805  12.383  1.1620  1.9730 -0.2366
10838TIP3   OH253928   3.835   0.293  16.877 -0.3617 -0.4425 -1.2394
10838TIP3    H153929   3.806   0.288  16.786  0.7633  0.9107 -1.7103
10838TIP3    H253930   3.919   0.338  16.873  0.0089 -0.9223  0.4234
10839TIP3   OH253931   3.664   6.726   4.218  0.4150  0.1075 -0.2195
10839TIP3    H153932   3.759   6.717   4.206  0.5490  0.6359  0.3832
10839TIP3    H253933   3.655   6.783   4.295 -0.3902  0.2180 -0.3876
10840TIP3   OH253934   2.338   0.258  12.232  0.2036  0.0954 -0.1908
10840TIP3    H153935   2.353   0.269  12.326  0.3255 -2.5222  0.1684
10840TIP3    H253936   2.425   0.239  12.196  0.0424  0.3018 -0.6980
10841TIP3   OH253937   4.455   1.247   2.961  0.1655 -0.3232  0.7297
10841TIP3    H153938   4.549   1.240   2.943  0.2622  1.0071  0.5811
10841TIP3    H253939   4.435   1.339   2.945 -1.2955 -0.7111  0.1760
10842TIP3   OH253940   2.347   0.773  15.989 -0.0013 -0.4505  0.3414
10842TIP3    H153941   2.441   0.763  15.975 -0.1798 -1.7068 -0.1405
10842TIP3    H253942   2.307   0.734  15.911 -0.9172  2.4170 -0.7399
10843TIP3   OH253943   1.116   4.921   1.802 -0.3448  0.2333 -0.3971
10843TIP3    H153944   1.070   4.929   1.886  0.0587 -3.9391  0.4593
10843TIP3    H253945   1.070   4.981   1.743 -2.3323  1.4028  2.1418
10844TIP3   OH253946   1.895   5.286  11.866  0.4155  0.1020 -0.3805
10844TIP3    H153947   1.811   5.261  11.904  0.6951 -1.7155 -0.8928
10844TIP3    H253948   1.954   5.295  11.941  0.1003  0.0478 -0.1259
10845TIP3   OH253949   0.099   6.776   0.519 -0.0221 -0.0742 -1.1685
10845TIP3    H153950   0.112   6.699   0.464 -1.7844 -0.3695 -1.2391
10845TIP3    H253951   0.054   6.839   0.463  0.3482  0.5644 -0.7640
10846TIP3   OH253952   1.844   2.602   2.431  0.1878  0.2640 -0.3758
10846TIP3    H153953   1.865   2.511   2.451  0.2206 -0.2891 -2.6175
10846TIP3    H253954   1.891   2.653   2.497 -1.3114 -1.3586  2.0714
10847TIP3   OH253955   3.344   6.559  13.247 -0.1744  0.1614 -0.6260
10847TIP3    H153956   3.422   6.558  13.303  1.7391  0.7363 -3.1152
10847TIP3    H253957   3.347   6.475  13.202  0.4355  1.1451 -2.5108
10848TIP3   OH253958   4.425   1.382  11.120 -0.8462 -0.1945  0.1667
10848TIP3    H153959   4.413   1.434  11.042 -0.2585  0.7241  0.6694
10848TIP3    H253960   4.500   1.325  11.100 -1.7696 -1.1897 -0.5445
10849TIP3   OH253961   2.938   4.073  16.661 -0.6142  0.5864  0.3312
10849TIP3    H153962   2.860   4.030  16.626  0.3178 -0.0112 -1.0799
10849TIP3    H253963   2.971   4.128  16.589  0.6279  0.3297  0.6739
10850TIP3   OH253964   2.353   6.509   6.342  0.1986  0.0389 -0.3453
10850TIP3    H153965   2.427   6.453   6.318 -0.0639 -0.2080 -0.5861
10850TIP3    H253966   2.324   6.548   6.259  0.9447  1.2434 -0.0619
10851TIP3   OH253967   4.100   2.241   1.208  0.1621 -0.6179 -0.2975
10851TIP3    H153968   4.093   2.162   1.261 -0.6172 -0.4244 -0.0977
10851TIP3    H253969   4.039   2.227   1.135  1.7017 -1.1579 -1.5309
10852TIP3   OH253970   0.372   1.837   2.236  0.0395  0.1925 -0.0285
10852TIP3    H153971   0.369   1.785   2.316 -1.5562  1.5465  0.8512
10852TIP3    H253972   0.283   1.871   2.227  0.1710  0.0213 -2.4403
10853TIP3   OH253973   0.379   0.870   5.222 -0.2487 -0.3292  0.2895
10853TIP3    H153974   0.387   0.957   5.260  1.6792 -0.5980  0.6097
10853TIP3    H253975   0.327   0.820   5.285 -1.5171  0.6009  0.0209
10854TIP3   OH253976   1.456   3.865   0.841 -0.7536 -0.3223  0.3977
10854TIP3    H153977   1.423   3.856   0.931 -2.1434 -1.6015 -0.1980
10854TIP3    H253978   1.378   3.859   0.786  0.1588 -0.3235 -0.9306
10855TIP3   OH253979   0.335   5.490  10.937 -0.2034  0.4044  0.4067
10855TIP3    H153980   0.306   5.513  10.849  0.4178  0.7071  0.2737
10855TIP3    H253981   0.256   5.494  10.991 -0.6368 -0.0575 -0.1850
10856TIP3   OH253982   2.455   0.299  15.356  0.3887  0.3360  0.5808
10856TIP3    H153983   2.387   0.294  15.423  0.2683  0.6129  0.4840
10856TIP3    H253984   2.486   0.209  15.346 -0.6713  0.0170 -0.0902
10857TIP3   OH253985   6.484   4.086  12.036  0.1347  0.5081  0.4999
10857TIP3    H153986   6.437   4.033  12.100 -1.0214  1.7555  0.7271
10857TIP3    H253987   6.538   4.146  12.088 -0.2952  1.0721  0.3082
10858TIP3   OH253988   5.193   2.976   4.431  0.1373  0.3665 -0.2210
10858TIP3    H153989   5.111   3.016   4.458  0.9336  1.3369  0.8770
10858TIP3    H253990   5.247   3.050   4.400  0.8519 -0.1500 -0.2408
10859TIP3   OH253991   5.900   3.885  16.716  0.6783  0.2727 -0.4037
10859TIP3    H153992   5.889   3.932  16.799 -1.8112 -1.8699  0.6027
10859TIP3    H253993   5.976   3.830  16.729 -0.2937 -0.8061  0.8977
10860TIP3   OH253994   0.594   2.241   2.244 -0.1350 -0.0930  0.4821
10860TIP3    H153995   0.606   2.146   2.247  0.1477 -0.0399  1.4190
10860TIP3    H253996   0.665   2.272   2.187  0.4183 -0.3582  1.0122
10861TIP3   OH253997   2.967   0.852  10.923  0.0221  0.1505  0.1600
10861TIP3    H153998   2.890   0.813  10.883 -0.5965  0.2629  1.2111
10861TIP3    H253999   2.993   0.921  10.862  0.4075 -1.0724 -1.1025
10862TIP3   OH254000   4.156   0.097   2.193  0.1135 -0.1339 -0.0460
10862TIP3    H154001   4.098   0.074   2.265 -0.3887 -0.4362 -0.5441
10862TIP3    H254002   4.121   0.050   2.118 -0.0257  1.0474 -0.7442
10863TIP3   OH254003   2.467   4.602   2.589 -0.1548  0.0892  0.3534
10863TIP3    H154004   2.407   4.534   2.559 -1.0050  0.5686  0.9149
10863TIP3    H254005   2.412   4.679   2.600  0.5471  0.5107  1.0018
10864TIP3   OH254006   0.950   0.355  11.246  0.2957 -0.6079 -0.5101
10864TIP3    H154007   1.010   0.423  11.277  0.1806 -0.6340 -0.2279
10864TIP3    H254008   0.992   0.273  11.269  0.6796 -0.6476 -1.3108
10865TIP3   OH254009   3.325   5.038  11.248  0.2093  0.3407 -0.4417
10865TIP3    H154010   3.333   4.993  11.163 -2.0342 -0.5339 -0.2538
10865TIP3    H254011   3.364   5.124  11.233  3.1710 -0.9862 -1.2913
10866TIP3   OH254012   5.428   5.331   4.864  0.1036  0.0366  0.2137
10866TIP3    H154013   5.474   5.340   4.947 -1.6119 -0.3295  1.2557
10866TIP3    H254014   5.349   5.384   4.875 -0.4432 -0.5021 -0.9688
10867TIP3   OH254015   3.433   2.284   5.410 -0.0822 -0.3736  0.5426
10867TIP3    H154016   3.368   2.332   5.462 -1.8776 -1.0603 -0.9544
10867TIP3    H254017   3.476   2.351   5.358 -1.2362 -0.1441 -0.1443
10868TIP3   OH254018   1.239   4.859  16.298  0.1244  0.7430 -0.2603
10868TIP3    H154019   1.287   4.778  16.281 -0.5840  0.4798 -1.0390
10868TIP3    H254020   1.300   4.911  16.350  1.7103  0.8567 -2.1010
10869TIP3   OH254021   0.401   2.241  11.747 -0.2489  0.2444  0.4325
10869TIP3    H154022   0.489   2.260  11.782  0.1317  1.0569 -0.8783
10869TIP3    H254023   0.355   2.324  11.754  0.2444  0.7868 -2.0617
10870TIP3   OH254024   2.287   4.247   6.501 -0.1215 -0.4642 -0.1860
10870TIP3    H154025   2.306   4.153   6.496  1.1067 -0.1755 -1.3076
10870TIP3    H254026   2.218   4.253   6.568 -0.2307 -2.1534 -0.0884
10871TIP3   OH254027   3.937   1.393  13.505 -0.9424 -0.0586  0.0770
10871TIP3    H154028   4.023   1.362  13.478 -1.0723  0.9769 -1.6993
10871TIP3    H254029   3.876   1.336  13.460 -1.2106 -0.6981  1.2171
10872TIP3   OH254030   1.788   6.400   0.629  0.3871  0.1239  0.1948
10872TIP3    H154031   1.877   6.396   0.662  0.9646  1.4336 -1.1050
10872TIP3    H254032   1.777   6.491   0.601 -1.1606 -0.1583 -0.2021
10873TIP3   OH254033   5.719   2.359  11.431 -0.0479  0.3568  0.3077
10873TIP3    H154034   5.763   2.389  11.510 -0.1222  0.6935  0.2216
10873TIP3    H254035   5.733   2.264  11.430  2.0051  0.6118 -0.5061
10874TIP3   OH254036   5.042   3.118  13.521 -0.4010  0.4388 -0.3583
10874TIP3    H154037   5.071   3.204  13.550 -0.7646 -0.0672  1.6479
10874TIP3    H254038   5.032   3.067  13.602 -0.6527 -1.3475 -1.4517
10875TIP3   OH254039   4.766   6.740  14.092  0.5539  0.5448  0.1256
10875TIP3    H154040   4.672   6.757  14.097 -0.0622 -1.0850 -3.0318
10875TIP3    H254041   4.783   6.678  14.164 -1.3099 -0.8599 -0.5412
10876TIP3   OH254042   3.374   2.291  16.157 -0.0934  0.2618  0.0352
10876TIP3    H154043   3.290   2.336  16.151 -0.4128 -0.2795  0.3213
10876TIP3    H254044   3.351   2.202  16.185  0.6926  0.5566  1.7511
10877TIP3   OH254045   6.685   2.324   4.823  0.3167 -0.6568 -0.4907
10877TIP3    H154046   6.623   2.397   4.830  0.2288 -0.7646 -0.0914
10877TIP3    H254047   6.697   2.295   4.913  1.5470 -0.1474 -0.4685
10878TIP3   OH254048   4.796   4.455   0.884 -0.3562 -0.4453  0.1733
10878TIP3    H154049   4.819   4.505   0.805 -1.2800 -0.3215 -0.0268
10878TIP3    H254050   4.824   4.511   0.956 -0.2096 -0.2145 -0.0612
10879TIP3   OH254051   5.661   3.584  10.823 -0.3430 -0.0764 -0.4392
10879TIP3    H154052   5.655   3.517  10.754  0.2981  0.1778 -0.7509
10879TIP3    H254053   5.671   3.666  10.776  2.5309 -0.1267 -0.0778
10880TIP3   OH254054   5.258   5.498   4.486  0.0746  0.0648 -0.4744
10880TIP3    H154055   5.179   5.499   4.432 -0.3173  1.2586  0.0991
10880TIP3    H254056   5.317   5.560   4.443  1.4086 -2.0140 -1.8525
10881TIP3   OH254057   6.684   6.043  16.476 -0.1559  0.5844 -0.5788
10881TIP3    H154058   6.599   6.014  16.508  0.3890  0.0331  0.4385
10881TIP3    H254059   6.721   5.966  16.433  0.4988  0.3086  0.4378
10882TIP3   OH254060   4.175   3.272   3.686 -0.0624  0.0720  0.1861
10882TIP3    H154061   4.242   3.336   3.709 -0.7702  0.4564  1.2507
10882TIP3    H254062   4.099   3.296   3.739 -0.3145 -1.7113  0.6917
10883TIP3   OH254063   4.008   0.164   0.482  0.0055  0.3323 -0.5478
10883TIP3    H154064   3.965   0.179   0.566 -0.9538  0.9918 -1.1441
10883TIP3    H254065   4.055   0.246   0.464  0.8674 -0.0896 -0.2953
10884TIP3   OH254066   5.265   3.914   4.434 -0.5636 -0.2545 -0.5563
10884TIP3    H154067   5.230   3.825   4.435 -1.8026  0.2144 -0.3805
10884TIP3    H254068   5.189   3.970   4.447  0.1578  0.8532 -0.9296
10885TIP3   OH254069   5.777   5.903  13.049 -0.1473 -0.0670  0.1540
10885TIP3    H154070   5.778   5.871  12.959  0.8063  0.0776  0.1117
10885TIP3    H254071   5.869   5.913  13.073 -0.3885  2.0649  0.3846
10886TIP3   OH254072   4.266   2.708   5.386  0.3014  0.1390 -0.2898
10886TIP3    H154073   4.243   2.709   5.293 -1.1829 -0.8995  0.0164
10886TIP3    H254074   4.352   2.665   5.390 -0.0640 -0.7012 -1.1235
10887TIP3   OH254075   3.007   0.837  11.374 -0.2048  0.2352  0.0331
10887TIP3    H154076   3.028   0.930  11.371 -0.8604  0.3754 -0.5776
10887TIP3    H254077   3.072   0.800  11.434 -0.3324  1.1841  0.7935
10888TIP3   OH254078   2.930   6.782  12.381 -0.7096  0.1407  0.0022
10888TIP3    H154079   2.931   6.746  12.292  0.2448  2.2334 -0.9198
10888TIP3    H254080   2.848   6.831  12.385 -1.5294 -1.2342  0.8958
10889TIP3   OH254081   3.150   6.634   1.810  0.1160 -0.3495  0.1087
10889TIP3    H154082   3.156   6.729   1.796 -0.3863 -0.3935 -0.4191
10889TIP3    H254083   3.085   6.624   1.880 -0.8171 -0.3634 -0.7409
10890TIP3   OH254084   1.975   1.672   3.730 -0.3968 -0.1994  0.4630
10890TIP3    H154085   1.941   1.735   3.794 -3.2740 -2.2066  1.1282
10890TIP3    H254086   2.008   1.600   3.783 -1.3798 -1.2057 -0.2392
10891TIP3   OH254087   5.124   4.534  14.349  0.0208 -0.5532 -0.1155
10891TIP3    H154088   5.075   4.454  14.362 -0.3719 -0.3650 -0.4468
10891TIP3    H254089   5.155   4.558  14.437  0.4561 -1.2597 -0.0703
10892TIP3   OH254090   4.945   3.958  11.546  0.7282  0.1379  0.0640
10892TIP3    H154091   4.925   3.950  11.639  0.5206 -0.6905 -0.0402
10892TIP3    H254092   5.027   3.910  11.535 -0.2686 -1.5092 -0.5092
10893TIP3   OH254093   5.710   3.989  11.069 -0.3814  0.3869  0.4703
10893TIP3    H154094   5.681   3.908  11.111  2.8366  0.3136  2.8734
10893TIP3    H254095   5.764   3.960  10.995 -0.8129  0.4040  0.1441
10894TIP3   OH254096   1.945   5.027   3.919 -0.6590  0.4078  0.1458
10894TIP3    H154097   1.984   5.096   3.972  0.4034 -0.2404  0.2608
10894TIP3    H254098   1.869   5.067   3.879  0.2569  1.8167 -0.2604
10895TIP3   OH254099   1.195   2.663  15.745  0.8033 -0.5225 -0.0190
10895TIP3    H154100   1.172   2.594  15.807 -0.0210  0.1054  0.3914
10895TIP3    H254101   1.274   2.703  15.781  0.1105  0.0970  0.8624
10896TIP3   OH254102   6.687   2.593   5.662  0.2181  0.5756 -0.0644
10896TIP3    H154103   6.693   2.604   5.567 -1.5853  0.9669 -0.1706
10896TIP3    H254104   6.750   2.523   5.682 -0.5345 -0.6828 -1.7876
10897TIP3   OH254105   4.406   0.635   4.026  0.4436  0.1498  0.4251
10897TIP3    H154106   4.495   0.603   4.019  0.9266  1.2979  1.0064
10897TIP3    H254107   4.355   0.558   4.052  0.9063 -0.9502 -1.7040
10898TIP3   OH254108   0.733   2.360  11.628  0.2766  0.2641 -0.0978
10898TIP3    H154109   0.677   2.430  11.661  0.0465 -0.5059  1.2235
10898TIP3    H254110   0.811   2.363  11.683  1.0806  0.6246 -1.2139
10899TIP3   OH254111   6.069   2.889  15.558 -0.4922  0.2778  0.0159
10899TIP3    H154112   6.035   2.833  15.488  1.6869 -2.2001  0.7362
10899TIP3    H254113   5.992   2.921  15.604 -1.8992 -1.9215 -0.6843
10900TIP3   OH254114   1.578   0.002  13.456  0.1834  0.1701 -0.5020
10900TIP3    H154115   1.506  -0.035  13.507  0.9433  1.2726  1.4771
10900TIP3    H254116   1.535   0.067  13.399 -0.4865  0.1652 -0.0162
10901TIP3   OH254117   3.315   0.628   0.825  0.6706 -0.0749 -0.3340
10901TIP3    H154118   3.303   0.591   0.738  0.6903 -1.5593  0.2463
10901TIP3    H254119   3.373   0.565   0.869 -0.2476  0.0306  1.0904
10902TIP3   OH254120   4.749   2.818   5.486 -0.1840 -0.4474  0.0553
10902TIP3    H154121   4.661   2.855   5.475  0.6725  0.9165 -3.0213
10902TIP3    H254122   4.778   2.797   5.398  2.4900 -1.1940  1.0105
10903TIP3   OH254123   0.818   6.070  15.697  0.2805  0.3359 -0.0475
10903TIP3    H154124   0.871   6.003  15.653  0.3055  0.2255  0.1512
10903TIP3    H254125   0.824   6.147  15.639  1.1936  0.5342  0.2893
10904TIP3   OH254126   6.390   5.834  12.425  0.2687 -0.1651 -0.0781
10904TIP3    H154127   6.463   5.796  12.376 -0.4217 -1.4371 -0.1650
10904TIP3    H254128   6.396   5.797  12.512 -0.0480  0.0276  0.0304
10905TIP3   OH254129   2.996   1.661  12.655 -0.3598 -0.1267  0.0551
10905TIP3    H154130   2.948   1.604  12.595  1.0393 -1.1702 -0.1241
10905TIP3    H254131   2.973   1.629  12.743  0.2430 -0.8555 -0.0399
10906TIP3   OH254132   0.266   1.241  13.158  0.1108 -0.1443 -0.0512
10906TIP3    H154133   0.325   1.279  13.222 -1.0649 -0.2594  1.1437
10906TIP3    H254134   0.317   1.237  13.077  1.6399 -0.0428  0.8816
10907TIP3   OH254135   3.103   5.099   0.166 -0.4275  0.4449 -0.1571
10907TIP3    H154136   3.114   5.183   0.123 -1.3433  0.6536 -0.0033
10907TIP3    H254137   3.153   5.038   0.113  0.9666  1.2171  0.2109
10908TIP3   OH254138   1.878   2.326   0.412 -0.1348 -0.1190 -0.3620
10908TIP3    H154139   1.911   2.399   0.359  0.5069  0.2870  0.5676
10908TIP3    H254140   1.909   2.346   0.500 -1.0769 -0.8502  0.1397
10909TIP3   OH254141   1.665   3.560   0.436  0.0469 -0.3781 -0.1182
10909TIP3    H154142   1.591   3.504   0.415 -0.3079  0.3225 -0.7837
10909TIP3    H254143   1.625   3.637   0.478  0.2816  0.4947 -1.4621
10910TIP3   OH254144   6.526   1.985  16.046 -0.0036 -0.0016  0.1618
10910TIP3    H154145   6.486   2.058  16.000  0.0249  0.2087  0.4692
10910TIP3    H254146   6.617   2.012  16.060 -0.1774  0.2145  0.9216
10911TIP3   OH254147   0.941   3.646   3.473 -0.4989  0.2810  0.2416
10911TIP3    H154148   0.933   3.698   3.393 -0.1702 -1.8961 -1.2748
10911TIP3    H254149   1.034   3.623   3.479 -0.9544 -1.9808 -0.4172
10912TIP3   OH254150   5.230   6.696   3.080 -0.1710  0.8980 -0.3441
10912TIP3    H154151   5.231   6.628   3.147  0.0780  0.0705 -1.1660
10912TIP3    H254152   5.269   6.773   3.122 -0.5225  0.5650  0.6164
10913TIP3   OH254153   3.291   5.578  12.326  0.1721  0.5210  0.2675
10913TIP3    H154154   3.251   5.585  12.239  0.6032  2.1503  0.1826
10913TIP3    H254155   3.345   5.499  12.320 -0.3016  0.2466 -0.7235
10914TIP3   OH254156   2.270   0.269   2.516  0.1217 -0.2441 -1.1031
10914TIP3    H154157   2.360   0.299   2.528 -0.3034  0.4670  0.5859
10914TIP3    H254158   2.268   0.182   2.555 -0.0668  0.0244 -0.4948
10915TIP3   OH254159   2.738   2.926   5.459  0.2232 -0.1210 -0.2558
10915TIP3    H154160   2.712   2.844   5.503 -0.7209 -0.0099 -0.5910
10915TIP3    H254161   2.684   2.993   5.500 -0.3792  0.0440 -1.3045
10916TIP3   OH254162   3.257   5.379  15.793  0.1637  0.1693 -0.1245
10916TIP3    H154163   3.300   5.299  15.763  0.3296  0.6397 -1.1773
10916TIP3    H254164   3.327   5.444  15.798 -0.3575  0.9421 -1.8688
10917TIP3   OH254165   4.040   2.175   4.217  0.0142  0.5844 -0.1573
10917TIP3    H154166   4.091   2.116   4.161 -0.6396  1.5691 -1.8370
10917TIP3    H254167   4.105   2.213   4.277  0.6540 -0.8006  0.0785
10918TIP3   OH254168   3.721   4.766  14.188  0.6925 -0.4156 -0.0236
10918TIP3    H154169   3.742   4.829  14.119 -1.2650 -0.2018 -0.4794
10918TIP3    H254170   3.762   4.802  14.267  1.9972 -0.0676 -0.8450
10919TIP3   OH254171   2.619   0.087  16.183 -0.0674  0.0930  0.0256
10919TIP3    H154172   2.586   0.011  16.135  1.2761 -1.2610  1.1512
10919TIP3    H254173   2.658   0.050  16.262  0.0218  2.0365  0.9427
10920TIP3   OH254174   2.985   1.682   5.137 -0.0717 -0.5507  0.5972
10920TIP3    H154175   2.929   1.667   5.213  0.9714  1.3054  1.7975
10920TIP3    H254176   3.072   1.700   5.174  1.1430 -2.3218 -1.1664
10921TIP3   OH254177   0.285   0.112  12.693  0.1020 -0.0865  0.2981
10921TIP3    H154178   0.206   0.087  12.645 -0.4517  0.2085  1.0369
10921TIP3    H254179   0.295   0.045  12.761 -0.3159  0.6387  1.0909
10922TIP3   OH254180   3.916   4.265  16.216  0.2736 -0.4774  0.7359
10922TIP3    H154181   3.961   4.218  16.147  1.0515 -0.6644  1.3563
10922TIP3    H254182   3.870   4.336  16.171 -2.1411 -2.6101 -0.4356
10923TIP3   OH254183   0.197   0.392   1.114 -0.0163 -0.6142  0.2702
10923TIP3    H154184   0.270   0.435   1.158 -0.3082  0.7992 -0.5888
10923TIP3    H254185   0.203   0.301   1.143 -0.0790  0.1854  3.1003
10924TIP3   OH254186   3.705   6.698   4.887 -0.2596 -0.0708 -0.0577
10924TIP3    H154187   3.685   6.605   4.888 -0.6347  0.0079  0.7951
10924TIP3    H254188   3.629   6.739   4.928  0.6771  0.4417  1.2067
10925TIP3   OH254189   3.715   2.064  11.104 -0.4073 -0.2217 -0.0107
10925TIP3    H154190   3.787   2.084  11.164 -1.3417  0.8808  0.8023
10925TIP3    H254191   3.664   1.996  11.149 -0.6245 -0.0209  0.0501
10926TIP3   OH254192   6.578   1.621  15.636  0.0129  0.2346 -0.1895
10926TIP3    H154193   6.491   1.642  15.601 -0.2979 -1.2508 -0.3590
10926TIP3    H254194   6.581   1.526  15.638  1.0381  0.2569  1.3135
10927TIP3   OH254195   4.458   5.523   1.596 -0.1171 -0.3108  0.2583
10927TIP3    H154196   4.548   5.550   1.575 -0.4157 -0.3993 -1.2403
10927TIP3    H254197   4.468   5.466   1.672  1.0878 -0.2167  0.1985
10928TIP3   OH254198   4.691   6.092  16.063 -0.6966  0.4218  0.4473
10928TIP3    H154199   4.651   6.138  15.989  0.8540 -1.6456 -1.8678
10928TIP3    H254200   4.620   6.040  16.100 -1.1785  0.2067 -0.7132
10929TIP3   OH254201   5.206   5.832   3.384  0.7594 -0.0515  0.1007
10929TIP3    H154202   5.156   5.906   3.417  1.6992  0.8633 -0.4980
10929TIP3    H254203   5.252   5.865   3.307  2.3269 -0.8431  0.6505
10930TIP3   OH254204   2.178   1.594   5.671 -0.7423  0.4702 -0.3242
10930TIP3    H154205   2.222   1.678   5.683  0.4263  0.0784 -1.5551
10930TIP3    H254206   2.237   1.530   5.710 -0.1104 -0.0732 -2.0484
10931TIP3   OH254207   0.663   3.587   0.986  0.0057  0.2022 -0.1219
10931TIP3    H154208   0.702   3.525   1.048 -2.1279  0.5038  1.6636
10931TIP3    H254209   0.574   3.554   0.973 -1.1338  2.7360  0.7347
10932TIP3   OH254210   1.396   5.303  11.469 -0.5502 -0.3619  0.1467
10932TIP3    H154211   1.466   5.326  11.408 -0.6244  0.7519  0.4671
10932TIP3    H254212   1.327   5.268  11.413  0.1568 -1.2573 -0.1960
10933TIP3   OH254213   4.752   6.520  12.588 -0.4483 -1.1798 -0.1965
10933TIP3    H154214   4.705   6.574  12.525  0.8396 -1.4141 -1.4091
10933TIP3    H254215   4.795   6.583  12.646 -0.3011 -0.9301 -0.5753
10934TIP3   OH254216   2.862   4.915  12.331 -0.6334  0.1685 -0.2311
10934TIP3    H154217   2.898   5.003  12.339 -0.0458 -0.1462  0.8681
10934TIP3    H254218   2.886   4.872  12.413 -1.3911 -0.8444 -0.5181
10935TIP3   OH254219   3.355   4.175   4.379  0.2374 -0.2900  0.4113
10935TIP3    H154220   3.416   4.153   4.449  2.1052  1.7905 -0.4347
10935TIP3    H254221   3.390   4.131   4.302  0.8687  1.1210 -0.1358
10936TIP3   OH254222   5.586   2.009   3.531 -0.0518  0.0266  0.1840
10936TIP3    H154223   5.602   2.080   3.469 -2.0488 -0.6042 -1.1766
10936TIP3    H254224   5.647   1.940   3.506  0.0125  0.2439 -0.2591
10937TIP3   OH254225   5.289   5.052  16.153  0.3182  0.5887  0.0534
10937TIP3    H154226   5.377   5.090  16.153  0.8812 -0.6710  0.5823
10937TIP3    H254227   5.281   5.011  16.066  0.6788 -0.2274  0.3992
10938TIP3   OH254228   2.545   3.359  11.381 -0.4890  0.0280  0.2957
10938TIP3    H154229   2.629   3.380  11.341 -1.9534  4.6141 -1.0352
10938TIP3    H254230   2.553   3.387  11.472  0.1366 -2.0150  0.9054
10939TIP3   OH254231   1.866   1.775   2.147  0.0742  0.3600 -0.4722
10939TIP3    H154232   1.911   1.737   2.222  1.0246  2.2155 -0.0564
10939TIP3    H254233   1.820   1.851   2.181 -2.3832 -0.7014 -1.1520
10940TIP3   OH254234   4.872   3.252   0.779 -0.2728  0.1176 -0.6299
10940TIP3    H154235   4.788   3.209   0.764  0.1641 -0.6173 -1.0073
10940TIP3    H254236   4.937   3.189   0.750  0.4533  0.3494  0.4230
10941TIP3   OH254237   2.236   3.812   2.109 -0.2218 -0.6956 -0.2577
10941TIP3    H154238   2.171   3.881   2.103  0.6148  0.1553  0.2756
10941TIP3    H254239   2.280   3.813   2.024  1.4981  1.1771  0.5997
10942TIP3   OH254240   5.787   3.237   1.177 -0.1111 -0.2182 -0.3267
10942TIP3    H154241   5.765   3.175   1.108 -1.5620 -0.8842  0.6818
10942TIP3    H254242   5.730   3.213   1.250  1.1970  0.6095  1.0287
10943TIP3   OH254243   4.756   3.938  16.967  0.6411  0.4937 -0.2873
10943TIP3    H154244   4.805   3.917  17.047 -1.4267 -3.0276  0.2465
10943TIP3    H254245   4.695   4.007  16.995  0.5954 -0.0016  0.9264
10944TIP3   OH254246   2.837   2.270  15.126 -0.8656  0.3229 -0.9014
10944TIP3    H154247   2.902   2.315  15.180  0.9985 -2.1962 -0.8352
10944TIP3    H254248   2.760   2.327  15.127  0.7971  2.6990  0.3193
10945TIP3   OH254249   1.465   5.155  16.955 -0.4424  0.4714 -0.1713
10945TIP3    H154250   1.551   5.124  16.926 -0.4494 -0.0265  0.3226
10945TIP3    H254251   1.409   5.144  16.879 -0.3929 -0.5412 -0.0740
10946TIP3   OH254252   1.795   1.441   1.315 -0.3494  0.1736  0.0486
10946TIP3    H154253   1.847   1.411   1.390 -1.3145 -1.3839  0.1320
10946TIP3    H254254   1.704   1.421   1.339 -0.7101 -0.0523 -1.3976
10947TIP3   OH254255   3.772   6.733   1.992  0.5290  0.1752  0.3596
10947TIP3    H154256   3.737   6.751   1.905  3.1993 -0.4430 -0.9405
10947TIP3    H254257   3.849   6.790   1.999 -0.0482  0.7783  2.6735
10948TIP3   OH254258   2.147   3.976  11.954  0.2109  0.1357 -0.1238
10948TIP3    H154259   2.224   3.934  11.918  1.3700  2.0594 -0.0419
10948TIP3    H254260   2.143   3.948  12.045 -0.1196 -1.1818 -0.5197
10949TIP3   OH254261   1.722   4.793  13.547  0.1881 -0.5041 -0.2419
10949TIP3    H154262   1.744   4.714  13.498  0.6779 -0.3623 -0.2535
10949TIP3    H254263   1.676   4.760  13.624  2.6746 -1.0448  1.1219
10950TIP3   OH254264   4.776   3.027   3.058  0.0320  0.3158  0.5707
10950TIP3    H154265   4.865   3.002   3.034  0.0878  1.1071 -0.0775
10950TIP3    H254266   4.729   2.943   3.064  0.3053 -0.0193 -1.2138
10951TIP3   OH254267   1.069   3.161  10.540  0.4972  0.8396 -0.1262
10951TIP3    H154268   1.062   3.255  10.554  0.4675  1.2243 -2.4247
10951TIP3    H254269   0.979   3.131  10.527  0.5928  0.6966 -0.4814
10952TIP3   OH254270   3.525   4.508   6.624 -0.0852  0.0047 -0.3988
10952TIP3    H154271   3.505   4.414   6.626  1.9566 -0.5250  2.4526
10952TIP3    H254272   3.586   4.518   6.552  0.6433 -1.1428  0.0268
10953TIP3   OH254273   2.384   1.612   0.197 -0.1853 -0.1783  0.0830
10953TIP3    H154274   2.293   1.602   0.225 -0.7809 -1.0078 -1.9117
10953TIP3    H254275   2.428   1.535   0.233 -0.7791 -0.8765 -0.6199
10954TIP3   OH254276   5.111   0.491   3.347  0.2519 -0.5124 -0.2213
10954TIP3    H154277   5.185   0.432   3.334 -1.1133 -2.3235 -0.1424
10954TIP3    H254278   5.095   0.530   3.261  0.3105 -1.3298 -0.6101
10955TIP3   OH254279   2.819   2.397   0.138  0.7057 -0.0087 -0.1039
10955TIP3    H154280   2.910   2.418   0.161  0.6070 -0.7739  1.0725
10955TIP3    H254281   2.772   2.401   0.222  0.3237 -2.9936 -0.0875
10956TIP3   OH254282   0.979   0.550  16.893  1.1703 -0.7240 -0.4975
10956TIP3    H154283   1.006   0.591  16.975 -1.4002  1.1862 -0.4646
10956TIP3    H254284   0.942   0.466  16.919  1.7714 -0.8093  0.0955
10957TIP3   OH254285   2.849   1.641   5.369 -0.0569 -0.2010 -0.1508
10957TIP3    H154286   2.764   1.672   5.401  0.1660  1.4987 -1.0629
10957TIP3    H254287   2.899   1.622   5.448 -1.1140 -0.7740  0.4040
10958TIP3   OH254288   0.730   0.449  14.737 -0.0286 -0.1026  0.7091
10958TIP3    H154289   0.716   0.525  14.793 -2.6794  0.1120 -0.0759
10958TIP3    H254290   0.724   0.483  14.648  0.6229 -0.9607  0.3171
10959TIP3   OH254291   1.147   2.185  16.009 -0.0469 -0.0590 -0.0257
10959TIP3    H154292   1.237   2.154  15.996  0.4493  0.6208  1.5786
10959TIP3    H254293   1.096   2.136  15.944  1.4202 -0.6927 -0.7618
10960TIP3   OH254294   4.354   1.173  11.458 -0.4598  0.3156  0.3993
10960TIP3    H154295   4.408   1.123  11.519 -1.1186  0.0252  0.7580
10960TIP3    H254296   4.331   1.252  11.506 -1.4005 -0.1437  0.7381
10961TIP3   OH254297   4.337   1.037  15.806 -0.5723 -0.0223 -0.3012
10961TIP3    H154298   4.360   1.060  15.716  0.9815 -1.0505 -0.2077
10961TIP3    H254299   4.246   1.009  15.801 -1.0675  1.6003 -1.2132
10962TIP3   OH254300   5.615   5.471  11.093  0.0138  0.1339 -0.3030
10962TIP3    H154301   5.606   5.461  10.998 -1.1717  2.7398 -0.5656
10962TIP3    H254302   5.688   5.532  11.104  0.0054  0.0193  0.4281
10963TIP3   OH254303   3.824   1.215   6.059  0.2203 -0.8158  0.2357
10963TIP3    H154304   3.738   1.172   6.061 -0.0965 -0.2885 -1.0585
10963TIP3    H254305   3.827   1.268   6.139 -0.4074 -1.2975  0.5870
10964TIP3   OH254306   0.315   4.051  12.815 -0.4011  0.1933  0.0160
10964TIP3    H154307   0.353   4.131  12.851 -1.2201 -0.7372  3.3038
10964TIP3    H254308   0.221   4.068  12.813 -0.3807  0.4190 -2.5155
10965TIP3   OH254309   3.067   2.547   0.269 -0.2164  0.1472 -0.6850
10965TIP3    H154310   3.085   2.597   0.349 -0.7011 -2.0201  0.8805
10965TIP3    H254311   3.148   2.498   0.253 -0.2580  0.2780 -1.2906
10966TIP3   OH254312   1.504   4.769   0.572 -1.1036 -0.0200  0.1508
10966TIP3    H154313   1.544   4.689   0.539 -0.5530  0.6137 -0.7420
10966TIP3    H254314   1.473   4.745   0.660  0.2168 -0.8419  0.4264
10967TIP3   OH254315   4.390   1.167   5.942  0.4512  0.1769 -0.1523
10967TIP3    H154316   4.440   1.176   5.861 -0.2456 -0.4796 -0.6691
10967TIP3    H254317   4.446   1.207   6.009  1.2810  0.2350 -0.8583
10968TIP3   OH254318   0.190   1.028  15.807 -0.1591  0.3868  0.2412
10968TIP3    H154319   0.220   1.047  15.896  0.4030  0.5147  0.0297
10968TIP3    H254320   0.201   0.934  15.798 -1.8320  0.0955  0.8841
10969TIP3   OH254321   4.044   1.163   3.551  0.0649 -0.5734 -0.1264
10969TIP3    H154322   4.130   1.196   3.524  0.1123 -0.5585  0.0369
10969TIP3    H254323   3.984   1.236   3.535 -0.0164 -0.7793 -0.7791
10970TIP3   OH254324   4.607   0.459   3.515  0.2188 -0.4728  0.0707
10970TIP3    H154325   4.587   0.404   3.591  1.2178 -1.2947 -0.2387
10970TIP3    H254326   4.702   0.466   3.514  0.3284 -1.5446 -1.8147
10971TIP3   OH254327   0.763   6.624   1.696  0.0465 -0.7398  0.0956
10971TIP3    H154328   0.842   6.571   1.711  0.3066 -0.8479 -1.5123
10971TIP3    H254329   0.797   6.710   1.672 -0.3452 -0.6206 -0.0311
10972TIP3   OH254330   0.914   3.450   3.965 -0.5929 -0.1389  0.2512
10972TIP3    H154331   0.914   3.412   3.877 -1.4038  0.6110 -0.0955
10972TIP3    H254332   0.898   3.543   3.950  1.7272  0.4463  1.0386
10973TIP3   OH254333   3.327   2.972  10.527 -0.0655 -0.4056 -0.0755
10973TIP3    H154334   3.244   2.952  10.569  0.1626 -0.8297  0.1712
10973TIP3    H254335   3.323   2.927  10.442 -0.3458  0.0977 -0.3384
10974TIP3   OH254336   4.271   4.004   0.318 -0.7792 -0.2274 -0.4498
10974TIP3    H154337   4.354   4.051   0.326 -0.2321 -1.1739 -0.4858
10974TIP3    H254338   4.282   3.950   0.240 -2.4791  1.7198 -2.1574
10975TIP3   OH254339   0.863   1.325   3.942 -0.0732  0.3662 -0.3004
10975TIP3    H154340   0.830   1.336   4.031 -1.3249  0.5672 -0.7750
10975TIP3    H254341   0.788   1.294   3.892  0.7166 -0.1269 -1.2129
10976TIP3   OH254342   0.158   6.562  16.145 -0.2775  0.6179 -0.0383
10976TIP3    H154343   0.139   6.553  16.238 -0.9073  1.0953 -0.1153
10976TIP3    H254344   0.200   6.480  16.121 -0.6761  0.2416  0.5281
10977TIP3   OH254345   5.353   1.877  11.480  0.6608 -0.4434  0.2855
10977TIP3    H154346   5.358   1.961  11.525 -0.6001 -0.2994  0.1773
10977TIP3    H254347   5.322   1.897  11.392  0.7201 -0.9841  0.1335
10978TIP3   OH254348   3.469   2.176   3.856  0.2071  0.2852  0.2817
10978TIP3    H154349   3.552   2.209   3.825  0.5300  0.4369  1.2622
10978TIP3    H254350   3.408   2.249   3.845  0.3504  0.3863  0.1555
10979TIP3   OH254351   5.731   2.688   0.230 -0.1093  0.3245 -0.2803
10979TIP3    H154352   5.796   2.691   0.300  0.4798  0.1811 -0.8137
10979TIP3    H254353   5.781   2.673   0.151 -0.8899 -0.9324 -0.5683
10980TIP3   OH254354   5.990   1.507  13.426  0.2620  0.2980 -0.3663
10980TIP3    H154355   5.927   1.567  13.385  0.7547  1.6780  0.8127
10980TIP3    H254356   5.971   1.422  13.386 -1.2092  1.0056 -1.2825
10981TIP3   OH254357   5.093   6.398   6.051 -0.4298 -1.3960  0.1647
10981TIP3    H154358   5.089   6.491   6.074  0.7832 -1.4472  0.6389
10981TIP3    H254359   5.088   6.352   6.134  0.3746 -1.7057  0.0482
10982TIP3   OH254360   2.251   4.166  16.004 -0.0754  0.1070 -0.7720
10982TIP3    H154361   2.213   4.247  15.969  0.9910  0.3273 -1.4857
10982TIP3    H254362   2.192   4.097  15.975 -1.3980  0.6716  0.4593
10983TIP3   OH254363   2.015   4.059  16.438 -0.2622 -0.1024  0.7435
10983TIP3    H154364   2.004   4.077  16.345  0.0873  0.8394  0.8746
10983TIP3    H254365   2.107   4.080  16.456 -0.3441 -0.2115  1.3137
10984TIP3   OH254366   1.774   4.774  12.531  0.0615 -0.3074 -0.4598
10984TIP3    H154367   1.819   4.740  12.453  2.4271  1.5521 -0.0375
10984TIP3    H254368   1.705   4.830  12.496 -1.2558 -2.2646 -1.1483
10985TIP3   OH254369   2.063   3.416  11.134  0.0635 -0.0159  0.2070
10985TIP3    H154370   2.135   3.370  11.177 -0.4774 -1.1971 -0.1032
10985TIP3    H254371   2.097   3.440  11.048 -0.0207 -0.9196 -0.0902
10986TIP3   OH254372   0.963   5.249  11.868 -0.1004  0.2305  0.0782
10986TIP3    H154373   0.994   5.329  11.825 -1.2424  1.0708  0.7819
10986TIP3    H254374   0.942   5.190  11.796 -0.1687  0.9170 -0.4740
10987TIP3   OH254375   6.347   4.984  13.133  0.3732  0.0530 -0.5255
10987TIP3    H154376   6.386   5.036  13.063  0.0479  3.0400  1.3696
10987TIP3    H254377   6.259   5.018  13.142  0.2482 -0.6142  1.0307
10988TIP3   OH254378   6.146   1.510  12.885  0.1017  0.5294 -0.3393
10988TIP3    H154379   6.195   1.583  12.847  1.2035  0.2617  0.5335
10988TIP3    H254380   6.165   1.514  12.979 -1.1556  0.1066 -0.0437
10989TIP3   OH254381   2.672   6.456   2.475 -0.3252  0.0178  0.2852
10989TIP3    H154382   2.577   6.469   2.473 -0.6375 -1.9229 -0.7579
10989TIP3    H254383   2.703   6.491   2.391  0.0136  1.2598  0.9028
10990TIP3   OH254384   0.999   2.689   2.129 -0.0454  0.4930  0.0132
10990TIP3    H154385   1.051   2.625   2.177  0.4715  0.7336 -0.2124
10990TIP3    H254386   1.039   2.692   2.042 -1.3887 -0.4270 -0.6550
10991TIP3   OH254387   6.778   4.232  12.774 -0.1208  0.6948  0.2938
10991TIP3    H154388   6.759   4.239  12.867 -1.9509 -0.1538  0.0262
10991TIP3    H254389   6.783   4.138  12.757  2.1216  0.8449 -0.1406
10992TIP3   OH254390   0.249   1.855   0.910  0.2295 -0.2759 -0.2279
10992TIP3    H154391   0.328   1.803   0.895 -0.5747 -2.0645  1.3072
10992TIP3    H254392   0.178   1.797   0.883 -0.6279  1.5391 -2.2443
10993TIP3   OH254393   4.427   5.982   1.858 -0.2604  0.3658  0.3251
10993TIP3    H154394   4.422   6.056   1.797  1.3406  0.3886  0.1717
10993TIP3    H254395   4.384   5.910   1.811  0.0101  0.6619 -0.4014
10994TIP3   OH254396   2.981   3.674   0.897 -0.1812 -0.2508 -0.2022
10994TIP3    H154397   2.959   3.764   0.920  0.4913  0.1975 -1.2350
10994TIP3    H254398   3.024   3.639   0.974 -1.7912 -0.1914  0.7705
10995TIP3   OH254399   2.868   5.682   1.930  0.2593 -0.2039 -0.1782
10995TIP3    H154400   2.885   5.600   1.885  1.2019  0.1537 -0.5013
10995TIP3    H254401   2.937   5.741   1.899 -1.3997  1.2571 -1.2994
10996TIP3   OH254402   2.979   6.313  10.869  0.3219 -0.2534  0.7446
10996TIP3    H154403   2.911   6.286  10.807  0.3772 -1.6487  1.2402
10996TIP3    H254404   2.989   6.407  10.855 -0.9327 -0.2182 -0.1047
10997TIP3   OH254405   0.533   2.035   2.490  0.8802 -0.2955 -0.0019
10997TIP3    H154406   0.566   2.124   2.506  2.7194 -1.0203  0.5397
10997TIP3    H254407   0.533   2.027   2.394  0.5202  0.3427 -0.0621
10998TIP3   OH254408   2.483   5.132   3.156  0.2027 -0.5519 -0.0564
10998TIP3    H154409   2.408   5.090   3.113 -0.4984 -1.0612  1.5975
10998TIP3    H254410   2.461   5.131   3.249  2.9862 -2.2552  0.7018
10999TIP3   OH254411   2.213   5.905  14.234 -0.2837  0.6385  0.2494
10999TIP3    H154412   2.213   5.990  14.280 -0.4735  0.6939  0.1459
10999TIP3    H254413   2.198   5.928  14.142 -1.5223  0.3971  0.3817
11000TIP3   OH254414   4.848   3.645  16.028  0.0270  0.0980  0.1036
11000TIP3    H154415   4.939   3.616  16.031  0.5188  1.2393 -2.1862
11000TIP3    H254416   4.851   3.739  16.047 -0.5420  0.3391 -0.9198
11001TIP3   OH254417   3.118   6.357  17.044  0.4972 -0.5665  0.4517
11001TIP3    H154418   3.176   6.379  16.971  1.0830  1.8253  1.5394
11001TIP3    H254419   3.029   6.363  17.007  0.8363 -1.3863 -0.5276
11002TIP3   OH254420   5.978   2.238  14.154 -0.0564 -0.6055  0.3341
11002TIP3    H154421   6.071   2.238  14.176  0.0669 -1.0194 -0.1418
11002TIP3    H254422   5.959   2.146  14.134 -1.0303 -0.8661  2.2806
11003TIP3   OH254423   4.977   0.392  15.442  0.4372  0.1242 -0.5617
11003TIP3    H154424   4.943   0.479  15.464 -0.3835  0.0944 -1.6421
11003TIP3    H254425   5.032   0.407  15.365  1.0180 -0.1846 -0.2139
11004TIP3   OH254426   4.748   0.851  15.648  0.2266  0.0646 -0.0289
11004TIP3    H154427   4.670   0.859  15.592  1.7277  1.3396 -2.0782
11004TIP3    H254428   4.780   0.940  15.658  0.6398 -0.2637  2.0466
11005TIP3   OH254429   3.567   5.999   1.819 -0.4542 -0.0779  0.0528
11005TIP3    H154430   3.612   6.039   1.745 -1.2066  0.4813 -0.1087
11005TIP3    H254431   3.564   5.905   1.797  0.2192 -0.0659 -0.1391
11006TIP3   OH254432   6.319   3.053  12.150 -0.2774 -0.0409 -0.5225
11006TIP3    H154433   6.362   2.973  12.120 -1.0386 -1.0673  0.9774
11006TIP3    H254434   6.237   3.022  12.189 -0.6512  1.4963 -0.0272
11007TIP3   OH254435   6.530   6.348  16.595  0.2587  0.3523 -0.2245
11007TIP3    H154436   6.507   6.258  16.617  2.4701 -0.1487  0.3442
11007TIP3    H254437   6.472   6.402  16.648  0.9091 -0.7876  1.7477
11008TIP3   OH254438   3.689   1.295  13.338 -0.1694 -0.0323  0.0473
11008TIP3    H154439   3.618   1.349  13.372  0.9554  0.8122  1.1371
11008TIP3    H254440   3.667   1.282  13.246 -2.0573 -0.3423  0.5022
11009TIP3   OH254441   4.292   2.682   4.294  0.0082 -0.2510 -0.4933
11009TIP3    H154442   4.353   2.698   4.222  0.8193  0.7677  0.3783
11009TIP3    H254443   4.316   2.747   4.360 -0.2777 -1.5793  0.9685
11010TIP3   OH254444   3.945   2.156   6.278 -0.6156  0.0961  0.0268
11010TIP3    H154445   4.039   2.142   6.264 -0.5668  1.1059 -0.7472
11010TIP3    H254446   3.915   2.075   6.320  0.6707 -0.0893  0.6423
11011TIP3   OH254447   1.976   0.630   3.267  0.7197 -0.7203  0.0833
11011TIP3    H154448   2.013   0.718   3.258 -0.2087 -0.2870  0.4672
11011TIP3    H254449   1.920   0.619   3.190  1.6169 -1.3855 -0.5054
11012TIP3   OH254450   1.815   2.043   1.193 -0.2868 -0.1175 -0.4879
11012TIP3    H154451   1.771   2.001   1.267  3.3974 -0.6603  1.5951
11012TIP3    H254452   1.794   2.136   1.201 -0.0501 -0.1900  1.1888
11013TIP3   OH254453   5.414   4.615  16.982  0.0511 -0.4763  0.4399
11013TIP3    H154454   5.410   4.705  17.013  0.6921  0.3164 -1.5807
11013TIP3    H254455   5.329   4.578  17.006  0.1789  0.2955  2.2582
11014TIP3   OH254456   3.170   2.253   1.530  0.2894 -0.2629 -0.4235
11014TIP3    H154457   3.126   2.237   1.613  0.5327  0.4276 -0.1564
11014TIP3    H254458   3.099   2.272   1.468  0.1518 -0.0759 -0.2088
11015TIP3   OH254459   1.325   1.126  14.850 -0.0715 -0.3229 -0.0509
11015TIP3    H154460   1.290   1.064  14.786  1.4255 -0.6163 -0.6175
11015TIP3    H254461   1.381   1.185  14.798 -0.5141  0.7621  0.6660
11016TIP3   OH254462   5.101   6.739   3.682 -0.2541 -0.0240  0.6287
11016TIP3    H154463   5.100   6.823   3.636  2.6083  0.3474  1.0634
11016TIP3    H254464   5.013   6.731   3.719 -0.4277  3.1412  1.1819
11017TIP3   OH254465   6.212   1.848  14.109 -0.3806  0.1353  0.5931
11017TIP3    H154466   6.274   1.777  14.095  1.2823  1.2921  1.6546
11017TIP3    H254467   6.146   1.812  14.168 -0.6385 -1.0607 -0.3956
11018TIP3   OH254468   0.180   0.512   5.579 -0.1727 -0.3075  0.4180
11018TIP3    H154469   0.232   0.473   5.649  0.1586  0.8208  0.8302
11018TIP3    H254470   0.175   0.445   5.512  4.1794  0.4087 -0.8905
11019TIP3   OH254471   3.358   6.478  14.772 -0.0998  0.6737  0.3312
11019TIP3    H154472   3.452   6.473  14.786  0.3935 -3.4060 -2.9068
11019TIP3    H254473   3.346   6.554  14.715  1.0005  1.7581  1.4729
11020TIP3   OH254474   3.145   3.627   4.059  0.4183  0.0373  0.4404
11020TIP3    H154475   3.163   3.719   4.079 -0.9462  0.5046 -0.3154
11020TIP3    H254476   3.146   3.583   4.143 -0.4823  1.0579  1.0141
11021TIP3   OH254477   0.182   3.018   0.164 -0.3233 -1.2330 -0.1315
11021TIP3    H154478   0.098   3.046   0.127 -1.8039 -2.3003  2.2462
11021TIP3    H254479   0.171   2.925   0.182  0.6979 -1.0162  1.8900
11022TIP3   OH254480   4.993   0.545  11.232  0.3559 -0.2352  0.7221
11022TIP3    H154481   5.024   0.457  11.209  0.0839 -0.0267 -0.4825
11022TIP3    H254482   4.976   0.588  11.148  0.3064  0.9144  1.2968
11023TIP3   OH254483   1.846   3.877  12.281 -0.5045 -0.4606 -0.4316
11023TIP3    H154484   1.842   3.784  12.259 -0.9383 -0.5229 -0.1097
11023TIP3    H254485   1.908   3.881  12.354 -0.1535 -0.4381 -0.7278
11024TIP3   OH254486   2.877   2.910  16.897  0.8480  0.0464 -0.0660
11024TIP3    H154487   2.782   2.898  16.889  0.3499  2.9750  0.3864
11024TIP3    H254488   2.911   2.822  16.914 -1.3413 -1.7180 -3.6530
11025TIP3   OH254489   3.762   6.331   5.327  0.0236 -0.0355 -0.2444
11025TIP3    H154490   3.720   6.389   5.264  0.6410  0.1783 -0.4737
11025TIP3    H254491   3.819   6.275   5.274  1.2459  0.7524  0.1899
11026TIP3   OH254492   4.478   3.420  13.911  0.4101 -0.2818  0.3094
11026TIP3    H154493   4.523   3.342  13.877 -0.1200 -0.3259 -0.2992
11026TIP3    H254494   4.407   3.436  13.849  0.4272  0.6093  0.5040
11027TIP3   OH254495   3.743   3.353  16.199  0.9763 -0.5256  0.0020
11027TIP3    H154496   3.753   3.409  16.122 -0.6554  0.4125  0.4338
11027TIP3    H254497   3.658   3.311  16.188  1.5518 -1.8658  0.3923
11028TIP3   OH254498   6.780   5.609  14.213 -0.1512 -0.3609 -0.0718
11028TIP3    H154499   6.774   5.676  14.281  0.1110  0.2779 -0.6758
11028TIP3    H254500   6.805   5.530  14.261 -1.8922 -0.3985  0.8575
11029TIP3   OH254501   1.057   4.228   5.640 -0.1662 -0.3835 -0.5584
11029TIP3    H154502   1.118   4.256   5.708  1.8062 -2.3458 -1.4018
11029TIP3    H254503   1.048   4.305   5.583  2.9775 -0.4701 -1.3677
11030TIP3   OH254504   1.591   5.714   2.347 -0.5087 -0.1906  0.1064
11030TIP3    H154505   1.633   5.662   2.416 -0.9705  0.7422  1.1309
11030TIP3    H254506   1.549   5.787   2.394 -0.9789  0.3854 -1.1515
11031TIP3   OH254507   5.873   6.332   4.872 -0.1073  0.1699  0.1724
11031TIP3    H154508   5.910   6.397   4.813  0.8976  1.5930  2.2386
11031TIP3    H254509   5.931   6.332   4.948 -0.8079 -2.2609  0.8108
11032TIP3   OH254510   3.314   1.310   5.325 -0.1883 -0.2299 -0.0782
11032TIP3    H154511   3.324   1.403   5.344 -1.6986  0.0214 -0.3693
11032TIP3    H254512   3.398   1.284   5.287  0.6091  0.7604  0.9220
11033TIP3   OH254513   4.502   4.846  14.067  0.3315  0.4656 -0.5020
11033TIP3    H154514   4.513   4.935  14.100  2.8833  0.7256 -1.7975
11033TIP3    H254515   4.558   4.792  14.123 -0.4490 -0.2024 -0.3348
11034TIP3   OH254516   3.081   5.921  15.318  0.5129 -0.2166  0.1619
11034TIP3    H154517   2.998   5.891  15.354 -0.9152  1.3447 -1.6459
11034TIP3    H254518   3.115   5.983  15.382  0.4191 -1.0290  1.0117
11035TIP3   OH254519   1.662   3.945   5.102  0.0181  0.5354 -0.3371
11035TIP3    H154520   1.583   3.994   5.082 -0.9012  0.0152  1.7969
11035TIP3    H254521   1.710   4.000   5.164 -0.3572 -0.6007  1.0140
11036TIP3   OH254522   2.685   6.470  12.685 -0.2440  0.4984 -0.2489
11036TIP3    H154523   2.685   6.488  12.591 -0.8854  1.0267 -0.1519
11036TIP3    H254524   2.687   6.557  12.726 -1.8205  0.3446  0.2211
11037TIP3   OH254525   3.131   6.131   4.969 -0.2681  0.1854  0.2095
11037TIP3    H154526   3.107   6.043   4.999 -0.1117  0.3030  0.6897
11037TIP3    H254527   3.221   6.123   4.940 -0.0898  0.2945  0.7203
11038TIP3   OH254528   3.050   3.734   0.558  0.1822  0.6175 -0.0285
11038TIP3    H154529   3.017   3.822   0.541 -0.2278  0.3965 -0.4041
11038TIP3    H254530   2.974   3.685   0.590 -0.1227 -0.1714 -1.8592
11039TIP3   OH254531   4.659   5.992  11.839  0.2764 -0.2946 -0.2348
11039TIP3    H154532   4.591   6.055  11.815  1.5554  0.5660 -1.7168
11039TIP3    H254533   4.640   5.970  11.930 -2.7042 -1.0051 -0.9208
11040TIP3   OH254534   2.458   2.022   4.842 -0.4035  0.6069 -0.5730
11040TIP3    H154535   2.431   1.951   4.783  2.4469 -1.5425  0.5003
11040TIP3    H254536   2.539   2.055   4.803 -0.5416  1.8309  0.1334
11041TIP3   OH254537   5.530   4.177   2.614 -0.5551 -0.5780  0.0479
11041TIP3    H154538   5.437   4.164   2.633 -0.7413 -2.2156 -1.6575
11041TIP3    H254539   5.547   4.267   2.640 -2.8873  0.1152 -0.5750
11042TIP3   OH254540   0.325   4.125   0.193 -0.4624  0.0059  0.2842
11042TIP3    H154541   0.246   4.130   0.140  0.2723 -0.6283 -0.9045
11042TIP3    H254542   0.311   4.049   0.250 -1.2031  0.6253  0.9663
11043TIP3   OH254543   0.946   5.071  12.525  0.1498  0.4459 -0.9110
11043TIP3    H154544   1.008   5.000  12.540 -0.6570  0.2525  2.1440
11043TIP3    H254545   0.861   5.035  12.553 -0.5342  2.1086 -0.7491
11044TIP3   OH254546   2.614   2.046  11.741 -0.1841  0.2448 -0.0607
11044TIP3    H154547   2.570   1.963  11.761 -2.0598  0.6277 -2.1803
11044TIP3    H254548   2.561   2.112  11.785  1.3451  0.3807  1.6795
11045TIP3   OH254549   5.432   5.643   5.765  0.1944 -0.0685 -0.1112
11045TIP3    H154550   5.408   5.646   5.858  0.8067  0.6770  0.0335
11045TIP3    H254551   5.525   5.665   5.764  0.1243  0.2072 -0.9257
11046TIP3   OH254552   5.818   0.785  14.965 -0.1198  0.6445 -0.0140
11046TIP3    H154553   5.815   0.881  14.962 -0.7708  0.6552  0.7962
11046TIP3    H254554   5.848   0.765  15.054  0.0856  0.0919 -0.2055
11047TIP3   OH254555   5.046   2.150   5.345 -0.2195 -0.5156  0.4724
11047TIP3    H154556   5.071   2.068   5.301 -1.0621  0.0214 -1.0862
11047TIP3    H254557   5.127   2.200   5.350 -0.2394 -0.2575 -1.2611
11048TIP3   OH254558   5.812   0.418   4.989 -0.2364  0.1505  0.1331
11048TIP3    H154559   5.722   0.409   4.957 -0.5156  0.4609  0.7908
11048TIP3    H254560   5.806   0.390   5.081 -0.0648  1.9946  0.7345
11049TIP3   OH254561   4.468   6.208  13.774 -0.4463 -0.5123 -0.1966
11049TIP3    H154562   4.464   6.237  13.865 -0.6073 -0.1263 -0.3221
11049TIP3    H254563   4.560   6.191  13.758 -0.1764  1.0037 -0.4357
11050TIP3   OH254564   5.397   4.094  14.983  0.4831  0.7045  0.2738
11050TIP3    H154565   5.474   4.097  14.927  0.1984  1.1966 -0.0938
11050TIP3    H254566   5.355   4.179  14.973  0.0422  0.5499  0.6911
11051TIP3   OH254567   0.364   2.531  14.701  0.1616 -0.0897  0.9109
11051TIP3    H154568   0.423   2.602  14.674  1.0926 -1.2063 -0.0511
11051TIP3    H254569   0.412   2.451  14.681 -2.2406 -1.1006 -1.3207
11052TIP3   OH254570   1.961   4.657  11.757  0.3995  0.2009 -0.3709
11052TIP3    H154571   1.917   4.583  11.797  0.9437 -0.3376 -0.7516
11052TIP3    H254572   1.934   4.733  11.809  0.0367 -0.2987  0.1710
11053TIP3   OH254573   2.950   0.470  13.921 -0.4283  0.8471  0.0336
11053TIP3    H154574   2.922   0.552  13.880 -0.8240  1.5591  1.6312
11053TIP3    H254575   3.040   0.487  13.949 -0.6472  0.8999  0.7267
11054TIP3   OH254576   4.922   1.927   1.604 -0.2590  0.6239 -0.1464
11054TIP3    H154577   4.998   1.875   1.630  0.7956  1.4516 -1.4172
11054TIP3    H254578   4.846   1.876   1.633  0.7697  0.2198  2.0027
11055TIP3   OH254579   3.405   6.005  14.811  0.0526 -0.0223  0.0500
11055TIP3    H154580   3.409   6.090  14.855 -0.7224  0.4638 -0.7811
11055TIP3    H254581   3.368   6.024  14.725  0.6898 -1.0786 -0.4856
11056TIP3   OH254582   5.373   5.464   0.990  0.7708 -0.0937 -0.0547
11056TIP3    H154583   5.438   5.425   0.932  1.3053  0.2832  0.2784
11056TIP3    H254584   5.306   5.499   0.931  0.5499 -1.0233 -0.3776
11057TIP3   OH254585   3.761   5.843   3.614  0.4444  0.1705  0.0848
11057TIP3    H154586   3.799   5.786   3.681  0.4147  1.2188  1.0077
11057TIP3    H254587   3.824   5.839   3.542  0.5961 -0.7785  0.2458
11058TIP3   OH254588   2.872   3.200   2.988  0.2834  0.2277  0.0855
11058TIP3    H154589   2.916   3.199   3.073 -1.4761  0.2586  1.0286
11058TIP3    H254590   2.939   3.232   2.927  1.5664  0.2295  1.4431
11059TIP3   OH254591   1.488   6.683   4.187  0.3042 -0.2583  0.4581
11059TIP3    H154592   1.520   6.765   4.151  0.8923 -0.1992  1.1061
11059TIP3    H254593   1.392   6.691   4.182  0.3636  0.2200 -0.0097
11060TIP3   OH254594   1.027   1.158  11.900 -0.1037 -0.1130 -0.1751
11060TIP3    H154595   1.028   1.065  11.926 -0.7401 -0.5062 -1.4645
11060TIP3    H254596   1.024   1.206  11.983  0.8173 -1.2190  0.5390
11061TIP3   OH254597   0.369   5.222   0.783  0.0311 -0.6823  0.2947
11061TIP3    H154598   0.439   5.255   0.840  0.7141 -0.7233 -0.4989
11061TIP3    H254599   0.375   5.275   0.704 -0.1549 -1.3674 -0.1947
11062TIP3   OH254600   2.252   1.954  15.253 -0.1984  0.4680 -0.3951
11062TIP3    H154601   2.323   1.908  15.298  0.1781  0.7001 -0.7357
11062TIP3    H254602   2.181   1.891  15.248 -0.7359  0.8468  1.6643
11063TIP3   OH254603   6.508   1.941  15.070  0.3267  0.1941 -0.4349
11063TIP3    H154604   6.416   1.938  15.047  0.3896  1.7207 -1.0043
11063TIP3    H254605   6.520   2.025  15.114  1.1911 -0.5684  0.8810
11064TIP3   OH254606   1.922   4.121  13.415  0.0743 -0.1916 -0.1861
11064TIP3    H154607   1.873   4.064  13.474  2.6853  0.9846  3.4553
11064TIP3    H254608   2.003   4.073  13.396 -0.8676 -0.7493 -3.4525
11065TIP3   OH254609   2.694   5.838  14.993 -0.1023 -0.5005  0.2282
11065TIP3    H154610   2.632   5.765  14.986  0.5566 -1.0329 -0.3291
11065TIP3    H254611   2.689   5.882  14.908  1.2178 -1.3502 -0.3277
11066TIP3   OH254612   0.448   0.974  14.099 -0.5143  0.1670  0.5146
11066TIP3    H154613   0.357   0.986  14.072 -0.6483  1.3635  1.4161
11066TIP3    H254614   0.485   1.063  14.100  0.9641 -0.3760 -0.7935
11067TIP3   OH254615   4.001   3.432   5.021 -0.5329  0.0063 -0.6927
11067TIP3    H154616   4.084   3.465   4.987 -0.0009 -0.3300  0.2397
11067TIP3    H254617   3.986   3.484   5.100 -0.8745 -0.3734 -0.5052
11068TIP3   OH254618   1.758   0.794  13.044 -0.6078 -0.2202 -0.3806
11068TIP3    H154619   1.726   0.764  13.129 -0.7586 -1.6584 -0.9120
11068TIP3    H254620   1.837   0.742  13.029  0.1739  0.9719 -0.5448
11069TIP3   OH254621   1.949   5.113  13.807  0.1047  0.3619  0.0607
11069TIP3    H154622   1.951   5.075  13.719 -0.8248 -0.6169  0.4390
11069TIP3    H254623   1.960   5.207  13.793  0.2303  0.1863 -1.0801
11070TIP3   OH254624   0.599   6.600  11.884 -0.4992  0.0512  0.0707
11070TIP3    H154625   0.572   6.556  11.964 -2.1504  2.0562  0.6928
11070TIP3    H254626   0.677   6.649  11.908  0.8877 -1.7881 -0.4305
11071TIP3   OH254627   6.512   2.812   0.692  0.0181  0.7789 -0.3079
11071TIP3    H154628   6.487   2.720   0.683  0.2750  0.7531 -0.7980
11071TIP3    H254629   6.583   2.811   0.757 -1.0160  0.8228  0.8696
11072TIP3   OH254630   4.226   5.303  10.880 -0.0773  0.2383 -0.5540
11072TIP3    H154631   4.223   5.281  10.787 -0.6266  1.0312 -0.7260
11072TIP3    H254632   4.301   5.362  10.889 -0.4581  0.7408 -0.6259
11073TIP3   OH254633   2.192   6.176  17.017 -0.2867 -0.3198  0.5106
11073TIP3    H154634   2.167   6.204  17.106  2.5181 -1.2213  1.6965
11073TIP3    H254635   2.262   6.112  17.031 -1.0832 -1.9770 -2.3479
11074TIP3   OH254636   1.888   2.765   1.177  0.4128  0.4222  0.1445
11074TIP3    H154637   1.912   2.857   1.172 -0.2926  0.5543 -1.3687
11074TIP3    H254638   1.794   2.765   1.196  0.7001 -0.0406  1.7851
11075TIP3   OH254639   6.554   4.728  12.006 -0.4666 -0.9686 -0.7399
11075TIP3    H154640   6.600   4.715  12.088  0.2378  0.7829 -0.8054
11075TIP3    H254641   6.468   4.689  12.020 -0.4038 -0.5841  0.8932
11076TIP3   OH254642   2.940   4.697  15.916  0.3094  0.1509 -0.6143
11076TIP3    H154643   2.990   4.685  15.997 -2.3326  1.8431  1.4495
11076TIP3    H254644   2.973   4.778  15.879  0.6620  0.0364 -0.5605
11077TIP3   OH254645   3.217   4.187  14.510 -0.2459  0.0015  0.2786
11077TIP3    H154646   3.155   4.121  14.539 -0.1139 -0.2261  0.0522
11077TIP3    H254647   3.280   4.139  14.456 -0.5805  0.4401 -0.5228
11078TIP3   OH254648   0.542   6.515  16.580  0.3570 -0.1939  0.0710
11078TIP3    H154649   0.536   6.598  16.533  0.0610 -0.3621 -0.1869
11078TIP3    H254650   0.472   6.462  16.544 -0.8308  0.1819  1.7442
11079TIP3   OH254651   3.291   5.870   6.155 -0.3273  0.1707 -0.3464
11079TIP3    H154652   3.386   5.881   6.151 -0.4400  0.8669 -1.4507
11079TIP3    H254653   3.268   5.894   6.244  0.7958 -2.3438  0.7201
11080TIP3   OH254654   4.576   2.627  13.819 -0.3522 -0.2173  0.1488
11080TIP3    H154655   4.650   2.616  13.879  0.5535 -0.1330 -0.9310
11080TIP3    H254656   4.540   2.713  13.841  1.3197  0.7886 -0.8347
11081TIP3   OH254657   2.580   2.883  16.813  0.1779  0.3417  0.2601
11081TIP3    H154658   2.593   2.795  16.848  1.4869 -0.0206 -1.0208
11081TIP3    H254659   2.510   2.873  16.749  1.3695 -0.1493 -1.0233
11082TIP3   OH254660   5.025   4.965  16.836 -0.4481  0.4539 -0.2799
11082TIP3    H154661   4.935   4.997  16.829 -0.7830 -0.7758 -2.2023
11082TIP3    H254662   5.031   4.896  16.770  1.9775  0.6625 -0.3497
11083TIP3   OH254663   1.219   1.616   1.820  0.2454 -0.0322 -0.6493
11083TIP3    H154664   1.212   1.525   1.789  2.5859  0.1336 -1.8923
11083TIP3    H254665   1.232   1.608   1.914 -0.5002 -0.9327 -0.6116
11084TIP3   OH254666   1.564   0.878   3.370 -0.1042  0.4754  0.0670
11084TIP3    H154667   1.603   0.914   3.449 -2.8248 -1.3033  2.4059
11084TIP3    H254668   1.474   0.910   3.370 -1.0607 -1.9608 -0.5833
11085TIP3   OH254669   5.583   0.027  12.666 -0.1183 -0.5083 -0.2838
11085TIP3    H154670   5.558   0.018  12.574  1.5699 -3.1839 -0.5713
11085TIP3    H254671   5.637   0.107  12.668 -0.8614  0.0494 -1.4016
11086TIP3   OH254672   4.076   6.228  13.905  0.1278 -0.1988 -0.0548
11086TIP3    H154673   4.092   6.322  13.897 -0.7197  0.0268  0.7994
11086TIP3    H254674   3.981   6.220  13.909  0.2385 -0.8857  2.1119
11087TIP3   OH254675   5.476   6.193   2.752  0.0177 -0.3238 -0.2018
11087TIP3    H154676   5.524   6.134   2.694  1.6174 -0.0651  0.8043
11087TIP3    H254677   5.432   6.254   2.692  0.6110 -0.8198 -1.1705
11088TIP3   OH254678   1.107   2.322   1.939 -0.0354 -0.3151 -0.3865
11088TIP3    H154679   1.117   2.239   1.893  0.4652 -1.1952  1.2137
11088TIP3    H254680   1.187   2.370   1.920  0.1257 -0.6269 -0.5031
11089TIP3   OH254681   3.610   2.583   3.682  0.3359 -0.1273 -0.0201
11089TIP3    H154682   3.641   2.673   3.680 -2.2762  0.8188 -0.9932
11089TIP3    H254683   3.542   2.582   3.749  1.6805 -1.9362  1.4462
11090TIP3   OH254684   2.494   4.543   0.806  0.3715 -0.4316 -0.2227
11090TIP3    H154685   2.470   4.529   0.897  0.3363 -1.5205 -0.3883
11090TIP3    H254686   2.435   4.613   0.776  0.4415 -0.0086  0.5991
11091TIP3   OH254687   3.776   3.558  16.014 -0.0693 -0.0822 -0.5137
11091TIP3    H154688   3.800   3.493  15.948 -0.0405  1.6509 -2.2679
11091TIP3    H254689   3.859   3.599  16.038  0.0244 -1.1566  1.1879
11092TIP3   OH254690   3.674   4.945  14.398 -0.1766  0.0168  0.6281
11092TIP3    H154691   3.669   4.989  14.313  0.7068 -0.7825  0.1532
11092TIP3    H254692   3.602   4.983  14.448 -0.4798  0.7710 -0.3442
11093TIP3   OH254693   2.094   2.835  16.753  0.5232  0.6932 -0.6780
11093TIP3    H154694   2.093   2.792  16.838  1.5271 -0.3955 -1.1731
11093TIP3    H254695   2.051   2.919  16.767 -2.1285 -0.6929  0.2149
11094TIP3   OH254696   3.169   0.218  12.330 -0.1295 -0.1573  0.0205
11094TIP3    H154697   3.093   0.209  12.387 -0.0480 -0.3163  0.1040
11094TIP3    H254698   3.160   0.305  12.291 -0.0650  0.0397  0.4454
11095TIP3   OH254699   5.176   5.304   1.444  0.3046  0.1128  0.0996
11095TIP3    H154700   5.215   5.345   1.367  0.1773 -0.0836 -0.0715
11095TIP3    H254701   5.088   5.342   1.450  0.3980  0.3041  0.2881
11096TIP3   OH254702   6.649   5.731  13.224  0.1102 -0.0186  0.3015
11096TIP3    H154703   6.556   5.711  13.237 -0.7858  2.2614 -1.7803
11096TIP3    H254704   6.685   5.652  13.184 -1.2658 -0.4813 -0.0898
11097TIP3   OH254705   4.785   5.471  15.815 -0.0049  0.4211 -0.3334
11097TIP3    H154706   4.815   5.555  15.782  1.6193  0.3419  0.8018
11097TIP3    H254707   4.771   5.486  15.909  1.0410 -0.7378  0.0327
11098TIP3   OH254708   1.965   1.827  16.141 -0.2884  0.2330  0.0025
11098TIP3    H154709   2.056   1.841  16.166 -0.2717 -0.0967  0.1285
11098TIP3    H254710   1.958   1.864  16.053 -0.7456  2.9151  1.0617
11099TIP3   OH254711   6.317   4.404   0.270  0.2274  0.0039  1.1007
11099TIP3    H154712   6.410   4.405   0.291 -0.0063 -1.1414  2.3781
11099TIP3    H254713   6.287   4.493   0.288  1.6188  1.3039 -2.3057
11100TIP3   OH254714   0.513   4.209   3.846 -0.0037 -0.2541  0.2111
11100TIP3    H154715   0.456   4.247   3.913 -1.4162  0.1190 -1.1458
11100TIP3    H254716   0.545   4.128   3.886  0.1581  0.5477  1.7754
11101TIP3   OH254717   4.611   1.237  15.622  0.0408  0.6000 -0.1364
11101TIP3    H154718   4.679   1.176  15.591  1.0325  2.1300 -1.1281
11101TIP3    H254719   4.529   1.200  15.590  0.7693  0.5452 -2.1075
11102TIP3   OH254720   3.283   6.516   3.587 -1.3158  0.1996 -0.4183
11102TIP3    H154721   3.194   6.487   3.568 -0.3304 -4.2259  0.4919
11102TIP3    H254722   3.337   6.465   3.527  0.7138  2.2249 -0.4462
11103TIP3   OH254723   0.693   1.194   2.840  0.0987  0.0327 -0.2658
11103TIP3    H154724   0.665   1.208   2.931 -0.7082 -1.2534 -0.2982
11103TIP3    H254725   0.789   1.194   2.844  0.0739  0.4169  0.5068
11104TIP3   OH254726   0.680   1.516   0.999  0.4696 -0.2824 -1.6604
11104TIP3    H154727   0.619   1.586   1.023  0.1780 -0.0250 -3.0690
11104TIP3    H254728   0.708   1.479   1.083 -1.0398  0.0817 -0.9499
11105TIP3   OH254729   2.826   1.587   2.759  0.1975 -0.2734 -0.5518
11105TIP3    H154730   2.770   1.634   2.821  0.6614  0.4698 -0.6755
11105TIP3    H254731   2.828   1.644   2.681  2.7700  0.7884  0.1897
11106TIP3   OH254732   0.777   3.006  16.422 -0.5892  0.1138  0.5430
11106TIP3    H154733   0.764   3.050  16.339 -0.8339  1.5914  1.3398
11106TIP3    H254734   0.857   2.955  16.410 -0.2337  0.8716 -0.3649
11107TIP3   OH254735   2.092   3.327   4.602 -0.0688 -0.1775  0.1361
11107TIP3    H154736   2.008   3.293   4.572 -0.8380  1.0556  0.8163
11107TIP3    H254737   2.082   3.422   4.599  2.1030  0.1010 -2.0413
11108TIP3   OH254738   1.984   3.546  16.120  0.1310 -0.1754 -0.2109
11108TIP3    H154739   1.961   3.636  16.143 -0.0606 -0.2153 -0.2499
11108TIP3    H254740   2.061   3.527  16.174 -0.1077 -0.1493  0.1402
11109TIP3   OH254741   3.811   0.283  15.216 -0.6586  0.2173  0.6794
11109TIP3    H154742   3.735   0.341  15.219  0.0330  1.1577  0.4012
11109TIP3    H254743   3.850   0.299  15.130  0.0532  0.0058  0.9569
11110TIP3   OH254744   2.687   1.364  17.015  0.0208  0.1464  0.7964
11110TIP3    H154745   2.659   1.446  16.973 -2.8459  0.6320  3.2842
11110TIP3    H254746   2.771   1.385  17.056 -0.2190  1.5782  0.6124
11111TIP3   OH254747   2.774   3.175   1.806  0.2329  0.1237  0.2260
11111TIP3    H154748   2.869   3.164   1.806  0.2262  0.0658  0.2575
11111TIP3    H254749   2.760   3.264   1.774  0.3100  0.2610  0.5797
11112TIP3   OH254750   1.994   4.959   1.726  0.2988  0.4025 -0.1420
11112TIP3    H154751   2.075   5.005   1.749 -0.1023  0.9034  0.3041
11112TIP3    H254752   1.994   4.956   1.630  1.9487 -1.6123 -0.1457
11113TIP3   OH254753   5.475   5.179   4.211  0.0359 -0.0578 -0.7001
11113TIP3    H154754   5.533   5.116   4.254  0.3178  1.2157  0.8756
11113TIP3    H254755   5.395   5.129   4.193 -0.4329 -0.4640  2.1278
11114TIP3   OH254756   5.865   6.424  14.344 -0.0931 -0.6219  0.1191
11114TIP3    H154757   5.850   6.396  14.253 -0.0004  1.0578 -0.4492
11114TIP3    H254758   5.911   6.350  14.384  0.6080 -1.0789 -1.4322
11115TIP3   OH254759   5.641   6.284  13.216  0.0254  0.4144  0.0365
11115TIP3    H154760   5.606   6.310  13.131  0.2731  0.3074 -0.1010
11115TIP3    H254761   5.717   6.340  13.229 -0.7903  1.3734  0.8096
11116TIP3   OH254762   3.426   1.821  13.101  0.0612 -0.4160 -0.0695
11116TIP3    H154763   3.430   1.851  13.010  2.4475  0.6754  0.3256
11116TIP3    H254764   3.336   1.790  13.112 -0.2203 -0.8122 -2.8542
11117TIP3   OH254765   0.037   6.493   2.109  0.1365  0.4841  0.0676
11117TIP3    H154766   0.116   6.534   2.144  0.5762  0.8105 -1.2383
11117TIP3    H254767  -0.035   6.529   2.162  0.8033  0.6176  0.8958
11118TIP3   OH254768   6.413   5.784   4.750 -0.0797  0.7976  0.1636
11118TIP3    H154769   6.330   5.756   4.790  0.5644 -0.0089  0.9696
11118TIP3    H254770   6.480   5.744   4.804  0.8502  1.4959 -0.4526
11119TIP3   OH254771   1.321   0.363   0.095  0.2035  0.2538  0.3700
11119TIP3    H154772   1.325   0.405   0.181 -0.7695  0.6970  0.2111
11119TIP3    H254773   1.333   0.436   0.033 -0.0187  0.0750  0.1164
11120TIP3   OH254774   0.594   5.525  14.577  0.3575 -0.4102 -0.2216
11120TIP3    H154775   0.604   5.593  14.511  1.6457  1.0560  1.3921
11120TIP3    H254776   0.542   5.566  14.646  0.7107 -1.2421  0.5627
11121TIP3   OH254777   6.467   3.382  16.655  0.3758  0.3341  0.2045
11121TIP3    H154778   6.495   3.296  16.624 -0.1876 -0.1119  0.9049
11121TIP3    H254779   6.401   3.410  16.592 -0.8151 -0.5996  0.9899
11122TIP3   OH254780   0.303   1.731  14.043  0.6221  0.4505 -0.4195
11122TIP3    H154781   0.334   1.644  14.070 -1.2883  0.5233  2.4742
11122TIP3    H254782   0.237   1.713  13.976  0.9845 -0.2799 -0.5900
11123TIP3   OH254783   2.262   1.229  11.655  0.6043  0.2905  0.1493
11123TIP3    H154784   2.302   1.313  11.633  1.9198 -0.5198 -0.7010
11123TIP3    H254785   2.301   1.204  11.738 -0.3843  0.8735  0.8036
11124TIP3   OH254786   3.888   4.134  16.969 -0.7064  0.2860 -0.0102
11124TIP3    H154787   3.796   4.120  16.995 -0.6235 -3.8174 -1.3541
11124TIP3    H254788   3.891   4.109  16.877  1.9623 -0.7844  0.2939
11125TIP3   OH254789   1.435   4.465   5.410 -0.4861  0.3847 -0.1600
11125TIP3    H154790   1.504   4.406   5.439  0.5993  0.6312 -2.0650
11125TIP3    H254791   1.455   4.549   5.451  0.5203  0.5127 -0.8867
11126TIP3   OH254792   3.216   6.429   5.854 -0.6320 -0.0522  0.1122
11126TIP3    H154793   3.149   6.437   5.922  1.5728  1.4241  2.2856
11126TIP3    H254794   3.298   6.421   5.902  0.9281 -0.4786 -2.4202
11127TIP3   OH254795   0.782   3.612   0.070 -0.0231 -0.2126  0.2211
11127TIP3    H154796   0.853   3.671   0.044 -0.3714  0.2870  0.3819
11127TIP3    H254797   0.748   3.650   0.152  0.9701 -1.6726  1.3723
11128TIP3   OH254798   6.362   6.597  14.827  0.4911  0.2799 -0.3421
11128TIP3    H154799   6.281   6.619  14.780 -0.0298  1.9240  1.1802
11128TIP3    H254800   6.355   6.503  14.843 -0.9528  0.3124 -0.5785
11129TIP3   OH254801   0.561   2.011  12.451 -0.0956 -0.2271  0.3284
11129TIP3    H154802   0.603   1.938  12.498 -0.5383 -0.4627  0.3592
11129TIP3    H254803   0.474   1.979  12.428  0.6004 -0.6487 -1.9510
11130TIP3   OH254804   6.225   6.372  15.611 -0.1852  0.1560 -0.0274
11130TIP3    H154805   6.235   6.465  15.632  0.8107 -0.5937  3.5320
11130TIP3    H254806   6.306   6.332  15.644 -1.1331 -2.1307 -0.3170
11131TIP3   OH254807   4.778   4.095  16.723 -0.7779 -0.0856  0.3502
11131TIP3    H154808   4.810   4.081  16.812 -1.7001  0.4246  0.7736
11131TIP3    H254809   4.834   4.163  16.687  0.3303 -1.0737  0.1225
11132TIP3   OH254810   4.033   1.006  15.848  0.5899 -0.2257  0.1000
11132TIP3    H154811   4.049   0.996  15.754  1.0831 -0.8149  0.2424
11132TIP3    H254812   3.954   0.955  15.864  0.2785  0.1961 -0.0587
11133TIP3   OH254813   6.503   6.507  12.928 -0.3391  0.0489  0.0504
11133TIP3    H154814   6.435   6.456  12.971 -2.0099 -1.0969 -3.5958
11133TIP3    H254815   6.479   6.598  12.945 -2.2321 -0.3466 -0.3375
11134TIP3   OH254816   3.957   1.099  14.823 -0.4294  0.3985  0.1326
11134TIP3    H154817   3.990   1.188  14.810  0.2150  0.0012 -1.1106
11134TIP3    H254818   3.986   1.051  14.745 -1.3161 -0.7428  0.4780
11135TIP3   OH254819   6.381   2.967   5.392 -0.0408 -0.4720 -0.1148
11135TIP3    H154820   6.409   2.918   5.469  0.0660  0.2850  0.3364
11135TIP3    H254821   6.461   3.009   5.360 -0.0712 -0.8369 -0.6838
11136TIP3   OH254822   2.078   4.064  14.606  0.4807  0.8334 -0.9021
11136TIP3    H154823   2.173   4.049  14.600  0.8425  2.6696 -0.3205
11136TIP3    H254824   2.054   4.031  14.693  1.5665  4.6361  1.0558
11137TIP3   OH254825   0.617   6.303  14.396  0.6584  0.1273 -0.1116
11137TIP3    H154826   0.633   6.294  14.490 -0.3543 -0.8235 -0.0043
11137TIP3    H254827   0.700   6.279  14.355  1.0811  0.4732  0.5332
11138TIP3   OH254828   0.590   4.482   0.491 -0.2597  0.5699 -0.0631
11138TIP3    H154829   0.527   4.421   0.454 -1.5436  0.7101  1.7717
11138TIP3    H254830   0.633   4.433   0.561  0.1271  1.1672  0.1309
11139TIP3   OH254831   3.951   1.945  15.663  0.4471 -0.0704  0.5525
11139TIP3    H154832   3.944   1.947  15.758 -2.2209  0.1135  0.4139
11139TIP3    H254833   3.899   1.869  15.636 -0.6604  1.1419 -0.8559
11140TIP3   OH254834   2.098   1.244   0.773 -0.3170  0.3653 -0.1053
11140TIP3    H154835   2.169   1.183   0.793 -0.5802 -0.2617 -0.9909
11140TIP3    H254836   2.021   1.187   0.761 -0.7058  0.9311 -0.3301
11141TIP3   OH254837   5.406   4.455  15.944  0.2683  0.2418 -0.2120
11141TIP3    H154838   5.437   4.497  15.864 -0.1516  0.1508 -0.4307
11141TIP3    H254839   5.482   4.451  16.001  0.2559  1.5722 -0.0673
11142TIP3   OH254840   0.848   3.067  14.106 -0.2722  0.3673  0.6998
11142TIP3    H154841   0.893   3.016  14.040 -1.1193 -2.1188  1.9005
11142TIP3    H254842   0.755   3.052  14.089 -0.6919  3.3584 -0.2105
11143TIP3   OH254843   2.537   4.261   3.705  0.5136  0.4997  0.2561
11143TIP3    H154844   2.459   4.207   3.714  0.2623  0.3538 -2.1250
11143TIP3    H254845   2.541   4.283   3.611  1.8718  2.6973  0.7341
11144TIP3   OH254846   4.535   6.443  12.276 -0.0080 -0.0487 -0.1321
11144TIP3    H154847   4.526   6.435  12.181  2.8012  0.8024 -0.5556
11144TIP3    H254848   4.617   6.491  12.289 -0.3171 -0.1008  2.7368
11145TIP3   OH254849   2.256   6.031   4.093  0.4235  0.2882  0.1346
11145TIP3    H154850   2.202   6.093   4.043 -0.0535  0.0124  0.3062
11145TIP3    H254851   2.340   6.076   4.103  1.2718 -0.4559 -2.7303
11146TIP3   OH254852   3.821   5.400   6.048  0.2959 -0.5489  0.2040
11146TIP3    H154853   3.852   5.321   6.005 -0.0985 -0.2560 -0.6255
11146TIP3    H254854   3.726   5.391   6.053  0.2893 -0.3378  0.5255
11147TIP3   OH254855   0.307   0.711  11.970  0.6840  0.0356 -0.2798
11147TIP3    H154856   0.391   0.756  11.965  1.2705 -0.9886 -0.0683
11147TIP3    H254857   0.276   0.728  12.059 -0.0033  1.5331 -0.7787
11148TIP3   OH254858   1.328   1.315  11.839 -0.3017 -0.0256  0.4228
11148TIP3    H154859   1.335   1.331  11.745 -1.0158  0.2082  0.4081
11148TIP3    H254860   1.295   1.226  11.847  0.6385 -0.3864  0.4730
11149TIP3   OH254861   2.539   6.526   1.126 -0.1112  0.2661 -0.3457
11149TIP3    H154862   2.561   6.618   1.110 -0.9635  0.7900  1.2501
11149TIP3    H254863   2.496   6.527   1.211 -1.7349 -1.3760 -1.0918
11150TIP3   OH254864   5.337   5.957  13.304 -0.2113 -0.5540  0.4973
11150TIP3    H154865   5.400   5.999  13.362  0.6289 -1.3962  0.2105
11150TIP3    H254866   5.309   6.027  13.245 -0.6397  0.1681  1.5291
11151TIP3   OH254867   0.168   3.101   1.868  0.0254 -0.0090  0.1766
11151TIP3    H154868   0.176   3.084   1.961 -2.1026  3.6401  1.2209
11151TIP3    H254869   0.218   3.031   1.826  0.2203 -2.3839  3.9447
11152TIP3   OH254870   3.796   0.631  10.420  0.3332  0.3573  0.3678
11152TIP3    H154871   3.831   0.576  10.350  0.6864  0.0991  0.7405
11152TIP3    H254872   3.852   0.709  10.421 -0.0089  0.6094  0.0081
11153TIP3   OH254873   6.465   6.725  10.845  0.1809 -0.0847  0.2776
11153TIP3    H154874   6.440   6.684  10.927  0.1882 -1.7666 -0.5236
11153TIP3    H254875   6.406   6.687  10.780 -0.8988  2.3766 -0.3160
11154TIP3   OH254876   5.987   1.270  11.401  0.1892 -0.3766  0.4214
11154TIP3    H154877   6.070   1.287  11.444  0.9771 -1.3910 -0.6249
11154TIP3    H254878   6.011   1.246  11.311 -1.3817  1.7769 -0.6637
11155TIP3   OH254879   6.032   5.899  12.752 -0.8483 -0.0997 -0.1251
11155TIP3    H154880   5.939   5.892  12.733 -0.7505  0.1880 -0.7413
11155TIP3    H254881   6.056   5.988  12.726 -0.3633 -0.2348 -0.1668
11156TIP3   OH254882   6.543   0.634   0.592 -0.0152 -0.6950 -0.1162
11156TIP3    H154883   6.449   0.623   0.582  0.2083 -3.0339 -0.2153
11156TIP3    H254884   6.564   0.590   0.675  1.0364 -0.6350 -0.3328
11157TIP3   OH254885   4.111   3.106  15.096  0.5201  0.4586  0.0577
11157TIP3    H154886   4.027   3.119  15.141 -0.2311 -0.0422 -1.1467
11157TIP3    H254887   4.097   3.143  15.009  0.8170 -1.5377 -0.8827
11158TIP3   OH254888   0.227   3.518   0.658  0.3188  0.1641  0.9764
11158TIP3    H154889   0.162   3.537   0.726 -0.2047  0.0906  0.5060
11158TIP3    H254890   0.216   3.588   0.594  0.0831 -0.3347  0.4587
11159TIP3   OH254891   5.588   1.996   4.254  0.0414  0.2792 -0.5468
11159TIP3    H154892   5.553   1.950   4.178 -0.9528 -1.4008  0.8349
11159TIP3    H254893   5.511   2.035   4.297 -0.3019 -2.9195  2.1808
11160TIP3   OH254894   2.847   4.580   2.879  0.0457  0.5686 -0.2376
11160TIP3    H154895   2.898   4.500   2.872  0.6427  0.9748 -0.6593
11160TIP3    H254896   2.889   4.641   2.818 -0.3659  1.2164  0.1096
11161TIP3   OH254897   1.088   0.580   0.453 -0.1342 -0.2847  0.1629
11161TIP3    H154898   1.027   0.565   0.381  0.2687  0.7568 -0.4199
11161TIP3    H254899   1.166   0.530   0.430 -0.3954 -0.7990  0.4003
11162TIP3   OH254900   2.372   3.404   2.928 -0.2385  0.4830 -0.2809
11162TIP3    H154901   2.465   3.390   2.947  0.3689  2.0741 -1.8680
11162TIP3    H254902   2.342   3.322   2.890  0.8396  0.3677 -0.8889
11163TIP3   OH254903   3.727   5.310  10.822  0.1579  0.6589 -0.4300
11163TIP3    H154904   3.709   5.357  10.741  0.3137  2.2778  0.4472
11163TIP3    H254905   3.808   5.348  10.855 -0.5896  0.9721  1.1468
11164TIP3   OH254906   0.737   0.676  12.160 -0.1257 -0.1169  0.0787
11164TIP3    H154907   0.690   0.593  12.153  0.1153 -0.2538  0.0651
11164TIP3    H254908   0.732   0.699  12.253 -0.8990  0.2727 -0.0497
11165TIP3   OH254909   4.870   2.696   4.022 -0.0574 -0.4774 -0.3063
11165TIP3    H154910   4.833   2.722   4.106 -1.8031  0.0501 -1.1883
11165TIP3    H254911   4.964   2.691   4.038 -0.2368  0.6868  1.3950
11166TIP3   OH254912   1.066   2.196  16.293 -0.1204  0.0779 -0.1386
11166TIP3    H154913   1.123   2.168  16.221  0.3869 -1.1486  0.6977
11166TIP3    H254914   1.073   2.291  16.294 -0.0433  0.1075 -1.6235
11167TIP3   OH254915   0.088   5.394  11.490 -0.3055 -0.4188  0.2132
11167TIP3    H154916   0.012   5.396  11.431 -0.8394 -0.2478  0.8893
11167TIP3    H254917   0.080   5.310  11.536  0.0359 -0.4939  0.1352
11168TIP3   OH254918   1.755   0.453  15.713 -0.2168  0.0984 -0.4287
11168TIP3    H154919   1.764   0.419  15.624  1.3022  0.1695 -0.3240
11168TIP3    H254920   1.735   0.376  15.766 -0.4847 -0.0425 -0.7283
11169TIP3   OH254921   5.259   3.850   4.765  0.4366  0.1896 -0.0298
11169TIP3    H154922   5.297   3.763   4.751  0.3869  0.1657 -0.0147
11169TIP3    H254923   5.165   3.835   4.773  0.6256 -0.1664  2.9523
11170TIP3   OH254924   0.027   1.207   3.009 -0.0187 -0.1871  0.0729
11170TIP3    H154925   0.042   1.134   3.068 -0.4197 -0.7352 -0.4807
11170TIP3    H254926   0.030   1.167   2.921 -2.2652  0.0450 -0.1820
11171TIP3   OH254927   4.328   1.680   6.410  0.3944  1.3928 -0.0307
11171TIP3    H154928   4.291   1.647   6.491  0.8340  0.6043 -0.1384
11171TIP3    H254929   4.423   1.683   6.426  0.7176 -0.7141 -1.1501
11172TIP3   OH254930   5.639   6.159   4.372 -0.5214  0.3950  0.0722
11172TIP3    H154931   5.587   6.169   4.293 -1.7812 -1.1230  0.6416
11172TIP3    H254932   5.725   6.132   4.341 -0.8228  0.4149 -0.8099
11173TIP3   OH254933   5.228   0.861   2.359 -0.0577  0.2773 -0.6757
11173TIP3    H154934   5.151   0.867   2.303 -0.3142  0.6420 -0.2939
11173TIP3    H254935   5.229   0.770   2.389  0.1564  0.0476 -1.3703
11174TIP3   OH254936   3.806   2.918  16.623 -0.0150  0.1296  0.1080
11174TIP3    H154937   3.836   2.907  16.713  1.4980  1.4626 -0.1836
11174TIP3    H254938   3.787   3.011  16.615  0.1273  0.0805 -1.0081
11175TIP3   OH254939   2.721   2.644  15.253  0.0942 -0.3546  0.3604
11175TIP3    H154940   2.808   2.672  15.283  0.9207 -0.5143 -1.6904
11175TIP3    H254941   2.730   2.638  15.157 -2.2395 -0.2280  0.0845
11176TIP3   OH254942   6.273   2.210  16.438 -0.3320  0.3063  0.1811
11176TIP3    H154943   6.267   2.194  16.344 -0.2647 -2.3830  0.5606
11176TIP3    H254944   6.288   2.123  16.476  0.0166  1.3776  2.6496
11177TIP3   OH254945   6.797   0.101  13.674  0.3028 -0.6369  0.2450
11177TIP3    H154946   6.852   0.147  13.736  0.6779  0.4306 -0.8468
11177TIP3    H254947   6.710   0.141  13.684  0.3535 -0.4947  0.1205
11178TIP3   OH254948   3.190   4.814  12.699 -0.0425 -0.6914  0.0875
11178TIP3    H154949   3.253   4.780  12.635  0.1209 -1.1834  0.5009
11178TIP3    H254950   3.213   4.907  12.707  1.5280 -1.1245  1.2069
11179TIP3   OH254951   4.634   2.885  14.725 -0.0288  0.1097  0.2369
11179TIP3    H154952   4.617   2.829  14.650 -0.3247  1.0122 -0.3889
11179TIP3    H254953   4.661   2.825  14.794  0.4212 -0.7256 -0.6362
11180TIP3   OH254954   1.636   0.501   2.392 -0.1850  0.0697 -0.0298
11180TIP3    H154955   1.723   0.536   2.374  0.4586 -2.0328 -1.4868
11180TIP3    H254956   1.617   0.444   2.317 -3.0128  0.7661  0.0396
11181TIP3   OH254957   1.334   0.425   3.688  0.4459  0.2927  0.1695
11181TIP3    H154958   1.349   0.519   3.696 -1.2152  0.5926  0.0387
11181TIP3    H254959   1.405   0.394   3.631 -0.9055  2.0894 -2.7465
11182TIP3   OH254960   3.126   3.104   6.016  0.2769  0.4144  0.0178
11182TIP3    H154961   3.168   3.186   6.041  0.8796  0.2767 -0.5052
11182TIP3    H254962   3.128   3.105   5.920 -1.7112  0.8014 -0.0507
11183TIP3   OH254963   2.432   2.619  12.115 -0.0936  0.3569 -0.3931
11183TIP3    H154964   2.525   2.608  12.094 -0.3677 -0.5380 -1.2475
11183TIP3    H254965   2.414   2.710  12.095  0.3124  0.2145 -1.5088
11184TIP3   OH254966   0.075   0.056  14.270 -0.9313 -0.0539  0.4641
11184TIP3    H154967   0.035   0.132  14.228 -0.4585 -0.5261 -0.8688
11184TIP3    H254968   0.013  -0.015  14.255  0.0191 -0.6201 -0.9733
11185TIP3   OH254969   1.545   3.046  12.502  0.4948 -0.7561  0.0148
11185TIP3    H154970   1.601   3.116  12.470  1.3585 -1.3352  0.2388
11185TIP3    H254971   1.565   3.039  12.595 -0.6766 -0.3115  0.3252
11186TIP3   OH254972   4.462   1.705  15.943  0.7967 -0.5128  0.2108
11186TIP3    H154973   4.435   1.616  15.963 -0.8484 -0.3373 -0.9934
11186TIP3    H254974   4.558   1.701  15.940  0.7437 -2.6869 -1.6446
11187TIP3   OH254975   4.937   5.399  16.532 -0.1247  0.1290  0.4787
11187TIP3    H154976   4.855   5.364  16.565  0.4672 -0.7186  1.0965
11187TIP3    H254977   4.974   5.449  16.604  0.0906  0.1681  0.3443
11188TIP3   OH254978   1.680   1.618  14.011 -0.3991  0.2981 -0.1275
11188TIP3    H154979   1.683   1.593  13.918  1.0433 -1.4898  0.3406
11188TIP3    H254980   1.772   1.634  14.033 -0.7270  0.6290  1.0225
11189TIP3   OH254981   3.756   6.060  16.894  0.6816  0.2534 -0.3377
11189TIP3    H154982   3.736   6.032  16.983 -0.2551  1.8337 -0.0141
11189TIP3    H254983   3.704   6.001  16.839  0.1711  0.1694  0.2259
11190TIP3   OH254984   3.697   1.936   2.066  0.0476 -0.1080  0.0328
11190TIP3    H154985   3.774   1.939   2.008  1.0834 -0.6312  1.3254
11190TIP3    H254986   3.637   2.000   2.029  1.1351  0.3665 -0.9876
11191TIP3   OH254987   3.046   1.670   4.796 -0.6119 -0.1612  0.1299
11191TIP3    H154988   3.083   1.708   4.876  0.3102  1.2166 -0.9150
11191TIP3    H254989   3.018   1.582   4.822 -0.8193  0.4425  2.0951
11192TIP3   OH254990   5.460   1.851   1.846  0.2727 -0.6231 -0.2501
11192TIP3    H154991   5.549   1.846   1.811  0.4771  0.0678  0.1428
11192TIP3    H254992   5.425   1.933   1.812  0.9953  0.8215  2.2322
11193TIP3   OH254993   1.585   6.807  16.051  0.4772 -0.8824  0.1537
11193TIP3    H154994   1.576   6.875  16.118 -1.3862  0.1271 -1.0286
11193TIP3    H254995   1.627   6.734  16.097 -0.0204  0.0352  2.2233
11194TIP3   OH254996   6.150   0.569   0.104 -0.0124 -0.3670  0.2257
11194TIP3    H154997   6.158   0.489   0.156 -3.2325 -0.4055  0.8745
11194TIP3    H254998   6.079   0.550   0.042 -1.4774  2.2098  0.9602
11195TIP3   OH254999   1.353   0.718   3.682 -0.0031 -0.8553 -0.4268
11195TIP3    H155000   1.319   0.753   3.600  0.3415  1.5106  0.3746
11195TIP3    H255001   1.443   0.750   3.686 -0.7059  1.1098  1.9081
11196TIP3   OH255002   1.612   2.520   3.708  0.5388 -0.6493  0.5833
11196TIP3    H155003   1.676   2.519   3.779 -0.0322  0.2110  1.1358
11196TIP3    H255004   1.610   2.612   3.680  0.6559 -0.9515 -0.4639
11197TIP3   OH255005   5.689   3.654  14.754  0.0124 -0.4423  0.7197
11197TIP3    H155006   5.738   3.736  14.746  0.1529 -0.5606  0.3268
11197TIP3    H255007   5.710   3.606  14.673 -0.1694 -0.8084  0.8878
11198TIP3   OH255008   1.237   2.811  11.907  0.2171 -0.0779  0.4713
11198TIP3    H155009   1.322   2.770  11.922 -0.3386 -0.6751  2.1685
11198TIP3    H255010   1.212   2.847  11.992 -1.0360  0.4953 -0.1118
11199TIP3   OH255011   1.367   6.342   5.433  0.0804  0.1863 -0.6954
11199TIP3    H155012   1.351   6.435   5.445  0.5807  0.0908  1.0418
11199TIP3    H255013   1.429   6.337   5.361 -1.2854  1.0593 -1.9719
11200TIP3   OH255014   3.826   1.911   6.700  0.6995 -1.2407  0.2456
11200TIP3    H155015   3.874   1.856   6.638  0.1023  1.0127 -2.4592
11200TIP3    H255016   3.814   1.994   6.654 -0.1819  0.5013  3.3038
11201TIP3   OH255017   6.462   0.976   5.071 -0.1145  0.2202 -0.0352
11201TIP3    H155018   6.527   0.980   5.141  0.6654 -1.7344 -0.5783
11201TIP3    H255019   6.505   1.016   4.996  0.9834 -2.0075 -0.6970
11202TIP3   OH255020   0.319   0.386   2.062 -0.1450 -0.0860 -0.7586
11202TIP3    H155021   0.412   0.391   2.087 -0.7851 -1.2040  2.3529
11202TIP3    H255022   0.299   0.293   2.068 -1.5944  0.2074 -0.8769
11203TIP3   OH255023   3.973   4.200  12.117 -0.1398 -0.1246  0.3344
11203TIP3    H155024   4.055   4.155  12.133 -0.6602 -0.8459  1.0846
11203TIP3    H255025   3.953   4.244  12.200 -0.0085  0.8875 -0.1562
11204TIP3   OH255026   4.657   3.708  13.145 -0.0933 -0.1755 -0.3959
11204TIP3    H155027   4.648   3.634  13.206 -0.7807  0.4618  0.2954
11204TIP3    H255028   4.660   3.667  13.059  0.3621 -1.0645  0.0217
11205TIP3   OH255029   6.237   2.714  11.530 -0.5723 -0.1159 -0.3903
11205TIP3    H155030   6.301   2.678  11.468 -0.4694  0.6934 -0.7621
11205TIP3    H255031   6.213   2.799  11.493 -2.0649 -0.5061 -0.4094
11206TIP3   OH255032   2.578   4.502   0.389  0.3945 -0.1118 -0.2206
11206TIP3    H155033   2.508   4.456   0.342  0.4429  0.7845 -1.2099
11206TIP3    H255034   2.554   4.595   0.382  0.2352  0.0521  1.8251
11207TIP3   OH255035   1.431   6.038   0.514 -0.2287  0.7287  0.1760
11207TIP3    H155036   1.377   6.116   0.504 -0.7560  0.3780  0.2907
11207TIP3    H255037   1.378   5.967   0.479 -0.2117  0.2396  1.1272
11208TIP3   OH255038   3.755   4.243  11.932  0.3750 -0.5708  0.4316
11208TIP3    H155039   3.693   4.182  11.973 -0.5642  0.5119  0.6903
11208TIP3    H255040   3.840   4.218  11.967 -0.1805 -0.8382  1.6367
11209TIP3   OH255041   2.042   6.424   3.323  0.1357  0.4782  0.6717
11209TIP3    H155042   2.084   6.506   3.296 -1.3525  1.4835  1.2690
11209TIP3    H255043   1.968   6.452   3.378 -0.5088 -1.2605  0.7514
11210TIP3   OH255044   4.590   0.072   1.360 -0.3308  0.3905 -0.0403
11210TIP3    H155045   4.627   0.066   1.272 -1.0391  2.4596 -0.5270
11210TIP3    H255046   4.558   0.162   1.367 -0.8097  0.1105  2.1387
11211TIP3   OH255047   1.252   1.554   4.937 -0.1572 -0.2958 -0.9295
11211TIP3    H155048   1.299   1.547   5.020  1.1238  0.1048 -1.6010
11211TIP3    H255049   1.181   1.616   4.955 -0.1998 -0.5988 -0.0122
11212TIP3   OH255050   3.835   4.274   4.010  0.0889  0.5525  0.1433
11212TIP3    H155051   3.871   4.304   3.927  2.0623  0.3828  0.8937
11212TIP3    H255052   3.781   4.347   4.041 -0.1777  0.8457 -0.9821
11213TIP3   OH255053   0.862   0.185   2.021 -0.3868  0.1234  0.4548
11213TIP3    H155054   0.781   0.205   1.973 -0.3045 -0.4244  0.0728
11213TIP3    H255055   0.932   0.208   1.960 -0.2909 -1.2874 -0.0024
11214TIP3   OH255056   6.798   1.844   3.626 -1.0019  0.8884 -0.2285
11214TIP3    H155057   6.834   1.875   3.709 -0.1371 -0.7166  0.0445
11214TIP3    H255058   6.762   1.758   3.647  1.8875 -0.9455 -2.0108
11215TIP3   OH255059   3.516   1.903   3.880  0.2005 -0.0907 -0.4893
11215TIP3    H155060   3.584   1.868   3.822 -0.3031 -1.5763 -0.2354
11215TIP3    H255061   3.515   1.997   3.861  0.8750 -0.3459 -2.0105
11216TIP3   OH255062   0.818   4.066   1.906  0.0259 -0.0948 -0.6982
11216TIP3    H155063   0.749   4.016   1.863 -0.0387  0.9036 -1.7989
11216TIP3    H255064   0.891   4.004   1.913  0.0164 -0.3216 -2.2256
11217TIP3   OH255065   4.193   1.507  13.641 -0.3898 -0.0173 -0.2979
11217TIP3    H155066   4.172   1.415  13.658 -1.9693  0.2189 -0.7688
11217TIP3    H255067   4.256   1.530  13.710 -1.2689 -0.9757  0.8862
11218TIP3   OH255068   6.648   3.171  15.340  0.3181 -0.2155  0.5917
11218TIP3    H155069   6.706   3.117  15.394  0.9807 -0.3473 -0.2351
11218TIP3    H255070   6.588   3.211  15.403 -1.5725 -3.4630  1.1172
11219TIP3   OH255071   6.744   2.904   4.537  0.2991 -0.3032 -0.1217
11219TIP3    H155072   6.713   2.823   4.577  0.6818 -0.9820 -1.1586
11219TIP3    H255073   6.747   2.885   4.443 -0.0935  1.0809 -0.4473
11220TIP3   OH255074   5.050   6.225  11.659 -0.0511  0.1945 -0.1945
11220TIP3    H155075   5.087   6.137  11.665  0.5085  0.1290 -2.9950
11220TIP3    H255076   4.983   6.228  11.727  0.1775 -2.2611  0.2272
11221TIP3   OH255077   5.843   1.376   3.689  0.0270 -0.1085 -0.2072
11221TIP3    H155078   5.862   1.292   3.731 -0.2032  0.5877  1.3602
11221TIP3    H255079   5.916   1.390   3.628  1.0938 -0.5526  0.9302
11222TIP3   OH255080   3.605   5.161  11.676 -0.4182 -0.4194  0.2995
11222TIP3    H155081   3.548   5.217  11.624  0.5000  1.7474  1.5324
11222TIP3    H255082   3.546   5.115  11.736 -1.2613 -1.4680 -1.2609
11223TIP3   OH255083   0.756   4.282   6.209 -0.2827  0.5446 -0.0605
11223TIP3    H155084   0.681   4.272   6.267 -1.3478 -0.7061 -1.5544
11223TIP3    H255085   0.739   4.363   6.161 -0.0547  0.8846  0.4176
11224TIP3   OH255086   1.350   2.858   1.334 -0.0127 -0.3313  0.1956
11224TIP3    H155087   1.362   2.930   1.395  1.2130 -0.7942  0.5413
11224TIP3    H255088   1.273   2.810   1.366 -1.5264  1.4022 -0.6707
11225TIP3   OH255089   3.251   2.354  15.366  0.4366  0.4110 -0.1779
11225TIP3    H155090   3.279   2.445  15.361  0.1510  0.5443  0.5986
11225TIP3    H255091   3.289   2.313  15.288 -0.1560  1.3771 -0.9920
11226TIP3   OH255092   0.437   6.081   4.625 -0.0587  0.3639  0.0247
11226TIP3    H155093   0.421   5.988   4.608  0.1356  0.5287 -1.1887
11226TIP3    H255094   0.392   6.126   4.554  1.9639  1.0479 -0.9147
11227TIP3   OH255095   0.532   0.563   5.661 -0.5948 -0.7205  0.5386
11227TIP3    H155096   0.551   0.610   5.579 -1.1674 -1.2520  0.0868
11227TIP3    H255097   0.452   0.603   5.694 -0.2737 -0.3985  0.9235
11228TIP3   OH255098   5.465   5.188  12.102 -0.5270 -0.0749 -0.0243
11228TIP3    H155099   5.528   5.179  12.174 -0.7572 -1.1404  0.0587
11228TIP3    H255100   5.508   5.145  12.028 -0.9831 -0.4348 -0.0804
11229TIP3   OH255101   5.800   3.290  12.004  0.2215 -0.0863  0.2788
11229TIP3    H155102   5.854   3.320  11.931  0.9877  0.9255  1.2298
11229TIP3    H255103   5.712   3.321  11.984  0.6234  1.0895  0.2767
11230TIP3   OH255104   6.666   4.851   2.994 -0.0226  0.2251  0.2183
11230TIP3    H155105   6.577   4.818   3.008 -0.4052  1.4672  0.9365
11230TIP3    H255106   6.660   4.944   3.015  1.0911  0.6847 -1.2913
11231TIP3   OH255107   0.701   5.450   1.763 -0.0850  0.1025 -0.2606
11231TIP3    H155108   0.766   5.465   1.832 -0.4024 -1.6284  0.4607
11231TIP3    H255109   0.624   5.499   1.792 -0.0491 -0.2050  0.3629
11232TIP3   OH255110   1.925   3.564  15.774 -0.0731  0.1724 -0.3285
11232TIP3    H155111   1.874   3.629  15.726  1.1766  1.9574  0.6306
11232TIP3    H255112   1.892   3.569  15.864  0.4088 -0.1016 -0.1290
11233TIP3   OH255113   5.205   1.318  16.304  0.1605  0.1172  0.4992
11233TIP3    H155114   5.112   1.337  16.314  0.1835  0.9006 -0.6192
11233TIP3    H255115   5.243   1.400  16.272  1.5325  0.3231  2.4660
11234TIP3   OH255116   5.937   6.766   2.656 -0.1388 -0.4520 -0.0626
11234TIP3    H155117   5.930   6.776   2.751 -0.7488  0.3396 -0.1801
11234TIP3    H255118   6.029   6.745   2.641 -0.2313 -1.5584  0.7737
11235TIP3   OH255119   0.872   3.733   4.379  0.2324  0.3786 -0.4104
11235TIP3    H155120   0.951   3.690   4.410 -1.2953 -1.6834  0.9211
11235TIP3    H255121   0.814   3.661   4.353 -2.3610  1.5467  1.6068
11236TIP3   OH255122   6.007   0.443   2.411  0.5666 -0.0133  0.4012
11236TIP3    H155123   5.980   0.353   2.429 -0.3523  0.1169 -0.2256
11236TIP3    H255124   5.949   0.497   2.465  0.7807  0.2221  0.4004
11237TIP3   OH255125   2.650   5.419  13.314 -0.1576  0.0507 -0.0673
11237TIP3    H155126   2.656   5.361  13.390 -0.4301  0.5158  0.3182
11237TIP3    H255127   2.566   5.465  13.326 -0.8868 -0.8863 -1.3878
11238TIP3   OH255128   5.679   0.517   2.176 -0.3340 -0.6976 -0.2087
11238TIP3    H155129   5.657   0.428   2.204 -0.7231 -0.0243  1.7550
11238TIP3    H255130   5.640   0.525   2.089  0.2489 -2.6402 -0.6960
11239TIP3   OH255131   5.355   6.270   5.050  0.5348 -0.2931  0.4475
11239TIP3    H155132   5.331   6.355   5.013 -1.2881 -0.8744  0.1931
11239TIP3    H255133   5.304   6.264   5.131 -2.3940 -2.6659 -1.4030
11240TIP3   OH255134   4.578   2.725   2.060 -0.7053 -0.4068  0.1323
11240TIP3    H155135   4.544   2.768   2.138 -0.6244  1.3006 -0.7319
11240TIP3    H255136   4.672   2.742   2.061 -0.3736 -2.0637  0.6470
11241TIP3   OH255137   0.679   1.892   6.221  0.4089  0.1722  0.5080
11241TIP3    H155138   0.665   1.986   6.207  0.7974  0.2106  0.3487
11241TIP3    H255139   0.594   1.859   6.250  0.5870  0.8017  1.8217
11242TIP3   OH255140   3.020   4.688   0.161  0.1445  0.0997 -0.3440
11242TIP3    H155141   3.071   4.620   0.206  1.2955 -0.7690 -2.8017
11242TIP3    H255142   2.986   4.644   0.083 -1.6549  1.5800 -0.4408
11243TIP3   OH255143   3.521   6.653  15.427 -0.1463  0.0221  0.0927
11243TIP3    H155144   3.531   6.747  15.416 -0.0186 -0.1562 -1.5032
11243TIP3    H255145   3.603   6.615  15.395  0.1660 -0.5999  1.5562
11244TIP3   OH255146   2.596   4.686   2.813 -0.8235 -0.1071 -0.6333
11244TIP3    H155147   2.688   4.699   2.836 -1.2609  2.9640 -0.2252
11244TIP3    H255148   2.579   4.594   2.833  1.8200 -0.4552  0.4219
11245TIP3   OH255149   0.614   1.963   2.216 -0.0799 -0.4377 -0.0981
11245TIP3    H155150   0.682   1.912   2.172  0.9530  1.4399 -0.7509
11245TIP3    H255151   0.535   1.909   2.206  1.2290 -2.5718  0.5229
11246TIP3   OH255152   0.736   3.802   2.728  0.1161 -0.5933  0.1854
11246TIP3    H155153   0.777   3.806   2.814  0.3591 -1.0362  0.0913
11246TIP3    H255154   0.707   3.892   2.711 -0.4432 -0.6140  0.9740
11247TIP3   OH255155   4.288   5.219  12.780 -0.3124  0.7760 -0.2911
11247TIP3    H155156   4.360   5.185  12.832 -0.1118  0.6310 -0.6555
11247TIP3    H255157   4.287   5.313  12.797  0.9222  1.0253 -1.4173
11248TIP3   OH255158   0.955   0.154   0.334 -0.5387  0.1412 -0.1181
11248TIP3    H155159   0.909   0.237   0.342 -0.6186  0.2136 -1.1215
11248TIP3    H255160   0.996   0.158   0.247  0.2532 -0.4716  0.2130
11249TIP3   OH255161   3.379   5.298  11.297 -0.3991  1.1109  1.0097
11249TIP3    H155162   3.419   5.385  11.298  1.1039  0.4616 -0.0199
11249TIP3    H255163   3.299   5.310  11.245  0.7816  1.5057 -0.7983
11250TIP3   OH255164   0.524   4.758   1.002 -0.3334  0.3418 -0.5995
11250TIP3    H155165   0.521   4.778   1.096 -1.4097  1.3366 -0.8254
11250TIP3    H255166   0.439   4.720   0.983 -0.2606  0.4948 -1.2434
11251TIP3   OH255167   2.754   0.879  15.085 -0.2761 -0.0980  0.2175
11251TIP3    H155168   2.723   0.911  15.001  1.1106 -1.0225 -0.6811
11251TIP3    H255169   2.819   0.944  15.113  0.0823 -0.3760  0.0293
11252TIP3   OH255170   2.872   3.664   6.443  0.3798  0.7546  0.2428
11252TIP3    H155171   2.821   3.624   6.373  0.4327  2.3674 -0.7596
11252TIP3    H255172   2.809   3.678   6.514  0.3617 -1.0412  0.6529
11253TIP3   OH255173   3.525   3.951  14.172  0.1955  0.1128  0.7745
11253TIP3    H155174   3.493   3.982  14.087 -1.1465  1.4751  1.7128
11253TIP3    H255175   3.463   3.884  14.198 -0.1368  0.5782  1.2133
11254TIP3   OH255176   6.558   1.635  16.618  0.3527 -0.3710  0.2056
11254TIP3    H155177   6.584   1.652  16.709  0.3230  0.6745  0.0274
11254TIP3    H255178   6.541   1.540  16.616  0.7567 -0.4834  1.1829
11255TIP3   OH255179   0.063   0.493  11.557  0.2056 -0.0437  1.1964
11255TIP3    H155180   0.021   0.410  11.533  0.2054  0.3315 -0.2416
11255TIP3    H255181   0.001   0.560  11.527  1.3454  0.4987 -0.0341
11256TIP3   OH255182   4.577   4.100   4.307 -0.4022  0.3709  0.3939
11256TIP3    H155183   4.498   4.060   4.271 -0.0481 -1.7387  1.7673
11256TIP3    H255184   4.572   4.083   4.402  2.5761 -1.6617  0.3424
11257TIP3   OH255185   5.856   4.589   3.689  0.3676 -0.0025 -0.0093
11257TIP3    H155186   5.866   4.648   3.764  0.6546  0.4057 -0.3606
11257TIP3    H255187   5.774   4.542   3.706  1.1075 -0.8945  1.2211
11258TIP3   OH255188   0.948   2.545   6.191 -0.0664 -0.5124  0.3489
11258TIP3    H155189   0.923   2.482   6.123  1.2288 -0.3633 -0.2996
11258TIP3    H255190   1.043   2.533   6.200  0.6810  2.8445 -1.4015
11259TIP3   OH255191   4.235   2.867   3.608  0.2121 -0.3740  0.2749
11259TIP3    H155192   4.188   2.895   3.529  0.6541 -0.9510 -0.1997
11259TIP3    H255193   4.276   2.784   3.583 -1.3275 -1.6450  1.7401
11260TIP3   OH255194   6.775   4.594   0.533 -0.1900  0.3305 -0.2415
11260TIP3    H155195   6.791   4.514   0.584 -3.1663  0.2542  0.7712
11260TIP3    H255196   6.848   4.598   0.472  0.6454 -2.5858  0.3892
11261TIP3   OH255197   1.026   5.906  12.727 -0.3215  0.3321  0.3532
11261TIP3    H155198   0.931   5.903  12.716 -0.2494  1.0152 -0.5449
11261TIP3    H255199   1.038   5.926  12.820 -1.0611  0.4222  0.4388
11262TIP3   OH255200   3.929   6.454   4.927  0.4650  0.5311  0.5366
11262TIP3    H155201   3.994   6.473   4.860  0.8298 -0.9034  0.4548
11262TIP3    H255202   3.939   6.524   4.991 -0.7035  2.6343 -1.4439
11263TIP3   OH255203   1.694   1.094  15.543  0.1414  0.2158 -0.1117
11263TIP3    H155204   1.607   1.054  15.540  0.4644 -0.4806 -0.4243
11263TIP3    H255205   1.714   1.100  15.637  0.4898 -1.2884 -0.0548
11264TIP3   OH255206   5.545   5.127  13.153  0.1354 -0.1568 -0.0447
11264TIP3    H155207   5.485   5.054  13.168  0.6931 -0.2147  2.3009
11264TIP3    H255208   5.488   5.204  13.150 -0.2287 -0.4123  0.2019
11265TIP3   OH255209   0.622   1.358   5.354 -0.2973 -0.1975 -0.8371
11265TIP3    H155210   0.614   1.418   5.428  2.1248 -0.8822  0.0718
11265TIP3    H255211   0.631   1.271   5.394 -0.5632 -0.7936 -2.0152
11266TIP3   OH255212   1.187   3.074  15.927 -0.4867  0.1385 -0.6296
11266TIP3    H155213   1.215   3.166  15.926 -0.0704  0.0132 -0.9107
11266TIP3    H255214   1.110   3.072  15.870 -1.1064  0.4970  0.1782
11267TIP3   OH255215   3.835   6.053   4.158 -0.4573 -0.0833  0.0221
11267TIP3    H155216   3.828   6.108   4.079 -0.6613  0.0596  0.1379
11267TIP3    H255217   3.929   6.038   4.168 -0.3822  0.3991  0.0929
11268TIP3   OH255218   3.365   6.248  14.590 -0.1951 -0.2987 -0.1462
11268TIP3    H155219   3.352   6.332  14.634 -2.2716 -1.0962  0.8568
11268TIP3    H255220   3.456   6.226  14.608 -0.2805  0.6322  1.5732
11269TIP3   OH255221   4.209   0.088   2.734 -0.4407  0.2209  0.3946
11269TIP3    H155222   4.303   0.092   2.747 -0.5710 -0.6372  1.9137
11269TIP3    H255223   4.174   0.163   2.783 -0.6345 -0.3500  1.1503
11270TIP3   OH255224   3.937   5.284   2.072  0.1000 -0.2850  0.2970
11270TIP3    H155225   3.866   5.233   2.111 -1.1671  1.0993 -0.0892
11270TIP3    H255226   3.995   5.304   2.146 -0.1372 -1.0859  0.7091
11271TIP3   OH255227   4.773   2.085   0.470 -0.5439 -0.7136  0.0250
11271TIP3    H155228   4.817   2.103   0.553  0.8693 -0.2663 -0.7752
11271TIP3    H255229   4.716   2.011   0.488 -0.2729 -0.6171  1.3931
11272TIP3   OH255230   2.567   5.252   5.060  0.3174 -0.0254 -0.0725
11272TIP3    H155231   2.640   5.204   5.099 -0.1800 -0.8725 -0.1472
11272TIP3    H255232   2.590   5.260   4.967  1.6428  2.2549  0.3757
11273TIP3   OH255233   1.126   2.470  16.354 -0.0962  0.1502  0.2117
11273TIP3    H155234   1.128   2.522  16.274  0.6406 -0.5101 -0.2211
11273TIP3    H255235   1.135   2.533  16.425  0.9084  0.6183 -0.3083
11274TIP3   OH255236   6.413   1.693   0.226  0.1240  0.4879 -0.2981
11274TIP3    H155237   6.406   1.668   0.134 -3.3870 -0.9905  0.1843
11274TIP3    H255238   6.419   1.788   0.225  2.1386  0.4060 -2.0423
11275TIP3   OH255239   0.709   2.754  13.172 -0.1886  0.7768  0.1207
11275TIP3    H155240   0.677   2.687  13.233  3.1909 -1.9275 -0.7174
11275TIP3    H255241   0.633   2.775  13.118 -1.7920 -1.3441  1.3749
11276TIP3   OH255242   0.621   1.181   0.967 -0.1500  0.3472 -0.4807
11276TIP3    H155243   0.631   1.273   0.988  1.4958  0.2293 -0.6736
11276TIP3    H255244   0.586   1.142   1.047  1.0364  0.7997  0.2724
11277TIP3   OH255245   1.504   0.111  14.169  0.5446  0.3743  0.1593
11277TIP3    H155246   1.417   0.077  14.150  0.5319 -0.2084  1.2090
11277TIP3    H255247   1.495   0.206  14.163 -0.4373  0.3735  1.3950
11278TIP3   OH255248   5.281   0.750   3.812  0.1363 -0.1620 -0.3564
11278TIP3    H155249   5.317   0.783   3.730 -0.0922  1.0897  0.0222
11278TIP3    H255250   5.265   0.657   3.796  2.9035 -0.6668 -0.7551
11279TIP3   OH255251   2.616   0.372   1.329  0.4800 -0.0843 -0.8611
11279TIP3    H155252   2.593   0.316   1.403  0.8302  0.4569 -0.3237
11279TIP3    H255253   2.550   0.442   1.330  1.4163  0.8347 -0.0216
11280TIP3   OH255254   1.417   0.308   1.396  0.7478  0.2182 -0.0318
11280TIP3    H155255   1.511   0.294   1.385  0.6213 -0.0506 -0.8446
11280TIP3    H255256   1.376   0.232   1.355  0.1485  0.9384 -0.7931
11281TIP3   OH255257   1.771   6.649   4.564 -0.0197  0.4917 -0.0234
11281TIP3    H155258   1.765   6.554   4.556 -1.4957  0.5868 -0.1703
11281TIP3    H255259   1.681   6.680   4.561  0.4657  1.9459 -0.4435
11282TIP3   OH255260   3.712   5.086  10.160  0.2416  0.2078  0.6315
11282TIP3    H155261   3.791   5.057  10.114  0.4259  0.9107  0.4868
11282TIP3    H255262   3.678   5.158  10.107  0.6839  1.3106  1.7748
11283TIP3   OH255263   1.309   4.791  13.329 -0.0986  0.3305 -0.0462
11283TIP3    H155264   1.257   4.843  13.267  0.3320  0.2752 -0.4574
11283TIP3    H255265   1.387   4.845  13.346 -0.4068  0.5351  0.7753
11284TIP3   OH255266   0.816   0.960  14.892  0.0679 -0.1850 -0.1046
11284TIP3    H155267   0.724   0.957  14.864  0.2422 -1.6908 -0.5782
11284TIP3    H255268   0.812   0.987  14.984 -0.7860  0.5098 -0.3295
11285TIP3   OH255269   5.535   4.505  14.080  0.2900  0.0579  0.0833
11285TIP3    H155270   5.577   4.500  13.994  1.3460  0.9640  0.5301
11285TIP3    H255271   5.459   4.447  14.073 -0.0640  0.6772 -1.6948
11286TIP3   OH255272   2.363   5.489  13.415 -0.0486  0.3527 -0.2666
11286TIP3    H155273   2.384   5.395  13.413 -0.2636  0.2062  1.7178
11286TIP3    H255274   2.315   5.500  13.498 -1.2110  1.9875 -1.1104
11287TIP3   OH255275   4.459   0.083   3.914 -0.2847 -0.2819  0.6671
11287TIP3    H155276   4.419   0.165   3.887  0.7576  0.2786  0.7790
11287TIP3    H255277   4.503   0.104   3.997  0.6779 -0.7392  0.2841
11288TIP3   OH255278   1.700   6.649   1.495  0.1265 -0.1138  0.2655
11288TIP3    H155279   1.607   6.672   1.504 -0.2214 -1.5255  0.6338
11288TIP3    H255280   1.712   6.578   1.558  1.6707  0.5899  0.8090
11289TIP3   OH255281   3.553   5.309  13.122 -0.2540  0.2614 -0.0331
11289TIP3    H155282   3.543   5.214  13.127 -1.0858  0.3851  2.2269
11289TIP3    H255283   3.470   5.339  13.085  0.2229  0.1037 -1.2684
11290TIP3   OH255284   6.222   1.808  14.858 -0.7316 -0.7372  0.5350
11290TIP3    H155285   6.144   1.859  14.881 -0.1441 -0.4275  1.9419
11290TIP3    H255286   6.221   1.734  14.919 -1.2843 -2.1865 -1.1247
11291TIP3   OH255287   5.232   2.633  12.283  0.6459  0.4499  0.8811
11291TIP3    H155288   5.288   2.651  12.207  2.7593 -0.9205  2.0320
11291TIP3    H255289   5.275   2.677  12.356 -0.3223  0.1445  1.6625
11292TIP3   OH255290   0.714   0.336  15.309  1.1468 -0.4656  0.4399
11292TIP3    H155291   0.669   0.418  15.288  1.5912  0.1876  1.9284
11292TIP3    H255292   0.763   0.314  15.230  0.8210  0.5702 -0.0586
11293TIP3   OH255293   2.178   1.987   5.734  0.4280 -0.3324  0.5878
11293TIP3    H155294   2.218   2.070   5.758  1.0507 -0.0916 -1.1013
11293TIP3    H255295   2.115   2.010   5.666  0.0521 -1.1561  0.6446
11294TIP3   OH255296   5.956   5.493   0.121 -0.3960  0.0574  0.2184
11294TIP3    H155297   6.039   5.459   0.154 -0.3868  0.0188  0.1548
11294TIP3    H255298   5.944   5.450   0.036  1.1470  2.4951 -1.3417
11295TIP3   OH255299   4.400   2.196   1.323  0.4486  0.1798  0.2300
11295TIP3    H155300   4.334   2.141   1.364  0.7380 -1.3180 -1.2013
11295TIP3    H255301   4.354   2.241   1.252  0.4962  0.8639  0.6177
11296TIP3   OH255302   6.303   3.934  10.699 -0.4247 -0.5563 -0.0026
11296TIP3    H155303   6.320   3.910  10.607  0.3907  0.9425 -0.2749
11296TIP3    H255304   6.269   4.023  10.694  0.1642 -0.2497  1.1921
11297TIP3   OH255305   2.712   4.503  15.642 -0.6060 -0.4929  0.5890
11297TIP3    H155306   2.621   4.518  15.667 -0.5990 -1.0006  0.9424
11297TIP3    H255307   2.707   4.464  15.555 -0.6611  0.6740  0.0544
11298TIP3   OH255308   1.182   1.417  10.354  0.1923 -0.3653 -0.0193
11298TIP3    H155309   1.125   1.462  10.416 -0.4538  0.1040 -0.9344
11298TIP3    H255310   1.200   1.482  10.286  0.1650 -1.1227 -0.7752
11299TIP3   OH255311   3.965   4.825  15.963  0.2544  0.6419  0.3687
11299TIP3    H155312   4.057   4.851  15.967  0.4834 -0.2727  1.8116
11299TIP3    H255313   3.954   4.766  16.038 -1.5639  0.9165  0.3517
11300TIP3   OH255314   5.187   5.255   2.269  0.0154 -0.1755 -0.5019
11300TIP3    H155315   5.144   5.186   2.219  0.7125 -0.1316 -1.1802
11300TIP3    H255316   5.138   5.334   2.248 -0.6699 -0.4264  0.1315
11301TIP3   OH255317   0.743   5.274   2.693  0.1703 -0.2538  0.1787
11301TIP3    H155318   0.700   5.221   2.760  1.5905  0.4476  1.7257
11301TIP3    H255319   0.818   5.221   2.666  1.3474  0.7010  1.4170
11302TIP3   OH255320   3.588   1.838  15.374  0.0107  0.0794 -0.1745
11302TIP3    H155321   3.554   1.837  15.285 -0.4467 -1.1747 -0.0067
11302TIP3    H255322   3.584   1.930  15.400  0.1052  0.4522 -1.4238
11303TIP3   OH255323   2.836   6.324  16.944 -0.3819 -0.7968  0.3707
11303TIP3    H155324   2.792   6.393  16.994  1.3155  1.7398 -1.4471
11303TIP3    H255325   2.781   6.312  16.866  1.3452  1.5872 -1.3531
11304TIP3   OH255326   2.053   1.243  12.425 -0.4602 -0.4039 -0.0158
11304TIP3    H155327   1.964   1.238  12.391  0.2802  1.0868 -2.3671
11304TIP3    H255328   2.065   1.335  12.450  0.7377 -0.3195 -0.7817
11305TIP3   OH255329   1.969   2.447   5.080 -0.6054  0.0259 -0.3154
11305TIP3    H155330   1.897   2.443   5.017 -1.2857 -0.6022  0.4800
11305TIP3    H255331   2.047   2.427   5.028 -0.8873  1.4240 -1.3281
11306TIP3   OH255332   2.237   4.513   2.442  0.8494  0.1247  0.1633
11306TIP3    H155333   2.227   4.471   2.356  0.7783  1.0750 -0.3104
11306TIP3    H255334   2.250   4.441   2.503  0.3934 -0.5984 -0.5750
11307TIP3   OH255335   4.423   3.698  12.821  0.1198 -0.0266  0.0171
11307TIP3    H155336   4.344   3.651  12.846 -0.0046  0.2105  0.0786
11307TIP3    H255337   4.493   3.659  12.873  0.1592 -0.6889 -0.5305
11308TIP3   OH255338   1.344   0.231  12.476  0.3423 -0.7715 -0.1626
11308TIP3    H155339   1.336   0.274  12.390 -0.0404 -0.7005 -0.0922
11308TIP3    H255340   1.359   0.139  12.455 -0.2008 -0.8302 -0.3064
11309TIP3   OH255341   1.306   2.256  16.605  0.5219 -0.1899  0.3765
11309TIP3    H155342   1.323   2.285  16.515  0.8563 -0.0164  0.4963
11309TIP3    H255343   1.222   2.210  16.599  0.6888 -0.4455 -0.0829
11310TIP3   OH255344   5.844   0.765  12.148  0.6738  0.5316  0.5458
11310TIP3    H155345   5.785   0.696  12.179  1.4479 -0.8251 -0.9061
11310TIP3    H255346   5.786   0.831  12.111 -0.0284  0.2039  1.0419
11311TIP3   OH255347   2.902   1.861   0.013 -0.1379 -0.0421 -0.0983
11311TIP3    H155348   2.933   1.794  -0.048  1.3564 -0.9113  1.5520
11311TIP3    H255349   2.819   1.828   0.046 -0.1584 -0.3242 -0.4252
11312TIP3   OH255350   0.840   5.594  14.827 -0.4947 -0.0336  0.8597
11312TIP3    H155351   0.861   5.517  14.774  0.0008  0.2836  0.5838
11312TIP3    H255352   0.824   5.663  14.762  0.1302  0.3604  1.1208
11313TIP3   OH255353   0.733   3.352   4.683 -0.0160  0.8694 -0.0679
11313TIP3    H155354   0.714   3.306   4.601  0.4090  0.8206 -0.1418
11313TIP3    H255355   0.707   3.290   4.751 -0.0913  0.7925 -0.1653
11314TIP3   OH255356   5.764   4.569  13.282 -0.4440 -0.2480  0.2255
11314TIP3    H155357   5.772   4.491  13.337  0.0415  1.7742  3.2624
11314TIP3    H255358   5.683   4.610  13.310 -2.1630 -0.8745 -3.2372
11315TIP3   OH255359   1.810   6.531   3.155 -0.4819 -0.0641 -0.0642
11315TIP3    H155360   1.887   6.581   3.183 -0.4815 -0.3420  0.4555
11315TIP3    H255361   1.737   6.573   3.201 -0.8032  0.8823 -1.3980
11316TIP3   OH255362   0.449   3.660   2.633  0.3787  0.0367 -0.2080
11316TIP3    H155363   0.526   3.604   2.635  0.8979  0.6879  2.5441
11316TIP3    H255364   0.460   3.718   2.709 -3.8380 -1.3056  1.6948
11317TIP3   OH255365   6.428   6.575   2.081  0.2811  0.2067 -0.4860
11317TIP3    H155366   6.373   6.654   2.082  1.1540  0.8231 -0.2514
11317TIP3    H255367   6.515   6.606   2.108  0.6606 -0.8189 -0.5017
11318TIP3   OH255368   6.376   3.939  12.780  0.2917  0.1550 -0.8651
11318TIP3    H155369   6.294   3.894  12.800  1.2186 -0.7594  1.1741
11318TIP3    H255370   6.354   4.032  12.788 -0.0832 -0.0935  2.1322
11319TIP3   OH255371   4.666   0.792   1.844 -0.1944 -0.1886  0.3654
11319TIP3    H155372   4.643   0.846   1.768 -0.7956  0.9975  1.3450
11319TIP3    H255373   4.638   0.844   1.919 -0.8007 -1.8798  1.3677
11320TIP3   OH255374   0.762   2.163  13.814  0.2966  0.9166 -0.3135
11320TIP3    H155375   0.722   2.135  13.897  0.5747 -2.0274 -1.0461
11320TIP3    H255376   0.854   2.177  13.836  0.4036 -0.0037 -0.1039
11321TIP3   OH255377   1.045   2.462  11.523 -0.4835 -0.4314  0.2203
11321TIP3    H155378   1.055   2.515  11.602  1.8943 -0.9682  0.3466
11321TIP3    H255379   0.984   2.512  11.468 -1.8418  0.1578  2.1825
11322TIP3   OH255380   5.662   0.019  13.155 -0.7304  0.1971  0.5683
11322TIP3    H155381   5.745   0.055  13.188 -0.1847  0.6004 -1.1479
11322TIP3    H255382   5.595   0.062  13.208  0.1316 -1.9241  3.7289
11323TIP3   OH255383   4.215   1.972   0.616 -0.4737  0.1260  0.2668
11323TIP3    H155384   4.227   1.881   0.591  0.1128 -0.2123  1.7035
11323TIP3    H255385   4.120   1.985   0.616 -0.6018 -0.7407  0.8852
11324TIP3   OH255386   3.600   0.873   2.417 -0.3348  0.5782 -0.5198
11324TIP3    H155387   3.582   0.954   2.370  0.2012  1.9512  1.5055
11324TIP3    H255388   3.675   0.894   2.472 -0.7360 -1.0318  0.7133
11325TIP3   OH255389   4.923   0.905  13.486 -0.3654 -0.1529 -0.2498
11325TIP3    H155390   4.893   0.976  13.428 -0.7937  1.5078  1.8903
11325TIP3    H255391   5.013   0.928  13.507  0.1819 -1.3831 -1.1155
11326TIP3   OH255392   2.139   4.094  14.223 -0.9169 -0.1721 -0.0015
11326TIP3    H155393   2.111   4.086  14.132 -0.4290 -0.6228 -0.1185
11326TIP3    H255394   2.059   4.114  14.271 -1.1284  0.3464 -0.5645
11327TIP3   OH255395   2.827   6.212   5.483  0.1230  0.5086 -0.2819
11327TIP3    H155396   2.799   6.265   5.557  1.5636 -1.0345  1.4663
11327TIP3    H255397   2.761   6.143   5.477  0.3160  0.2975 -0.0279
11328TIP3   OH255398   0.286   3.532   2.218  0.3725 -0.2835 -0.6130
11328TIP3    H155399   0.313   3.501   2.132  0.9414  0.8936 -0.8820
11328TIP3    H255400   0.202   3.576   2.204  0.8034  0.5366 -0.7221
11329TIP3   OH255401   5.387   5.279  14.939  0.8555  0.2269  0.1088
11329TIP3    H155402   5.313   5.228  14.973  2.9438 -2.4076  1.0090
11329TIP3    H255403   5.439   5.216  14.890  2.5112  2.0196 -0.5447
11330TIP3   OH255404   2.791   0.649   1.109 -0.6267  0.0769  0.2157
11330TIP3    H155405   2.755   0.737   1.119 -1.3615 -0.0325 -1.2773
11330TIP3    H255406   2.722   0.599   1.064 -0.0080 -1.1135  0.5447
11331TIP3   OH255407   5.325   6.607  15.419 -0.4723  0.0476 -0.6590
11331TIP3    H155408   5.295   6.519  15.396 -1.2282  0.4326 -1.1838
11331TIP3    H255409   5.266   6.634  15.489 -0.7822  0.4621 -1.0787
11332TIP3   OH255410   1.269   5.565  10.692  0.1703  0.5247  0.3012
11332TIP3    H155411   1.338   5.614  10.649  0.1580 -0.0105 -0.3550
11332TIP3    H255412   1.298   5.474  10.688 -0.9851  0.1726 -0.8452
11333TIP3   OH255413   2.719   5.190   1.080  0.0891  0.5324  0.3747
11333TIP3    H155414   2.681   5.138   1.010  1.0733  0.1060  0.1355
11333TIP3    H255415   2.646   5.241   1.115 -1.0229 -1.3815  0.9872
11334TIP3   OH255416   6.432   3.295  10.974  0.5613  0.6483  0.1392
11334TIP3    H155417   6.336   3.293  10.973  0.5478  1.1027 -0.6772
11334TIP3    H255418   6.457   3.221  10.918  0.6766  0.7979 -0.0071
11335TIP3   OH255419   0.856   0.930  13.220  0.0818  0.0741 -0.1219
11335TIP3    H155420   0.840   0.838  13.203  0.7976  0.0198 -0.5668
11335TIP3    H255421   0.793   0.954  13.287 -0.0351 -0.7704  0.0780
11336TIP3   OH255422   1.778   0.461   0.445 -0.5171 -0.3467 -0.2783
11336TIP3    H155423   1.873   0.449   0.454 -0.1453  0.9312 -2.0567
11336TIP3    H255424   1.766   0.482   0.352 -2.5904 -0.7534 -0.1332
11337TIP3   OH255425   2.508   4.790   0.446 -0.3974  0.2448  0.2539
11337TIP3    H155426   2.517   4.884   0.461  0.0425  0.2096  0.2361
11337TIP3    H255427   2.418   4.779   0.415 -0.0690  0.8259 -0.9912
11338TIP3   OH255428   5.802   5.888  14.460  0.4966  0.6982 -0.6041
11338TIP3    H155429   5.875   5.948  14.476  0.3552  0.5307  0.7722
11338TIP3    H255430   5.727   5.945  14.446  0.6022  0.8520 -0.5566
11339TIP3   OH255431   4.455   2.998  12.839 -0.3112 -0.3704 -0.6512
11339TIP3    H155432   4.469   3.092  12.833 -0.4453 -0.2856  0.2317
11339TIP3    H255433   4.429   2.972  12.751 -2.0604  0.7176 -0.4998
11340TIP3   OH255434   6.091   5.335  14.015 -0.1475 -0.4102  0.2355
11340TIP3    H155435   6.006   5.377  14.000 -0.6198 -0.7409  1.7895
11340TIP3    H255436   6.086   5.301  14.104  0.8812 -2.2021 -0.3230
11341TIP3   OH255437   0.385   5.096   4.269  0.2735 -0.7297  0.1627
11341TIP3    H155438   0.365   5.111   4.362  1.3760  0.5608  0.2251
11341TIP3    H255439   0.344   5.012   4.249 -1.2327 -0.3507  1.4329
11342TIP3   OH255440   4.380   5.593  14.805  0.1790 -0.1911  0.3011
11342TIP3    H155441   4.302   5.598  14.860 -0.3832  2.7095 -0.6035
11342TIP3    H255442   4.371   5.509  14.759 -2.1792 -0.1419  0.5431
11343TIP3   OH255443   0.152   6.115  11.928 -0.1468 -0.4322 -0.1952
11343TIP3    H155444   0.232   6.129  11.878  1.0288 -0.0128  1.6797
11343TIP3    H255445   0.171   6.152  12.014 -2.3150 -0.4778  0.3669
11344TIP3   OH255446   5.718   2.690  14.269 -0.1316 -0.2912  0.2416
11344TIP3    H155447   5.745   2.598  14.261 -1.0272 -0.4821 -0.8394
11344TIP3    H255448   5.665   2.706  14.192 -1.6341  0.5723  1.3925
11345TIP3   OH255449   3.280   3.085   5.762 -0.2925  0.0725  1.0304
11345TIP3    H155450   3.192   3.054   5.737  0.7070 -1.4303 -0.9872
11345TIP3    H255451   3.329   3.004   5.780  0.6964  0.8848  2.0972
11346TIP3   OH255452   4.883   6.619  10.920 -0.4102 -0.0674 -0.5819
11346TIP3    H155453   4.955   6.604  10.982  0.7899  1.0441 -1.6748
11346TIP3    H255454   4.813   6.562  10.953  0.9959 -1.3320  0.4174
11347TIP3   OH255455   0.823   5.937  11.824  0.5691  0.3283 -0.0694
11347TIP3    H155456   0.734   5.920  11.854 -0.1550  3.5984 -0.0222
11347TIP3    H255457   0.817   5.937  11.728  0.3460  1.1089 -0.0656
11348TIP3   OH255458   3.338   6.704   0.414  0.3884  0.0541 -0.3915
11348TIP3    H155459   3.322   6.637   0.481  2.4030  0.7750  0.8960
11348TIP3    H255460   3.433   6.706   0.405  0.3568  2.4777 -0.6554
11349TIP3   OH255461   1.306   6.730  13.583  0.5165 -0.4349  0.3262
11349TIP3    H155462   1.274   6.720  13.493 -0.8625  0.8381  0.6274
11349TIP3    H255463   1.335   6.642  13.608  0.1255 -0.9943 -1.0552
11350TIP3   OH255464   4.797   3.399  16.262  0.0298  0.3420  0.0562
11350TIP3    H155465   4.836   3.450  16.333 -2.1335  0.3854  1.3069
11350TIP3    H255466   4.801   3.308  16.293 -2.4719  0.5201  1.1183
11351TIP3   OH255467   2.706   1.631   4.218 -0.3794 -0.4639  0.4146
11351TIP3    H155468   2.782   1.633   4.160  0.4027  1.7905  1.3831
11351TIP3    H255469   2.633   1.657   4.162 -0.4454 -2.3728 -0.4573
11352TIP3   OH255470   2.897   6.481   2.263  0.1946  0.4213 -0.5103
11352TIP3    H155471   2.967   6.538   2.294 -1.5433  1.1512  2.5357
11352TIP3    H255472   2.871   6.518   2.179  3.2427  0.1914 -1.7066
11353TIP3   OH255473   2.243   5.551   1.706  0.0968  0.2034 -0.0362
11353TIP3    H155474   2.153   5.576   1.728 -0.4529 -1.5126 -0.1581
11353TIP3    H255475   2.295   5.582   1.781 -0.6460  0.8594  0.2241
11354TIP3   OH255476   6.484   5.555  14.181  0.3519  0.0035  0.2681
11354TIP3    H155477   6.472   5.507  14.099 -1.0786  1.1150 -0.2157
11354TIP3    H255478   6.578   5.554  14.196  0.6648 -0.0676 -1.4945
11355TIP3   OH255479   0.865   6.603  14.372 -0.1625 -0.1601  0.1572
11355TIP3    H155480   0.882   6.622  14.280 -0.1984  0.7191  0.3167
11355TIP3    H255481   0.929   6.536  14.396  2.4305  2.2456  0.4523
11356TIP3   OH255482   1.921   2.108  11.075 -0.1219 -0.6326 -0.1836
11356TIP3    H155483   1.894   2.017  11.087 -0.6637 -0.2896  1.4381
11356TIP3    H255484   1.993   2.103  11.012  1.1745 -2.4346  1.3051
11357TIP3   OH255485   0.844   2.779  10.839  0.6688  0.2263 -0.6627
11357TIP3    H155486   0.826   2.773  10.745  2.7132  0.5003 -1.1251
11357TIP3    H255487   0.899   2.703  10.858 -0.6439 -0.4659  0.5961
11358TIP3   OH255488   2.059   3.698  14.771 -0.0292  0.1588 -0.1572
11358TIP3    H155489   2.074   3.603  14.776 -0.1338  0.1820  0.9314
11358TIP3    H255490   2.110   3.727  14.696  1.3372 -0.5175  0.4843
11359TIP3   OH255491   5.954   6.230  13.026  0.1403 -0.1117 -0.4934
11359TIP3    H155492   5.983   6.138  13.029 -0.1568 -0.1941  0.6638
11359TIP3    H255493   5.880   6.230  12.966 -0.3862 -0.8093  0.1340
11360TIP3   OH255494   6.153   5.295   2.573  0.2419  0.9698 -0.4243
11360TIP3    H155495   6.175   5.248   2.492 -1.8353  0.7322 -0.9116
11360TIP3    H255496   6.180   5.385   2.556  0.8179  0.7119 -0.9500
11361TIP3   OH255497   5.235   2.928   4.997 -0.4972  0.3636  0.2314
11361TIP3    H155498   5.310   2.873   4.975 -1.1907 -0.4913 -0.0190
11361TIP3    H255499   5.162   2.889   4.951 -1.4972 -0.0022  2.0355
11362TIP3   OH255500   5.927   2.314   0.270 -0.2656  0.8900  0.4331
11362TIP3    H155501   5.920   2.340   0.362 -0.5658  0.9117  0.4035
11362TIP3    H255502   5.985   2.380   0.232 -0.4024  1.0677  0.5322
11363TIP3   OH255503   6.220   3.752  15.961 -0.1041  0.1531  0.5872
11363TIP3    H155504   6.255   3.785  15.879 -0.0522  0.0458  0.5661
11363TIP3    H255505   6.235   3.822  16.024  0.8478 -0.1853  0.7589
11364TIP3   OH255506   2.770   3.834   2.395  0.0086  0.0936  0.0369
11364TIP3    H155507   2.776   3.773   2.321  0.3221  1.5391 -1.1896
11364TIP3    H255508   2.680   3.867   2.391  0.1503  0.4893  0.0261
11365TIP3   OH255509   3.084   4.784  10.991  0.3809  0.5253  0.3528
11365TIP3    H155510   3.109   4.717  11.055  3.0074  0.0206 -1.0557
11365TIP3    H255511   3.024   4.739  10.931  0.0157  0.2389  0.9253
11366TIP3   OH255512   5.038   1.982   6.079 -0.6514 -0.7193 -0.1122
11366TIP3    H155513   5.116   2.015   6.034 -0.3123  1.8135  2.1014
11366TIP3    H255514   4.966   2.009   6.023 -0.0833 -2.9339 -2.0949
11367TIP3   OH255515   6.690   6.397   5.430  0.0971  0.1391  0.2907
11367TIP3    H155516   6.673   6.346   5.510 -0.8078  0.7374  0.4840
11367TIP3    H255517   6.680   6.488   5.457 -1.7790  0.3134 -0.8459
11368TIP3   OH255518   4.607   5.384   4.221  0.5105  0.3063  0.2118
11368TIP3    H155519   4.530   5.331   4.239 -0.1953  1.4156  0.5646
11368TIP3    H255520   4.666   5.325   4.175 -1.0213 -0.2372 -1.1431
11369TIP3   OH255521   4.076   6.790   3.302 -0.4963  0.2681  0.0743
11369TIP3    H155522   4.136   6.827   3.367 -1.9448  1.9788  0.5313
11369TIP3    H255523   4.120   6.804   3.218  0.0876  0.8006  0.4555
11370TIP3   OH255524   3.062   1.908  14.649  0.5254  0.3945 -0.0552
11370TIP3    H155525   2.973   1.937  14.628  0.2460  0.3656  1.0485
11370TIP3    H255526   3.095   1.972  14.711  0.6230 -0.5263  0.8825
11371TIP3   OH255527   4.402   5.676   5.875 -0.3756 -0.4592 -0.2967
11371TIP3    H155528   4.389   5.681   5.970  0.3737 -0.6386 -0.1734
11371TIP3    H255529   4.489   5.713   5.861 -0.8289  0.3774 -1.0201
11372TIP3   OH255530   5.156   2.672   1.187  0.1313 -0.3206  0.4156
11372TIP3    H155531   5.181   2.581   1.204 -1.8998 -0.7886  1.2629
11372TIP3    H255532   5.089   2.666   1.120 -0.2203  0.5308  0.6869
11373TIP3   OH255533   5.370   6.594   6.244  0.1240  0.2595 -0.3694
11373TIP3    H155534   5.345   6.548   6.324 -0.7542  2.8650  0.9665
11373TIP3    H255535   5.288   6.607   6.197  0.3558  0.4289 -0.7312
11374TIP3   OH255536   4.409   4.234  13.933 -0.7782 -0.5471 -0.3631
11374TIP3    H155537   4.483   4.285  13.967 -1.4925 -0.4680  1.1742
11374TIP3    H255538   4.356   4.298  13.886  0.2722 -0.6677 -1.7615
11375TIP3   OH255539   1.670   5.049   4.582  0.2088 -0.0271  0.0476
11375TIP3    H155540   1.704   5.006   4.661  2.4032  1.5044  0.0039
11375TIP3    H255541   1.610   5.116   4.615  0.0473 -0.2968  0.3144
11376TIP3   OH255542   3.524   4.648  12.210 -0.2749 -0.1914 -0.1269
11376TIP3    H155543   3.496   4.566  12.169  0.6218 -1.2311  1.2534
11376TIP3    H255544   3.564   4.621  12.293 -1.2870  1.7604  1.0604
11377TIP3   OH255545   1.350   0.676  11.689  1.1465  0.0854  0.0366
11377TIP3    H155546   1.379   0.757  11.732  0.3261 -0.3020  1.3897
11377TIP3    H255547   1.283   0.641  11.748  0.6895 -1.0020 -1.0998
11378TIP3   OH255548   2.935   0.553  11.401  0.2658 -0.1673 -0.3845
11378TIP3    H155549   2.903   0.516  11.319 -1.8909  1.3322 -0.2886
11378TIP3    H255550   2.941   0.647  11.385  0.0373  0.1240  1.0638
11379TIP3   OH255551   6.181   1.210  13.843 -0.2933 -0.1776  0.2446
11379TIP3    H155552   6.240   1.208  13.768  0.3046  0.4363  0.6887
11379TIP3    H255553   6.105   1.259  13.813 -1.0340 -1.7615 -0.6316
11380TIP3   OH255554   1.714   3.328  13.358  0.2556 -0.3473 -0.1965
11380TIP3    H155555   1.708   3.260  13.425 -1.7136 -0.7441 -0.7120
11380TIP3    H255556   1.644   3.390  13.381 -0.5646 -0.5805 -1.9553
11381TIP3   OH255557   5.625   6.066  14.946  0.4367 -0.3796 -0.0806
11381TIP3    H155558   5.541   6.056  14.990  0.3386 -0.2543 -0.2366
11381TIP3    H255559   5.623   6.002  14.875 -0.6160  1.3571 -1.7205
11382TIP3   OH255560   2.814   4.096  16.368 -0.0650  0.1337 -0.7252
11382TIP3    H155561   2.895   4.140  16.391 -0.4184 -0.0988  1.1465
11382TIP3    H255562   2.746   4.163  16.379 -0.4267 -0.4129  0.6329
11383TIP3   OH255563   1.718   0.292  14.672 -0.0880  0.3117 -0.6294
11383TIP3    H155564   1.633   0.310  14.631 -1.3744 -0.0216  1.6646
11383TIP3    H255565   1.717   0.345  14.752  1.4397 -0.4717 -0.0521
11384TIP3   OH255566   2.048   2.718  15.418 -0.1018  0.4254 -0.0797
11384TIP3    H155567   2.025   2.757  15.503  1.1840 -0.4252  0.7067
11384TIP3    H255568   1.993   2.641  15.411  0.2758  0.1118  0.3278
11385TIP3   OH255569   1.048   4.542  13.679  0.5466 -0.1426 -0.2037
11385TIP3    H155570   1.021   4.632  13.657  0.0668 -0.0379  0.7408
11385TIP3    H255571   1.053   4.542  13.775  0.4806 -1.1423 -0.1939
11386TIP3   OH255572   4.679   6.422   5.084 -0.4568  0.0639  0.4374
11386TIP3    H155573   4.695   6.374   5.003 -1.8580  1.1883 -0.5537
11386TIP3    H255574   4.584   6.432   5.087 -0.5078 -0.6174  2.6396
11387TIP3   OH255575   1.198   2.660  12.476  0.0511  0.5790 -0.2298
11387TIP3    H155576   1.190   2.631  12.385 -0.2073 -0.9972  0.2558
11387TIP3    H255577   1.125   2.720  12.489  0.3919  1.2287 -1.1966
11388TIP3   OH255578   2.981   4.275  12.876  0.6693 -0.2480 -0.2232
11388TIP3    H155579   3.044   4.305  12.941  3.2613  2.9081 -3.7568
11388TIP3    H255580   3.018   4.194  12.841  1.2342  0.0414 -0.2950
11389TIP3   OH255581   3.510   3.753   0.208  0.1923 -0.1515  0.4748
11389TIP3    H155582   3.466   3.676   0.244 -0.1807 -0.1455  0.0455
11389TIP3    H255583   3.529   3.729   0.117 -0.0237  0.3002  0.3090
11390TIP3   OH255584   4.972   5.214  11.200  0.4395  0.3346 -0.4529
11390TIP3    H155585   5.039   5.175  11.256  1.5798 -3.0104 -3.7509
11390TIP3    H255586   4.890   5.175  11.229  0.5332  0.9871  0.7382
11391TIP3   OH255587   5.095   4.180   2.897  0.5131  0.3713  0.0419
11391TIP3    H155588   5.106   4.101   2.949 -1.6042  0.3578  0.5717
11391TIP3    H255589   5.117   4.251   2.957  1.1841  0.2389 -0.0433
11392TIP3   OH255590   1.395   0.326   5.189  0.5560  0.6422  0.2512
11392TIP3    H155591   1.440   0.252   5.149 -0.2685  0.0758  0.3581
11392TIP3    H255592   1.401   0.310   5.283 -1.0088 -0.1532  0.2487
11393TIP3   OH255593   5.872   5.551   2.069  0.0278  0.7986 -0.5226
11393TIP3    H155594   5.800   5.503   2.109  1.6233 -3.1338 -1.9120
11393TIP3    H255595   5.859   5.539   1.975  1.6871  1.3144 -0.8496
11394TIP3   OH255596   2.093   6.010   6.027  0.2997  0.0928  0.1701
11394TIP3    H155597   2.141   6.015   6.110  0.0782 -1.8816  0.4650
11394TIP3    H255598   2.008   5.972   6.050 -0.2762  0.7462 -0.7845
11395TIP3   OH255599   4.902   5.186  14.231 -0.2800  0.6111  0.4466
11395TIP3    H155600   4.881   5.117  14.168 -2.0412  1.6925 -0.2137
11395TIP3    H255601   4.913   5.141  14.314 -1.9182 -0.4415  0.1323
11396TIP3   OH255602   2.609   1.335  15.969  0.0024 -0.0457 -0.2672
11396TIP3    H155603   2.531   1.282  15.984 -0.1442  0.5093  1.0577
11396TIP3    H255604   2.672   1.304  16.035  0.7529 -0.1908 -1.0323
11397TIP3   OH255605   4.155   6.199  10.970  0.3032 -0.2280  0.3703
11397TIP3    H155606   4.246   6.217  10.949  1.1939 -1.4623  2.7580
11397TIP3    H255607   4.133   6.123  10.915  0.6691  0.1537 -0.3115
11398TIP3   OH255608   0.916   6.627  11.468 -0.1913 -0.1198  0.8930
11398TIP3    H155609   0.952   6.611  11.555  0.1844 -0.0741  0.7462
11398TIP3    H255610   0.905   6.540  11.430  0.9127 -0.0911  0.4772
11399TIP3   OH255611   2.369   4.147   1.290 -0.3610  0.6843 -0.7780
11399TIP3    H155612   2.288   4.197   1.296 -0.4803  0.4607 -0.4677
11399TIP3    H255613   2.401   4.142   1.380 -1.5226 -1.7013 -0.4283
11400TIP3   OH255614   1.414   0.881  13.913 -0.2243 -1.1374  0.0201
11400TIP3    H155615   1.503   0.898  13.943  0.2928  1.4950 -2.4887
11400TIP3    H255616   1.425   0.827  13.834 -0.9111 -1.5375  0.1954
11401TIP3   OH255617   1.585   3.235  11.171  0.0574 -0.5049 -0.1550
11401TIP3    H155618   1.565   3.142  11.180  0.2657 -0.6896 -1.4135
11401TIP3    H255619   1.572   3.254  11.078 -0.9535  0.9688  0.2504
11402TIP3   OH255620   5.718   3.226   4.523 -0.9686 -0.6133 -0.5899
11402TIP3    H155621   5.634   3.201   4.562 -0.4772 -0.5096  0.5889
11402TIP3    H255622   5.783   3.179   4.574 -0.2620 -0.0297 -0.9292
11403TIP3   OH255623   6.151   2.311  15.666 -0.2342 -0.8116 -0.1226
11403TIP3    H155624   6.091   2.373  15.625  0.8583 -0.3937 -1.1387
11403TIP3    H255625   6.169   2.348  15.752 -1.5983 -1.0698  0.2998
11404TIP3   OH255626   4.192   6.408  12.569  0.5934  0.4752 -0.3117
11404TIP3    H155627   4.193   6.503  12.559  0.0697  0.6299  0.9090
11404TIP3    H255628   4.283   6.384  12.583  0.6158  0.9163  0.3222
11405TIP3   OH255629   2.098   5.951   1.947 -0.2850  0.5775  0.2039
11405TIP3    H155630   2.127   6.040   1.969 -0.9086  0.4401  1.7132
11405TIP3    H255631   2.046   5.924   2.022 -1.0092 -0.6694 -0.7125
11406TIP3   OH255632   1.053   5.370  17.049 -0.3829 -0.1633 -0.9312
11406TIP3    H155633   1.048   5.299  16.985  0.4001  0.6150 -1.9076
11406TIP3    H255634   0.969   5.369  17.093 -0.7623 -1.0452 -1.6381
11407TIP3   OH255635   2.326   5.602   0.418 -0.0222 -0.6816  0.1802
11407TIP3    H155636   2.262   5.531   0.406 -0.6030 -0.0757 -0.4091
11407TIP3    H255637   2.301   5.644   0.500  0.1455 -0.9786  0.3836
11408TIP3   OH255638   1.592   0.621  11.331 -0.1003 -0.5306  0.0445
11408TIP3    H155639   1.498   0.602  11.333 -0.4097  0.9204  1.4146
11408TIP3    H255640   1.598   0.714  11.353  1.5988 -0.2699 -1.3671
11409TIP3   OH255641   4.038   4.010  11.831 -0.0894  0.0366  0.3367
11409TIP3    H155642   4.079   4.062  11.900 -0.8982  1.2665 -0.0817
11409TIP3    H255643   3.949   3.993  11.862 -0.0133 -0.6306  0.2179
11410TIP3   OH255644   5.144   4.586  13.545  0.1258 -0.5123  0.5178
11410TIP3    H155645   5.118   4.675  13.569  3.0083  0.7984 -0.7945
11410TIP3    H255646   5.210   4.562  13.611  2.7968  0.2829 -1.6951
11411TIP3   OH255647   1.967   6.528  15.191  0.2264  0.4664 -0.8267
11411TIP3    H155648   2.024   6.599  15.220  2.0804 -0.8882 -0.9784
11411TIP3    H255649   1.926   6.495  15.271 -0.2273  1.3398 -0.6938
11412TIP3   OH255650   5.920   6.361  14.076  0.1603  0.0277 -0.1504
11412TIP3    H155651   5.938   6.272  14.106  1.7530  0.1710 -0.6049
11412TIP3    H255652   5.988   6.379  14.011  0.7288  2.0656  0.9387
11413TIP3   OH255653   3.623   0.009  16.042  0.6320 -0.2838 -0.7554
11413TIP3    H155654   3.624  -0.036  15.958  1.9476  1.0167 -1.4856
11413TIP3    H255655   3.712  -0.002  16.076  0.9011  1.4315 -0.8105
11414TIP3   OH255656   4.856   3.421  10.994 -0.9200  0.3520 -0.5994
11414TIP3    H155657   4.796   3.430  11.068 -0.8202 -0.3677 -0.4279
11414TIP3    H255658   4.820   3.479  10.927 -0.2368  2.1535  0.5011
11415TIP3   OH255659   3.654   1.087   2.737 -0.5182  0.1243  0.7637
11415TIP3    H155660   3.631   1.179   2.722  0.8606  0.6183  1.5270
11415TIP3    H255661   3.749   1.085   2.732 -0.4947 -1.1733  1.3136
11416TIP3   OH255662   0.050   2.739   0.716 -0.4009 -0.2943  0.2036
11416TIP3    H155663  -0.010   2.704   0.651 -1.3058 -0.6023  1.1777
11416TIP3    H255664   0.076   2.825   0.681 -0.1051 -0.8526 -0.9979
11417TIP3   OH255665   4.235   6.137  17.029  0.0766 -0.5558 -0.1627
11417TIP3    H155666   4.247   6.175  17.116  1.4861 -2.1065  0.3940
11417TIP3    H255667   4.253   6.043  17.041  2.2443 -0.5600 -2.4380
11418TIP3   OH255668   3.534   5.983   5.017  0.3624  0.4427  0.2072
11418TIP3    H155669   3.458   6.018   5.064  0.1136 -1.4496  1.3215
11418TIP3    H255670   3.497   5.932   4.946  0.5793 -0.2981  0.6162
11419TIP3   OH255671   1.821   5.534  16.244 -0.0364 -0.1250 -1.3513
11419TIP3    H155672   1.873   5.456  16.265  0.1671  0.0353 -1.2619
11419TIP3    H255673   1.767   5.548  16.322  1.1571  0.8318 -0.6637
11420TIP3   OH255674   6.279   0.059  16.055  0.2596 -0.9226  0.3125
11420TIP3    H155675   6.203   0.059  15.997 -0.0481  0.0071  0.6954
11420TIP3    H255676   6.297  -0.033  16.072 -0.4426 -1.1636 -0.2209
11421TIP3   OH255677   2.087   3.356   4.905 -0.0423 -0.0280 -0.6481
11421TIP3    H155678   2.047   3.393   4.826 -0.2728 -1.0590 -1.0265
11421TIP3    H255679   2.180   3.370   4.893  0.0117 -1.0263 -1.5757
11422TIP3   OH255680   6.339   6.665  14.044 -0.2875  0.5396  0.8612
11422TIP3    H155681   6.395   6.631  14.114  1.3158  0.9666 -0.1545
11422TIP3    H255682   6.286   6.733  14.086  2.3493  2.5189  1.2562
11423TIP3   OH255683   5.291   5.562  11.722  0.1227  0.9132  0.3804
11423TIP3    H155684   5.202   5.573  11.755  0.5281  0.7856  1.5489
11423TIP3    H255685   5.319   5.478  11.757  0.7750  1.0472  0.1897
11424TIP3   OH255686   1.012   3.801  11.479  0.2924 -0.3258 -0.1801
11424TIP3    H155687   0.965   3.741  11.422 -1.5340  0.0023  0.9077
11424TIP3    H255688   1.067   3.745  11.533 -1.8290 -1.1511  1.2280
11425TIP3   OH255689   5.679   0.964  12.040  0.0224 -0.1985 -0.4664
11425TIP3    H155690   5.644   1.048  12.008 -0.7936 -0.1283  0.5634
11425TIP3    H255691   5.623   0.942  12.115  1.0051 -1.0624  0.0278
11426TIP3   OH255692   0.900   3.564  12.724 -0.2274  0.1923 -0.4308
11426TIP3    H155693   0.840   3.611  12.665  0.5545 -0.7027 -2.0034
11426TIP3    H255694   0.904   3.475  12.689  1.9360  0.1904 -0.3493
11427TIP3   OH255695   2.732   3.644   3.730  0.5893  0.3847 -0.3035
11427TIP3    H155696   2.818   3.659   3.768  0.4433  0.0423  0.1609
11427TIP3    H255697   2.682   3.600   3.798 -0.5622  2.2547  0.1322
11428TIP3   OH255698   3.362   5.033  14.220 -0.2391  0.5402  0.3017
11428TIP3    H155699   3.283   5.058  14.268 -0.3861 -1.6412  1.3364
11428TIP3    H255700   3.429   5.022  14.288  0.6342  1.1870 -0.4363
11429TIP3   OH255701   4.531   1.308   0.188  0.4331 -0.1805  0.4744
11429TIP3    H155702   4.578   1.333   0.108  4.8928  0.2296  2.8868
11429TIP3    H255703   4.487   1.389   0.215 -0.2322 -0.0281 -0.9713
11430TIP3   OH255704   2.498   3.794   2.686  0.5486  0.0327  0.2295
11430TIP3    H155705   2.591   3.772   2.696  0.7491  1.5186  2.1235
11430TIP3    H255706   2.452   3.729   2.739  0.4655 -0.7430 -0.7604
11431TIP3   OH255707   6.715   0.820  11.922  0.0921 -0.1187  0.3158
11431TIP3    H155708   6.623   0.802  11.904  0.0741 -0.2645  0.5535
11431TIP3    H255709   6.731   0.783  12.009  0.1417  0.7126  0.6636
11432TIP3   OH255710   3.551   5.914  11.704 -0.1552 -0.0484  0.0388
11432TIP3    H155711   3.586   6.003  11.704  0.7258 -0.3665  0.9881
11432TIP3    H255712   3.529   5.897  11.612  1.7873  0.3688 -0.5619
11433TIP3   OH255713   3.678   0.455   2.123 -0.9734  0.8185  0.4665
11433TIP3    H155714   3.674   0.489   2.033  0.2268  1.1173  0.5055
11433TIP3    H255715   3.624   0.515   2.174 -1.6940  0.6261 -0.0538
11434TIP3   OH255716   1.581   1.211   2.799  1.1799  0.1048 -0.8855
11434TIP3    H155717   1.488   1.219   2.820  1.7038  0.3772  1.5633
11434TIP3    H255718   1.620   1.292   2.831  2.6630 -1.1755  0.7000
11435TIP3   OH255719   6.788   4.705   4.082 -0.2020  0.5446  0.1783
11435TIP3    H155720   6.773   4.788   4.128 -0.0282  0.8250 -0.2631
11435TIP3    H255721   6.731   4.710   4.004 -1.7247 -0.6023  1.1535
11436TIP3   OH255722   4.732   5.977   5.860  0.6448  0.2815  0.1970
11436TIP3    H155723   4.814   6.022   5.841  0.6844 -0.2436 -1.0028
11436TIP3    H255724   4.669   6.047   5.878  0.5411  0.9043 -2.2683
11437TIP3   OH255725   6.153   5.509  11.747 -0.1302 -0.1993 -0.1170
11437TIP3    H155726   6.170   5.603  11.744  0.8566 -0.3354  0.6017
11437TIP3    H255727   6.076   5.501  11.802 -0.2114  0.1910 -0.1690
11438TIP3   OH255728   2.733   5.224   0.625 -0.2023 -0.0481  0.0974
11438TIP3    H155729   2.777   5.142   0.648  1.3194  0.8614  0.5998
11438TIP3    H255730   2.799   5.273   0.575 -0.8423  1.1554  0.3973
11439TIP3   OH255731   6.756   1.628   2.928  0.3168  0.1876  0.2966
11439TIP3    H155732   6.829   1.566   2.934 -0.1460 -0.2574  1.9294
11439TIP3    H255733   6.774   1.692   2.996 -0.6739  0.2188  0.5376
11440TIP3   OH255734   2.949   5.459   2.617 -0.4638 -0.3045  0.1543
11440TIP3    H155735   3.043   5.468   2.633  0.4131 -1.6562 -3.2520
11440TIP3    H255736   2.916   5.408   2.691  0.6476  3.1630  3.2728
11441TIP3   OH255737   1.202   5.885  12.519  0.6500 -0.0632 -0.6922
11441TIP3    H155738   1.247   5.802  12.536  2.9826  1.2400 -0.1204
11441TIP3    H255739   1.141   5.895  12.591 -0.7679 -1.9336 -1.5391
11442TIP3   OH255740   6.431   3.977   5.914  0.2214 -0.0654 -0.1729
11442TIP3    H155741   6.448   3.994   6.006  0.4316  0.5957 -0.3265
11442TIP3    H255742   6.435   3.882   5.906  0.5921 -0.1074  0.4243
11443TIP3   OH255743   5.513   5.634   1.944  0.3632  0.1454  0.1115
11443TIP3    H155744   5.564   5.560   1.911  0.4508  0.2835 -0.0691
11443TIP3    H255745   5.568   5.710   1.927 -0.1765  0.3715 -0.7069
11444TIP3   OH255746   6.614   1.267  16.905 -0.0698  0.6024 -0.1756
11444TIP3    H155747   6.647   1.220  16.981 -0.1747  0.9473  0.0863
11444TIP3    H255748   6.520   1.249  16.905 -0.1301  0.9121 -0.0016
11445TIP3   OH255749   4.736   6.193  15.249  0.7413  0.2991 -0.2367
11445TIP3    H155750   4.657   6.165  15.203  1.0071  0.4882 -0.8116
11445TIP3    H255751   4.807   6.150  15.202  0.9343 -0.6819  0.8768
11446TIP3   OH255752   5.303   2.584   4.475 -0.2607  0.2927  0.1521
11446TIP3    H155753   5.225   2.550   4.433 -0.4937 -1.6543  1.9967
11446TIP3    H255754   5.362   2.509   4.481  1.5058  1.5609 -0.5842
11447TIP3   OH255755   5.347   2.260  16.379 -0.5007 -0.1578  0.4964
11447TIP3    H155756   5.299   2.299  16.452 -0.2806 -1.0223  1.1130
11447TIP3    H255757   5.353   2.167  16.401  2.3991  0.0720  0.9550
11448TIP3   OH255758   0.381   2.951   4.994  0.2382  0.2445 -0.1254
11448TIP3    H155759   0.471   2.918   4.994 -0.4453 -1.7795 -0.7335
11448TIP3    H255760   0.369   2.988   5.082  1.7013  0.7438 -0.1048
11449TIP3   OH255761   1.510   2.954  13.216  0.8815  0.5186 -0.3042
11449TIP3    H155762   1.568   3.026  13.191  1.7836 -0.3193 -0.6372
11449TIP3    H255763   1.561   2.875  13.202 -0.2229 -0.2207 -0.2685
11450TIP3   OH255764   4.438   4.561  11.739 -1.1744  0.0188  0.3266
11450TIP3    H155765   4.379   4.489  11.716 -1.2993  0.5062 -0.9939
11450TIP3    H255766   4.499   4.566  11.666 -0.9703  1.0318  0.5528
11451TIP3   OH255767   1.343   6.155  12.482  0.1990 -0.0370  0.0578
11451TIP3    H155768   1.372   6.064  12.473  0.1987 -0.2805  2.1735
11451TIP3    H255769   1.370   6.181  12.570  0.1237  2.0038 -0.4712
11452TIP3   OH255770   1.967   4.951  16.209 -0.9060  0.1276  0.3262
11452TIP3    H155771   2.013   4.900  16.275 -1.6058 -1.0748 -0.0926
11452TIP3    H255772   1.959   5.038  16.247  1.0701  0.1856  0.7027
11453TIP3   OH255773   1.261   4.439  12.539 -0.1029  0.5504  0.3775
11453TIP3    H155774   1.284   4.462  12.629 -0.5523  0.3466  0.5464
11453TIP3    H255775   1.221   4.519  12.504 -0.1681  0.5436  0.4382
11454TIP3   OH255776   1.988   5.220  14.959  0.0049 -0.1440 -0.2526
11454TIP3    H155777   2.035   5.289  15.005  0.0455  1.0336 -1.9856
11454TIP3    H255778   2.028   5.139  14.990  1.9790  0.7427 -0.3529
11455TIP3   OH255779   6.469   5.283   1.960 -0.0382  0.0241 -0.1247
11455TIP3    H155780   6.531   5.267   1.889 -1.1504 -0.6088 -0.9819
11455TIP3    H255781   6.503   5.232   2.034 -1.9582 -4.3472 -1.9211
11456TIP3   OH255782   6.749   3.464  14.487  0.5146 -0.9347  0.7800
11456TIP3    H155783   6.777   3.376  14.509  0.7418 -0.9302  0.5243
11456TIP3    H255784   6.668   3.477  14.535 -0.0154 -1.6254  0.0909
11457TIP3   OH255785   5.432   1.311   2.010 -0.1956 -0.1890  0.4957
11457TIP3    H155786   5.523   1.335   2.028  0.0825 -1.2475  0.5715
11457TIP3    H255787   5.429   1.216   2.023 -1.1758 -0.2540 -0.0868
11458TIP3   OH255788   5.821   6.444   4.099  0.2247  0.2840  0.5408
11458TIP3    H155789   5.800   6.483   4.184 -0.2623  1.2013  0.0204
11458TIP3    H255790   5.740   6.452   4.048  0.3808 -0.6323  0.1187
11459TIP3   OH255791   6.138   5.490   4.769 -0.3514 -0.9936  0.8861
11459TIP3    H155792   6.159   5.580   4.793  0.2015 -0.3804 -1.6414
11459TIP3    H255793   6.067   5.465   4.829 -0.3861  1.0428  1.7704
11460TIP3   OH255794   5.611   0.516  11.259 -0.2150  0.0451  0.0740
11460TIP3    H155795   5.661   0.505  11.178  2.7909 -1.0897  1.9097
11460TIP3    H255796   5.613   0.429  11.300  1.8800  1.3516  3.1489
11461TIP3   OH255797   5.067   4.845  11.164  0.1255  0.5585 -0.0423
11461TIP3    H155798   5.096   4.890  11.243  1.4386  0.0861 -0.2188
11461TIP3    H255799   5.059   4.914  11.098 -0.2763  0.8574  0.3194
11462TIP3   OH255800   1.176   6.200  13.844  0.5655  0.2180  0.1260
11462TIP3    H155801   1.184   6.114  13.884  0.9370  0.6674  1.0347
11462TIP3    H255802   1.189   6.184  13.750 -0.3198 -0.8428  0.1556
11463TIP3   OH255803   2.408   5.176   1.963 -0.3256 -0.1307 -0.4600
11463TIP3    H155804   2.490   5.153   2.007  1.1875  3.8399 -0.7841
11463TIP3    H255805   2.353   5.215   2.032 -1.1217 -0.8540 -0.6653
11464TIP3   OH255806   3.738   3.465   1.023 -0.4474 -0.3904  0.2220
11464TIP3    H155807   3.777   3.498   0.942 -1.3612  0.4095  0.0824
11464TIP3    H255808   3.802   3.485   1.091 -0.5863  0.8843  0.0003
11465TIP3   OH255809   0.513   4.989   5.470 -0.2028  0.0292 -0.4328
11465TIP3    H155810   0.472   4.991   5.556 -0.8746  1.8318 -0.7551
11465TIP3    H255811   0.539   4.897   5.458 -1.6531 -0.6005  0.9333
11466TIP3   OH255812   5.814   5.800  13.393 -0.1838 -0.2898 -0.0011
11466TIP3    H155813   5.807   5.856  13.316  0.9036 -0.4095 -0.2043
11466TIP3    H255814   5.743   5.737  13.384 -2.9046  2.3490  1.3715
11467TIP3   OH255815   1.192   5.763  11.246  0.4952 -0.1677  0.3602
11467TIP3    H155816   1.241   5.773  11.165  0.7964  1.3735  0.6935
11467TIP3    H255817   1.113   5.715  11.221  0.9697 -0.4206 -0.6785
11468TIP3   OH255818   2.690   2.237  14.404  0.2068  0.2175 -0.1007
11468TIP3    H155819   2.713   2.148  14.377 -0.8895  0.7944 -3.3072
11468TIP3    H255820   2.772   2.287  14.395  0.0467  0.2196 -1.7074
11469TIP3   OH255821   3.347   6.485  14.032  0.1505 -0.3466  0.1720
11469TIP3    H155822   3.363   6.422  13.961  1.6196  0.6377 -0.4286
11469TIP3    H255823   3.373   6.438  14.111 -2.2157 -1.7222  0.2178
11470TIP3   OH255824   3.580   4.811   2.411  0.5163  0.4385  0.1577
11470TIP3    H155825   3.675   4.809   2.419  0.6257 -1.0016 -1.0569
11470TIP3    H255826   3.560   4.745   2.344 -1.4369 -0.2317  1.3079
11471TIP3   OH255827   5.442   5.243   2.208  0.2311 -0.7220 -0.1972
11471TIP3    H155828   5.352   5.273   2.222  1.0028  0.9093  1.7885
11471TIP3    H255829   5.446   5.158   2.252 -0.1258 -0.3711  0.5320
11472TIP3   OH255830   5.077   4.709   4.236  0.1610 -0.3691  0.1280
11472TIP3    H155831   5.122   4.695   4.319  1.2000 -0.3749 -0.4109
11472TIP3    H255832   5.142   4.755   4.181  0.0487 -1.6624 -1.1617
11473TIP3   OH255833   4.600   4.832   5.368 -0.3488  0.3885 -0.5288
11473TIP3    H155834   4.583   4.740   5.348 -0.7667  0.2182  0.5536
11473TIP3    H255835   4.696   4.838   5.373 -0.2876  0.1813 -1.3339
11474TIP3   OH255836   2.711   4.405   3.855 -0.0534 -0.1262 -0.2677
11474TIP3    H155837   2.797   4.363   3.852 -0.5910 -1.3106  0.2497
11474TIP3    H255838   2.655   4.347   3.803 -0.8494 -0.1411  0.5890
11475TIP3   OH255839   0.495   1.726  12.929 -0.1449 -0.4973  0.3229
11475TIP3    H155840   0.440   1.649  12.945 -0.7037  0.1777  1.8020
11475TIP3    H255841   0.478   1.749  12.838 -1.0720 -1.2700  0.2831
11476TIP3   OH255842   3.589   1.759  13.307  0.2779 -0.0810  0.1935
11476TIP3    H155843   3.672   1.753  13.260  0.0653  2.2368 -0.6286
11476TIP3    H255844   3.526   1.785  13.239 -0.6906  0.2241  1.1858
11477TIP3   OH255845   6.364   6.181   2.589  0.6762 -0.0578 -0.9877
11477TIP3    H155846   6.278   6.201   2.625  0.1509  0.5059 -2.4554
11477TIP3    H255847   6.415   6.260   2.604  1.2718 -0.7253  0.7270
11478TIP3   OH255848   5.394   1.846   0.821  0.1220  0.0489 -0.7279
11478TIP3    H155849   5.410   1.873   0.912 -2.1125 -1.4925  0.1958
11478TIP3    H255850   5.470   1.792   0.799  0.8970  0.7843  0.0515
11479TIP3   OH255851   6.712   5.858  12.699  0.3230 -0.1510 -0.1346
11479TIP3    H155852   6.642   5.911  12.660 -0.5887  0.6963  2.4316
11479TIP3    H255853   6.667   5.780  12.732  0.9533 -0.5797 -0.2825
11480TIP3   OH255854   4.260   5.942  12.321 -0.0707 -0.0089 -0.1810
11480TIP3    H155855   4.296   6.025  12.353  0.5933  0.0347 -1.0118
11480TIP3    H255856   4.296   5.876  12.379 -1.6257  0.3642  1.3177
11481TIP3   OH255857   3.336   5.169   1.494  0.3657  0.2025 -0.7646
11481TIP3    H155858   3.315   5.086   1.453  0.0901 -0.0378 -0.1594
11481TIP3    H255859   3.430   5.166   1.511  0.7802  0.9333 -2.7311
11482TIP3   OH255860   0.140   5.112  10.769  0.0030  0.2048 -0.0497
11482TIP3    H155861   0.065   5.059  10.742 -0.3862  1.0306 -0.6031
11482TIP3    H255862   0.148   5.179  10.702  0.8336  0.5274  0.3604
11483TIP3   OH255863   3.083   2.783   3.327  0.0617 -0.6519 -0.4586
11483TIP3    H155864   3.015   2.838   3.366  1.6808 -0.0370  1.6397
11483TIP3    H255865   3.115   2.834   3.253  0.7742  0.7871  0.7872
11484TIP3   OH255866   0.343   0.574   0.873 -0.1806  0.0902  0.2339
11484TIP3    H155867   0.352   0.650   0.931  2.2214 -0.4264  0.6812
11484TIP3    H255868   0.250   0.554   0.873 -0.5736  1.6181  1.9762
11485TIP3   OH255869   6.029   0.849   4.283 -0.2890 -0.1136  0.2342
11485TIP3    H155870   6.010   0.942   4.290 -0.4401 -0.0198 -1.1979
11485TIP3    H255871   6.048   0.822   4.373 -0.9886  1.1246  0.7798
11486TIP3   OH255872   3.813   5.968   6.351  0.0141  0.3228  0.3194
11486TIP3    H155873   3.808   5.882   6.393 -1.5827 -0.6799 -1.7568
11486TIP3    H255874   3.902   5.971   6.315 -0.2381 -0.9796 -0.5100
11487TIP3   OH255875   6.218   3.497   1.391  0.0168 -0.4928  0.1057
11487TIP3    H155876   6.175   3.582   1.401  1.8423  0.3333  1.5098
11487TIP3    H255877   6.148   3.433   1.403 -1.2903  0.8022 -0.3865
11488TIP3   OH255878   6.532   5.208  12.059  0.1431 -0.5218 -0.3748
11488TIP3    H155879   6.542   5.245  11.972  0.7403 -0.1761 -0.1643
11488TIP3    H255880   6.574   5.122  12.053 -0.7502 -0.9427 -0.7104
11489TIP3   OH255881   0.928   5.763   3.926  0.2445  0.1934 -0.2777
11489TIP3    H155882   0.866   5.692   3.909  1.0312 -1.0867  1.8445
11489TIP3    H255883   0.877   5.827   3.976  0.5061 -0.7857  1.3288
11490TIP3   OH255884   1.179   1.950  12.556  0.2599  0.2481  0.1055
11490TIP3    H155885   1.183   2.027  12.612  0.2198 -1.1105  2.0674
11490TIP3    H255886   1.116   1.892  12.599 -0.7583 -0.3367 -2.0616
11491TIP3   OH255887   2.549   2.119  12.282 -0.3173  0.1801 -0.3458
11491TIP3    H155888   2.536   2.119  12.377  1.2544 -1.1554 -0.0817
11491TIP3    H255889   2.505   2.039  12.253  0.8594 -0.4396 -0.4551
11492TIP3   OH255890   0.949   1.828  13.801 -0.2013 -0.3026 -0.1117
11492TIP3    H155891   0.952   1.746  13.752  3.4695  0.7268 -1.9179
11492TIP3    H255892   0.992   1.809  13.884  2.0230  0.0179 -1.1238
11493TIP3   OH255893   3.957   4.158   2.800  0.0232  0.2078 -0.9044
11493TIP3    H155894   3.869   4.150   2.763 -0.3616 -0.8125  0.1860
11493TIP3    H255895   4.008   4.199   2.731 -0.7323 -1.3956 -2.4928
11494TIP3   OH255896   6.650   4.235   5.783 -0.1382 -0.2173  0.5160
11494TIP3    H155897   6.694   4.169   5.838  0.3125  0.5779  1.1462
11494TIP3    H255898   6.721   4.294   5.757 -0.1606 -1.0959 -1.7677
11495TIP3   OH255899   2.435   3.965   5.174  0.9038 -0.3238  0.1015
11495TIP3    H155900   2.430   4.052   5.134  0.3003 -0.7238 -0.7368
11495TIP3    H255901   2.411   3.905   5.103  0.0093 -1.0735  1.0010
11496TIP3   OH255902   4.672   5.634   2.680 -0.4110  0.5723  0.2465
11496TIP3    H155903   4.664   5.540   2.699 -1.3679  1.0783  2.6670
11496TIP3    H255904   4.592   5.654   2.631 -0.2894  0.1887 -0.1248
11497TIP3   OH255905   5.359   6.501   0.866 -0.0391  0.3971 -0.7704
11497TIP3    H155906   5.363   6.488   0.771 -1.4091  0.6178 -0.8833
11497TIP3    H255907   5.271   6.471   0.890  0.2531  0.4493  0.4199
11498TIP3   OH255908   1.038   1.830   1.526  0.1094  0.4779  0.2723
11498TIP3    H155909   1.126   1.848   1.558  0.6816 -1.9448  0.2121
11498TIP3    H255910   0.985   1.817   1.605 -0.4887  2.8381  0.3435
11499TIP3   OH255911   3.116   6.249   5.539  0.6201  0.2847 -0.0276
11499TIP3    H155912   3.124   6.237   5.633  1.1929  0.4927 -0.0467
11499TIP3    H255913   3.031   6.211   5.517  1.1480 -1.2056  0.3441
11500TIP3   OH255914   0.802   1.050  15.743  0.1287  0.6120  0.1410
11500TIP3    H155915   0.761   0.977  15.790  0.1780  0.6692  0.2713
11500TIP3    H255916   0.833   1.010  15.662 -1.0847  0.7701 -0.4331
11501TIP3   OH255917   1.397   0.938  13.234 -0.5956 -0.0198  0.1239
11501TIP3    H155918   1.489   0.919  13.254 -0.9682 -0.0139  1.9958
11501TIP3    H255919   1.352   0.854  13.242 -0.9214  0.1638  0.2419
11502TIP3   OH255920   1.121   0.016  12.746  0.4080 -0.4159 -0.1280
11502TIP3    H155921   1.084  -0.064  12.781 -0.0344  0.1059  0.6168
11502TIP3    H255922   1.167  -0.012  12.666  0.6451 -1.4645  0.3584
11503TIP3   OH255923   6.203   6.316   2.264  0.4827 -0.3963  0.5389
11503TIP3    H155924   6.217   6.362   2.346 -2.2091 -0.5913  1.1844
11503TIP3    H255925   6.230   6.226   2.282 -0.9522 -0.6553  1.5577
11504TIP3   OH255926   6.176   1.798  12.808  0.1658  0.0299  0.1341
11504TIP3    H155927   6.195   1.892  12.803  1.6826 -0.3035 -0.9707
11504TIP3    H255928   6.098   1.787  12.752  1.6110  0.2615 -2.0384
11505TIP3   OH255929   6.241   6.340  11.145 -0.4126  0.1555  0.2571
11505TIP3    H155930   6.292   6.341  11.226  1.6996 -1.2610 -0.9835
11505TIP3    H255931   6.194   6.257  11.147 -1.1844  0.5853  0.4818
11506TIP3   OH255932   5.552   2.386  16.964  0.5258 -0.2541 -0.4738
11506TIP3    H155933   5.556   2.471  17.008 -0.1546 -1.2009  1.5563
11506TIP3    H255934   5.629   2.339  16.996  0.4168 -0.7164 -0.8751
11507TIP3   OH255935   6.275   0.197  13.034 -0.2009  0.0391  0.1151
11507TIP3    H155936   6.287   0.229  13.123 -1.9494  1.2436 -0.0215
11507TIP3    H255937   6.228   0.114  13.044 -0.0043 -0.0498  0.3119
11508TIP3   OH255938   5.644   3.689   1.977  0.3335  0.1301 -0.0102
11508TIP3    H155939   5.719   3.633   1.997  1.7409  1.7532 -0.4227
11508TIP3    H255940   5.603   3.705   2.062  0.0379 -1.3185  0.1349
11509TIP3   OH255941   2.945   1.845  12.113 -0.0504 -0.7128  0.8777
11509TIP3    H155942   2.968   1.767  12.062 -0.0607  0.0975 -0.4200
11509TIP3    H255943   3.007   1.845  12.186  0.3098 -1.6223  0.5907
11510TIP3   OH255944   0.321   2.741  13.747 -0.2270  0.6491  0.0421
11510TIP3    H155945   0.334   2.775  13.659 -2.6169  1.2344 -0.1452
11510TIP3    H255946   0.230   2.761  13.768  0.0024 -0.3109  2.2946
11511TIP3   OH255947   0.570   1.557  13.451  0.0081  0.3385 -0.3592
11511TIP3    H155948   0.559   1.539  13.358 -0.5216  1.4873 -0.5392
11511TIP3    H255949   0.550   1.651  13.460  2.4746  0.8667  0.5104
11512TIP3   OH255950   5.689   1.203   5.901 -0.0523  0.4557 -0.0990
11512TIP3    H155951   5.778   1.233   5.921  0.1584 -0.4991  0.4051
11512TIP3    H255952   5.659   1.158   5.980 -1.3850  1.6266  0.1167
11513TIP3   OH255953   0.031   3.990  13.043  0.1913 -0.2626 -0.0221
11513TIP3    H155954  -0.019   3.958  13.119  0.0957 -0.2814 -0.0930
11513TIP3    H255955   0.089   4.057  13.079  0.2161 -0.3420  0.0846
11514TIP3   OH255956   4.988   5.844  14.338 -0.5095  0.0271 -0.0711
11514TIP3    H155957   5.012   5.759  14.301 -0.1927  0.4677 -0.8958
11514TIP3    H255958   4.898   5.832  14.368 -0.7900 -0.3331 -1.0178
11515TIP3   OH255959   2.766   5.863  16.690  0.3801  0.0380 -0.1027
11515TIP3    H155960   2.787   5.923  16.619 -1.3743  1.3843  0.4529
11515TIP3    H255961   2.747   5.780  16.646 -1.3131  1.0153 -1.3283
11516TIP3   OH255962   0.648   0.323   4.929 -0.0181 -0.4230  0.2673
11516TIP3    H155963   0.723   0.327   4.869 -1.3834  1.2252 -1.4600
11516TIP3    H255964   0.647   0.410   4.970 -0.9607 -0.4141  0.2453
11517TIP3   OH255965   2.270   2.763  15.283 -0.1537  0.2771 -0.2139
11517TIP3    H155966   2.282   2.681  15.235 -1.4245 -0.5017  0.7452
11517TIP3    H255967   2.181   2.759  15.317 -0.7732  2.7098 -1.2975
11518TIP3   OH255968   2.209   2.821  15.691 -0.3359  0.6357  0.5480
11518TIP3    H155969   2.114   2.813  15.685 -0.5156  2.2011  0.8738
11518TIP3    H255970   2.243   2.738  15.658 -1.8081  0.1839  0.1261
11519TIP3   OH255971   2.435   4.318  11.233  0.2423  0.9112 -0.3415
11519TIP3    H155972   2.342   4.315  11.254  0.0500  0.6996 -1.1965
11519TIP3    H255973   2.454   4.411  11.219  0.1699  0.9573 -0.1313
11520TIP3   OH255974   2.538   2.710  12.950  0.4080 -0.7222 -0.4233
11520TIP3    H155975   2.551   2.795  12.993 -1.7879 -1.2912  1.5703
11520TIP3    H255976   2.446   2.710  12.923 -0.0384 -2.8827  0.7875
11521TIP3   OH255977   5.753   4.025   3.662  0.5017 -0.1746  0.4579
11521TIP3    H155978   5.846   4.003   3.661  0.1280 -1.9453  1.4607
11521TIP3    H255979   5.722   3.992   3.746 -0.7321  1.8154  0.8453
11522TIP3   OH255980   1.584   2.010  13.492  0.2196  0.4037  0.2833
11522TIP3    H155981   1.675   2.039  13.483  0.4206 -0.4564 -0.6986
11522TIP3    H255982   1.590   1.922  13.528 -0.1661  0.0278 -0.5334
11523TIP3   OH255983   2.967   3.079   0.179 -0.2910  0.4813  0.0859
11523TIP3    H155984   3.009   3.120   0.104 -2.7833  1.2803 -0.9952
11523TIP3    H255985   2.873   3.089   0.163 -0.9828 -1.8851  1.9200
11524TIP3   OH255986   4.574   4.490  16.147  0.0632  0.4130 -0.3266
11524TIP3    H155987   4.606   4.426  16.083  0.2269  0.7043 -0.5390
11524TIP3    H255988   4.620   4.467  16.229 -0.8133 -0.5112 -0.0799
11525TIP3   OH255989   5.937   5.422   5.171 -0.5016  0.1133 -0.2849
11525TIP3    H155990   5.885   5.351   5.134  1.9591 -1.1149 -1.5719
11525TIP3    H255991   6.005   5.378   5.222  0.8594  1.5300 -0.7955
11526TIP3   OH255992   5.274   5.350  13.718  0.3454 -0.0966  0.6970
11526TIP3    H155993   5.276   5.359  13.623  1.3290 -0.7096  0.6436
11526TIP3    H255994   5.214   5.418  13.748 -1.3547 -1.0162 -0.4804
11527TIP3   OH255995   3.536   6.364  16.858  0.2483 -0.7457  0.1532
11527TIP3    H155996   3.629   6.368  16.835  0.6801 -3.1438  1.1823
11527TIP3    H255997   3.536   6.350  16.953 -1.2746  1.3980  0.5602
11528TIP3   OH255998   5.658   3.336   1.964 -0.0880 -0.7559  0.1633
11528TIP3    H155999   5.591   3.376   2.019  0.0375 -2.2838  1.4967
11528TIP3    H256000   5.737   3.389   1.979 -1.0939  1.6216 -2.1103
11529TIP3   OH256001   0.819   0.300   3.053 -0.9074 -0.1767 -0.6186
11529TIP3    H156002   0.869   0.345   2.985 -0.3282  0.9325  0.5022
11529TIP3    H256003   0.790   0.370   3.111 -1.9464 -1.0384 -0.0764
11530TIP3   OH256004   2.108   0.358  15.241  0.1234 -0.3553 -0.2997
11530TIP3    H156005   2.095   0.448  15.272  2.2231  0.6695 -2.1311
11530TIP3    H256006   2.089   0.363  15.147 -1.3776 -2.2559 -0.1441
11531TIP3   OH256007   2.156   1.266  16.819 -0.2478  0.2406  0.4949
11531TIP3    H156008   2.185   1.356  16.835 -0.0270 -0.2708  3.5743
11531TIP3    H256009   2.211   1.212  16.877 -2.9877 -1.4319  1.7707
11532TIP3   OH256010   5.958   5.044  11.602 -0.4473 -0.5578  0.5466
11532TIP3    H156011   5.873   5.008  11.628 -0.0527 -1.3854  0.7258
11532TIP3    H256012   5.937   5.117  11.545 -1.2945 -2.2029 -1.3885
11533TIP3   OH256013   1.494   2.785  13.957  0.1097  0.2998  0.1004
11533TIP3    H156014   1.423   2.723  13.973  0.4371  0.5524  2.9240
11533TIP3    H256015   1.574   2.736  13.977  0.5141  1.0089  0.2589
11534TIP3   OH256016   0.111   2.154  11.808  0.4576 -0.1360  0.0101
11534TIP3    H156017   0.076   2.219  11.870 -0.4026 -0.3744 -0.2111
11534TIP3    H256018   0.202   2.180  11.795  0.6207  0.0051  1.2645
11535TIP3   OH256019   2.611   2.892   1.472  0.2488  0.1645 -0.8113
11535TIP3    H156020   2.699   2.855   1.475 -0.6056 -1.9361  0.0226
11535TIP3    H256021   2.577   2.880   1.561 -0.4122  2.2364 -0.7215
11536TIP3   OH256022   1.436   1.713   2.223  0.3883 -0.1081  0.1435
11536TIP3    H156023   1.471   1.665   2.298 -0.0697  1.1162  1.1636
11536TIP3    H256024   1.458   1.804   2.240 -0.7329  0.3270 -0.6407
11537TIP3   OH256025   1.255   5.077   5.107 -0.4583  0.4590 -0.2544
11537TIP3    H156026   1.264   5.120   5.022 -1.1732  1.8454  0.3368
11537TIP3    H256027   1.246   4.984   5.086  0.7468  0.6219 -1.6017
11538TIP3   OH256028   0.867   1.601  13.114 -0.2566  0.5108  0.0047
11538TIP3    H156029   0.949   1.645  13.092 -0.3652  1.4539  1.3909
11538TIP3    H256030   0.808   1.671  13.141 -1.3450 -0.2128 -0.4079
11539TIP3   OH256031   3.715   4.147   1.102 -0.4503 -0.0343  0.3045
11539TIP3    H156032   3.664   4.211   1.052  1.0650 -0.0293 -1.3443
11539TIP3    H256033   3.726   4.187   1.188 -1.8748  0.6513  0.1874
11540TIP3   OH256034   6.777   0.844  15.818  0.1998  0.0652 -0.5134
11540TIP3    H156035   6.689   0.851  15.780  0.0895  0.4757 -0.1849
11540TIP3    H256036   6.817   0.769  15.772 -1.0639 -1.5074  0.8164
11541TIP3   OH256037   6.267   1.686  15.092 -0.0274  0.3938  0.1700
11541TIP3    H156038   6.209   1.621  15.132  2.5623 -0.4902  2.8356
11541TIP3    H256039   6.272   1.757  15.156  3.4761 -0.6014  1.1987
11542TIP3   OH256040   4.458   0.763  11.428  0.5794 -0.4503 -0.1645
11542TIP3    H156041   4.414   0.839  11.389  2.4903  1.3820  1.0440
11542TIP3    H256042   4.512   0.728  11.358  0.5866  0.0361 -0.4055
11543TIP3   OH256043   6.455   4.965   2.838  0.0315  1.3534 -0.2519
11543TIP3    H156044   6.513   5.010   2.776 -0.6352  0.0343 -1.9177
11543TIP3    H256045   6.381   5.025   2.849 -0.2153  1.2789 -1.3801
11544TIP3   OH256046   1.777   4.422   4.848 -0.4186  0.5764 -0.2678
11544TIP3    H156047   1.801   4.515   4.852 -0.9316  0.8274 -2.0279
11544TIP3    H256048   1.712   4.411   4.917 -1.5956  1.9443 -1.1082
11545TIP3   OH256049   6.204   5.036   5.611 -0.1705  0.2359 -0.4291
11545TIP3    H156050   6.244   4.999   5.690 -0.0698 -0.6617 -0.8795
11545TIP3    H256051   6.234   5.126   5.608 -1.6404  0.8516  1.5306
11546TIP3   OH256052   1.407   6.550   0.112  0.0552  0.6424  0.5498
11546TIP3    H156053   1.332   6.526   0.166  1.4650 -2.0080  1.5295
11546TIP3    H256054   1.404   6.490   0.038 -0.1988  2.2628 -0.7936
11547TIP3   OH256055   3.832   2.401  14.585  0.2714 -0.4846 -0.2175
11547TIP3    H156056   3.896   2.464  14.618  0.1644 -0.1886 -0.5723
11547TIP3    H256057   3.830   2.416  14.490  0.3876 -1.1501 -0.3318
11548TIP3   OH256058   2.446   2.308   6.071  0.5721 -0.2909 -0.1716
11548TIP3    H156059   2.449   2.403   6.084 -1.3099 -0.4000  1.3132
11548TIP3    H256060   2.539   2.282   6.068  1.1452  1.6317 -1.2779
11549TIP3   OH256061   1.059   3.528   1.462 -0.2120 -0.4301 -0.0002
11549TIP3    H156062   1.134   3.517   1.520  0.2249 -0.6405 -0.5886
11549TIP3    H256063   1.074   3.465   1.391 -1.2094 -0.8490  0.1339
11550TIP3   OH256064   2.556   0.389   5.248  0.1426  0.0855  0.2674
11550TIP3    H156065   2.483   0.382   5.310 -0.6759 -2.4049 -0.8182
11550TIP3    H256066   2.619   0.323   5.278  0.7034  0.3234 -0.3565
11551TIP3   OH256067   6.595   0.416  12.915 -0.2262 -0.1410 -0.4899
11551TIP3    H156068   6.582   0.321  12.922 -0.2832 -0.0873  0.2331
11551TIP3    H256069   6.677   0.432  12.963 -0.0194  0.1284 -0.9306
11552TIP3   OH256070   5.564   3.541   1.287  0.1579  0.0642  0.3138
11552TIP3    H156071   5.532   3.453   1.308 -0.1682  0.1881  0.3368
11552TIP3    H256072   5.659   3.531   1.280  0.3308  0.0807  2.2108
11553TIP3   OH256073   5.935   1.778   2.479 -0.3364 -0.4905  0.0573
11553TIP3    H156074   5.996   1.833   2.528 -1.9316  1.3045  0.1108
11553TIP3    H256075   5.990   1.732   2.415  1.3604 -0.6562  1.5476
11554TIP3   OH256076   5.394   6.792  13.851 -0.3042 -0.0320 -0.2004
11554TIP3    H156077   5.383   6.727  13.781 -0.5036  2.1124 -2.3074
11554TIP3    H256078   5.375   6.876  13.808  0.5423  1.4967  2.2311
11555TIP3   OH256079   1.126   0.594  14.592  0.1266 -0.1896 -0.1009
11555TIP3    H156080   1.085   0.508  14.598  1.1147 -1.1829 -4.1504
11555TIP3    H256081   1.219   0.575  14.581  0.4259  1.4209 -0.6006
11556TIP3   OH256082   1.018   6.208   3.173  0.4530  0.2437  0.0943
11556TIP3    H156083   1.075   6.183   3.101  0.8641  0.3881  0.3658
11556TIP3    H256084   1.025   6.135   3.235  0.8392  0.5514  0.4146
11557TIP3   OH256085   0.254   4.318  13.421  0.0425 -0.1365  0.2240
11557TIP3    H156086   0.202   4.390  13.386  0.2637 -0.5392 -0.9826
11557TIP3    H256087   0.190   4.263  13.467 -0.4054 -0.0177 -0.2439
11558TIP3   OH256088   3.047   6.352   4.026 -0.1739  0.2758 -0.1905
11558TIP3    H156089   3.051   6.267   3.982  1.8596  1.2191 -2.0377
11558TIP3    H256090   3.122   6.400   3.991 -1.7397  3.1562  0.1191
11559TIP3   OH256091   1.242   1.167  14.508 -0.5093  0.0448 -0.4760
11559TIP3    H156092   1.306   1.223  14.552 -0.9642 -0.1367  0.4394
11559TIP3    H256093   1.269   1.167  14.416 -0.3004  1.4866 -0.4426
11560TIP3   OH256094   1.816   1.903  13.722 -0.1305  0.1365 -0.3076
11560TIP3    H156095   1.825   1.992  13.756  0.7704 -0.4335  1.0465
11560TIP3    H256096   1.906   1.872  13.713 -0.4345 -0.6281 -0.7934
11561TIP3   OH256097   6.197   1.423   4.261  0.3058 -0.4515 -0.1463
11561TIP3    H156098   6.126   1.372   4.221  0.8825 -0.8247 -0.7356
11561TIP3    H256099   6.202   1.391   4.351 -0.4525 -0.2177 -0.0154
11562TIP3   OH256100   2.636   4.984  14.866  0.0284 -0.3977 -0.1041
11562TIP3    H156101   2.715   5.012  14.912 -0.7829  1.9350  0.0201
11562TIP3    H256102   2.661   4.984  14.774  0.6894 -1.6643  0.0485
11563TIP3   OH256103   0.596   4.071  16.533 -0.0077  0.0559 -0.4145
11563TIP3    H156104   0.672   4.046  16.586 -1.4191 -1.3146  1.0758
11563TIP3    H256105   0.557   4.144  16.581 -0.1184  0.1768 -0.6901
11564TIP3   OH256106   5.434   5.321  16.702 -0.0026 -0.0517 -0.4172
11564TIP3    H156107   5.477   5.310  16.787  0.5733 -0.0397 -0.6970
11564TIP3    H256108   5.354   5.270  16.708  0.2353 -0.3856 -0.0044
11565TIP3   OH256109   1.419   0.202  14.606 -0.3607 -0.1935 -0.7066
11565TIP3    H156110   1.325   0.218  14.613 -0.5899 -0.8746 -2.0058
11565TIP3    H256111   1.435   0.124  14.658 -0.0819  1.2094  1.4537
11566TIP3   OH256112   6.156   0.722  16.343 -0.4176  0.3924 -0.2515
11566TIP3    H156113   6.242   0.765  16.345 -1.4745  2.6470  0.3523
11566TIP3    H256114   6.146   0.685  16.430  0.5478 -1.2843 -0.8072
11567TIP3   OH256115   5.873   2.111   5.312  0.3549  0.8896 -0.0122
11567TIP3    H156116   5.896   2.171   5.384 -1.1523  1.6803 -0.1592
11567TIP3    H256117   5.868   2.167   5.235 -0.7194  0.5197 -0.2182
11568TIP3   OH256118   5.897   6.543  16.787 -0.2994  1.0335  0.5603
11568TIP3    H156119   5.907   6.497  16.704 -2.5057  1.4420 -0.0004
11568TIP3    H256120   5.911   6.475  16.854  2.8499  0.9714 -0.0059
11569TIP3   OH256121   4.385   2.991   5.710 -0.5432  0.3681  0.1170
11569TIP3    H156122   4.451   2.946   5.764 -1.8692 -0.7066  0.8914
11569TIP3    H256123   4.301   2.962   5.745 -1.4687 -0.0037 -2.2597
11570TIP3   OH256124   4.535   5.649   1.162 -0.2446  0.3841 -0.4900
11570TIP3    H156125   4.578   5.706   1.098 -0.8642  1.1603 -0.2193
11570TIP3    H256126   4.442   5.659   1.145 -0.4883  1.4327  1.2205
11571TIP3   OH256127   4.397   4.414   1.704 -0.2230  0.2444  0.8267
11571TIP3    H156128   4.416   4.508   1.715  0.4240  0.2718 -0.3321
11571TIP3    H256129   4.403   4.378   1.792 -1.8503  1.5151  1.5278
11572TIP3   OH256130   6.071   5.194   6.441  0.1311  0.2416 -0.5526
11572TIP3    H156131   6.049   5.285   6.460 -0.8335  0.0169 -0.5052
11572TIP3    H256132   6.161   5.196   6.410  0.8126  0.9761  1.3553
11573TIP3   OH256133   1.319   3.350  15.829  0.0144  0.3730 -0.3946
11573TIP3    H156134   1.263   3.354  15.752 -1.5498  0.6667  0.7062
11573TIP3    H256135   1.408   3.362  15.795 -0.6589  0.7707 -2.1061
11574TIP3   OH256136   4.717   6.071  14.804  0.5219 -0.5113  0.6697
11574TIP3    H156137   4.709   6.136  14.735  1.5674 -0.3027  0.7289
11574TIP3    H256138   4.629   6.036  14.814  0.3143 -0.4097 -0.6332
11575TIP3   OH256139   3.682   2.539  11.555 -0.2663 -0.4143 -0.2492
11575TIP3    H156140   3.693   2.599  11.629 -1.2286  0.5327 -0.8450
11575TIP3    H256141   3.620   2.584  11.498  0.1800 -1.3026 -1.4520
11576TIP3   OH256142   0.790   6.414   3.796 -0.2786 -0.3395 -0.2797
11576TIP3    H156143   0.821   6.324   3.809  0.0798 -0.0745  0.8937
11576TIP3    H256144   0.703   6.415   3.835  0.1096  0.0425  0.6213
11577TIP3   OH256145   1.579   2.387   2.466 -0.5994  0.3236 -0.3425
11577TIP3    H156146   1.554   2.409   2.377  0.1677  1.9766 -0.1727
11577TIP3    H256147   1.673   2.371   2.462 -0.4409  1.0558  0.2801
11578TIP3   OH256148   4.498   2.918   6.168  0.1136  0.2884 -0.2108
11578TIP3    H156149   4.405   2.914   6.189 -0.1029  1.6317 -0.8623
11578TIP3    H256150   4.540   2.947   6.250 -0.2485  1.3819 -0.3968
11579TIP3   OH256151   0.579   5.153  14.668 -0.1969 -0.0169  0.4444
11579TIP3    H156152   0.586   5.237  14.622  0.0539 -0.5778 -0.5905
11579TIP3    H256153   0.517   5.102  14.616 -0.3556 -0.4708  1.0673
11580TIP3   OH256154   6.684   1.087  14.925  1.0116  0.5974 -0.7238
11580TIP3    H156155   6.729   1.003  14.934  1.2636  0.8628  0.6593
11580TIP3    H256156   6.609   1.068  14.868  0.5428 -0.7824  0.2921
11581TIP3   OH256157   2.422   3.116  16.046 -0.2260  0.7171 -0.1632
11581TIP3    H156158   2.364   3.087  15.976 -0.8783  0.8214  0.3268
11581TIP3    H256159   2.373   3.099  16.126  0.3967  0.8672  0.2568
11582TIP3   OH256160   5.046   2.353  11.627 -0.0595 -0.0787  0.6487
11582TIP3    H156161   5.139   2.362  11.608 -0.3617  1.5694 -0.3033
11582TIP3    H256162   5.042   2.291  11.700  1.7712 -0.2124  0.6888
11583TIP3   OH256163   2.580   1.305   4.911  0.7562 -0.2503  0.0554
11583TIP3    H156164   2.641   1.376   4.929  1.9207 -1.0826 -0.5017
11583TIP3    H256165   2.501   1.349   4.880 -0.4835  1.1484  4.4370
11584TIP3   OH256166   2.575   2.990  12.626 -0.2307 -0.1731  0.5489
11584TIP3    H156167   2.514   3.048  12.672  0.0649 -0.4888  1.3567
11584TIP3    H256168   2.538   2.981  12.538 -0.1787  1.3804  0.3406
11585TIP3   OH256169   4.889   0.350   0.406  0.0232 -0.3935 -0.0412
11585TIP3    H156170   4.979   0.379   0.421 -0.7508  1.6340  1.1085
11585TIP3    H256171   4.874   0.366   0.313  0.2905  1.0664  0.1369
11586TIP3   OH256172   0.370   2.861  16.942  0.3713  0.4276  0.2656
11586TIP3    H156173   0.418   2.867  17.025  2.4392 -0.6792 -0.7579
11586TIP3    H256174   0.338   2.770  16.940 -0.5112  0.7318  0.2718
11587TIP3   OH256175   5.659   6.663   1.480  0.1647  0.0755  0.5890
11587TIP3    H156176   5.565   6.668   1.497  0.1605  0.6578  0.4339
11587TIP3    H256177   5.670   6.703   1.393  0.5302 -0.1705  0.5187
11588TIP3   OH256178   4.669   6.458   4.378 -0.5026 -0.2552 -0.1053
11588TIP3    H156179   4.718   6.524   4.426  2.2010 -1.4445 -1.0521
11588TIP3    H256180   4.690   6.473   4.286 -0.5017 -1.8541 -0.4084
11589TIP3   OH256181   3.370   5.630  16.120  0.1448 -0.3982  0.2005
11589TIP3    H156182   3.330   5.712  16.148  0.2210 -0.0153 -0.7643
11589TIP3    H256183   3.434   5.609  16.187 -1.5478 -0.9490  1.7293
11590TIP3   OH256184   2.738   4.044   5.075  0.2205  0.3542 -0.3920
11590TIP3    H156185   2.746   3.998   5.159  0.6332  1.5794  0.2647
11590TIP3    H256186   2.812   4.105   5.073 -0.2962  0.9879 -1.2251
11591TIP3   OH256187   5.918   5.116   2.874 -0.3561 -0.7357  0.1645
11591TIP3    H156188   5.979   5.069   2.817 -0.9278 -1.1230 -0.1314
11591TIP3    H256189   5.973   5.180   2.920  0.0711 -0.2348 -1.0144
11592TIP3   OH256190   3.957   3.715   2.324 -0.3646 -0.3499  0.2964
11592TIP3    H156191   3.935   3.765   2.403 -0.6007 -1.7305  1.1388
11592TIP3    H256192   3.915   3.762   2.252 -1.0555  0.3278  1.1315
11593TIP3   OH256193   3.944   0.425  15.509 -0.1066 -0.1138 -0.0345
11593TIP3    H156194   3.987   0.425  15.423 -0.4994  0.9816 -0.2469
11593TIP3    H256195   3.884   0.351  15.506  0.2752 -0.4108 -0.5023
11594TIP3   OH256196   2.113   3.228  15.908 -0.4412 -0.2271  0.3391
11594TIP3    H156197   2.085   3.157  15.966 -1.2306  0.6312  1.0239
11594TIP3    H256198   2.188   3.191  15.860 -0.8329 -1.5204  0.6768
11595TIP3   OH256199   4.126   0.062  12.802  0.4388  0.5042  0.1244
11595TIP3    H156200   4.136   0.151  12.767 -1.4254  0.7785  0.1880
11595TIP3    H256201   4.189   0.010  12.753  1.3078  1.7824 -0.1865
11596TIP3   OH256202   0.744   1.231   3.285 -0.4932  0.0412  0.0199
11596TIP3    H156203   0.675   1.224   3.219  0.8155 -1.1836 -1.2922
11596TIP3    H256204   0.765   1.140   3.308 -0.9092  0.4330  2.1719
11597TIP3   OH256205   2.373   1.397   0.443  0.0392  0.1366  0.1366
11597TIP3    H156206   2.291   1.426   0.483  0.4380  0.6098  0.6341
11597TIP3    H256207   2.400   1.322   0.497 -0.3597 -0.3989 -0.3913
11598TIP3   OH256208   0.992   5.746  11.931  0.0485 -0.0207 -0.2099
11598TIP3    H156209   0.941   5.824  11.910  0.0893 -0.3587 -1.7066
11598TIP3    H256210   1.078   5.778  11.956 -0.6598  0.5226  1.7091
11599TIP3   OH256211   0.060   4.496  13.706  0.3438 -0.0459 -0.1489
11599TIP3    H156212  -0.018   4.452  13.671 -0.8371  1.4895  0.4433
11599TIP3    H256213   0.083   4.560  13.639  0.5441  0.1291  0.0891
11600TIP3   OH256214   0.894   0.783   1.628 -0.4783  0.0259 -0.3899
11600TIP3    H156215   0.971   0.732   1.651 -0.8507 -0.8927 -1.1156
11600TIP3    H256216   0.841   0.784   1.707  0.5175  1.1693  0.3013
11601TIP3   OH256217   1.845   0.858  16.032 -0.0476 -0.5706  0.0069
11601TIP3    H156218   1.817   0.939  16.074  0.9246 -0.4078  0.3666
11601TIP3    H256219   1.806   0.789  16.086 -2.1440 -0.3717 -1.1762
11602TIP3   OH256220   3.496   0.966  15.951  0.3270  0.7764 -0.3679
11602TIP3    H156221   3.405   0.940  15.940  0.2561  0.5783  0.6159
11602TIP3    H256222   3.519   0.939  16.040  0.8592  2.2681 -0.0299
11603TIP3   OH256223   3.501   0.841  16.194 -0.3588  0.2330 -0.3211
11603TIP3    H156224   3.515   0.797  16.277  0.5687  2.0384  0.5487
11603TIP3    H256225   3.418   0.807  16.162 -0.5352 -0.7953  1.1494
11604TIP3   OH256226   5.341   3.200  16.514  0.1793 -0.7224 -0.0908
11604TIP3    H156227   5.292   3.155  16.583 -0.3227 -1.9910 -1.2101
11604TIP3    H256228   5.429   3.164  16.520  0.8315  0.9847  1.4202
11605TIP3   OH256229   2.741   2.328  13.920 -0.6910  0.0430 -0.2184
11605TIP3    H156230   2.749   2.236  13.944 -0.1345  0.1719  0.1082
11605TIP3    H256231   2.647   2.341  13.906 -0.6650 -0.8509 -1.3863
11606TIP3   OH256232   0.742   6.744  14.632  0.4786 -0.1023  0.1961
11606TIP3    H156233   0.809   6.687  14.669 -0.1881 -3.0305 -2.6367
11606TIP3    H256234   0.663   6.689  14.629 -0.7964  1.6922 -0.7987
11607TIP3   OH256235   1.734   1.587   0.730  0.4922 -0.5444 -0.6465
11607TIP3    H156236   1.668   1.547   0.786 -0.4135  0.6442 -0.8180
11607TIP3    H256237   1.809   1.528   0.734 -0.1223 -1.2639  0.5707
11608TIP3   OH256238   5.121   3.029   3.687  0.2099 -0.1542 -0.3629
11608TIP3    H156239   5.118   2.940   3.653  0.0767 -0.2069 -0.2140
11608TIP3    H256240   5.047   3.034   3.749  0.1627  0.0844 -0.4364
11609TIP3   OH256241   2.393   0.434   0.110 -0.2187  0.6712 -0.3928
11609TIP3    H156242   2.353   0.508   0.155 -1.2225 -0.2009  0.1779
11609TIP3    H256243   2.421   0.469   0.025 -1.1025  1.5804 -0.3165
11610TIP3   OH256244   4.062   0.442   6.736  0.3294  0.6580 -0.2279
11610TIP3    H156245   4.098   0.529   6.756 -1.0675  1.0771  0.6668
11610TIP3    H256246   4.121   0.381   6.780  1.8571  1.0579 -1.6245
11611TIP3   OH256247   3.550   4.900   4.950 -0.5279 -0.1890 -0.2149
11611TIP3    H156248   3.541   4.957   4.874  0.3892 -1.5671 -1.4256
11611TIP3    H256249   3.585   4.956   5.019  0.6370  0.6479 -1.4454
11612TIP3   OH256250   2.837   5.324   3.911  0.0907  0.8109 -0.0951
11612TIP3    H156251   2.915   5.272   3.931 -0.8676 -0.7027 -0.0551
11612TIP3    H256252   2.805   5.351   3.997  1.3563  2.7341 -0.1756
11613TIP3   OH256253   3.990   2.931  15.639  0.1534 -0.0542  0.0800
11613TIP3    H156254   4.000   2.927  15.734  0.4200 -0.3296  0.0408
11613TIP3    H256255   3.929   3.003  15.624 -0.4649 -0.4788  0.5067
11614TIP3   OH256256   2.472   2.710   1.857 -0.0969  0.1896 -0.2819
11614TIP3    H156257   2.442   2.672   1.939  1.1248  0.0942  0.1421
11614TIP3    H256258   2.442   2.801   1.861  0.3351  0.3065  0.4804
11615TIP3   OH256259   0.967   1.430  11.307  0.8273  0.0649 -0.3627
11615TIP3    H156260   0.979   1.412  11.214  0.6393 -0.8882 -0.2098
11615TIP3    H256261   0.946   1.345  11.346 -1.3890  0.8215  0.1998
11616TIP3   OH256262   6.622   6.398   1.910  0.0724 -0.0164  0.7247
11616TIP3    H156263   6.612   6.392   2.005  2.2373 -0.3678  0.9718
11616TIP3    H256264   6.642   6.490   1.893  1.0520 -0.2077  0.7857
11617TIP3   OH256265   3.722   2.173  14.076 -0.1711  0.1355 -0.1456
11617TIP3    H156266   3.760   2.086  14.065  0.8417  0.6312 -0.8074
11617TIP3    H256267   3.637   2.158  14.117  1.0034 -1.0132  2.0694
11618TIP3   OH256268   2.966   6.488   4.413 -0.0556  0.2644 -0.3777
11618TIP3    H156269   3.027   6.526   4.476 -0.4275  1.1354 -0.5350
11618TIP3    H256270   2.913   6.562   4.383  0.6122  0.0182 -2.2864
11619TIP3   OH256271   3.332   2.244  11.325 -0.3581  0.2208 -0.6365
11619TIP3    H156272   3.409   2.275  11.276  0.9715 -2.2530 -0.2794
11619TIP3    H256273   3.273   2.211  11.257  1.3889 -3.0032 -0.7801
11620TIP3   OH256274   1.300   0.259   1.823 -0.2411  0.3435 -0.0398
11620TIP3    H156275   1.209   0.246   1.795  0.5972 -2.3636 -1.8470
11620TIP3    H256276   1.339   0.313   1.754 -0.4510  1.6758  0.8356
11621TIP3   OH256277   4.595   3.042  15.865 -0.3546 -0.4548 -0.2717
11621TIP3    H156278   4.620   2.998  15.946 -1.3989 -0.1314  0.2394
11621TIP3    H256279   4.574   3.131  15.891  1.7998  0.4307 -1.3095
11622TIP3   OH256280   1.273   2.528   3.996  0.1005  0.0577 -0.1403
11622TIP3    H156281   1.318   2.528   3.912  1.2868 -1.5546  0.4470
11622TIP3    H256282   1.256   2.435   4.015  0.6662  0.2927  1.7939
11623TIP3   OH256283   0.901   6.215  14.373 -0.4045 -0.0951  0.3276
11623TIP3    H156284   0.948   6.147  14.421  0.9770  1.1116  0.7775
11623TIP3    H256285   0.934   6.297  14.411 -0.4714  0.8686 -1.5944
11624TIP3   OH256286   6.768   3.261  11.650 -1.1213  0.0522 -0.2083
11624TIP3    H156287   6.818   3.186  11.620 -0.0609  0.1465  1.1991
11624TIP3    H256288   6.712   3.227  11.719 -1.1410  0.4191 -0.0381
11625TIP3   OH256289   4.413   5.629  14.339 -0.6476  0.0708 -0.4821
11625TIP3    H156290   4.324   5.649  14.311 -0.9728 -1.3662 -0.5683
11625TIP3    H256291   4.448   5.713  14.370 -2.1401  0.6043 -0.1352
11626TIP3   OH256292   4.867   6.139   2.681  0.6420  0.1251 -0.6611
11626TIP3    H156293   4.892   6.110   2.593 -0.5024  2.3645 -1.8195
11626TIP3    H256294   4.936   6.201   2.706  0.1280  0.7378 -0.7192
11627TIP3   OH256295   5.969   4.431  13.718 -0.2336  0.2477  0.1051
11627TIP3    H156296   5.944   4.338  13.721 -2.3341  0.6962 -1.2641
11627TIP3    H256297   6.064   4.430  13.710 -0.0367 -1.7256  1.6447
11628TIP3   OH256298   2.054   0.254  14.267 -0.2026 -0.3437  0.8412
11628TIP3    H156299   2.032   0.172  14.311 -1.7542  0.5455  1.8221
11628TIP3    H256300   1.974   0.279  14.222  0.5576  0.1609 -0.2823
11629TIP3   OH256301   0.119   2.076  16.679  0.1833  0.0150 -0.7083
11629TIP3    H156302   0.098   1.998  16.627 -0.3811 -0.4532  0.1907
11629TIP3    H256303   0.087   2.149  16.628  0.8824 -0.3258 -1.6588
11630TIP3   OH256304   1.033   3.148   0.159  0.5995 -0.2172  0.2581
11630TIP3    H156305   1.077   3.086   0.101  0.7999 -1.5427  1.7564
11630TIP3    H256306   0.963   3.186   0.105  1.3638 -0.6812 -1.1075
11631TIP3   OH256307   6.359   1.386  13.433 -0.2989  0.3161 -0.0153
11631TIP3    H156308   6.449   1.374  13.463  0.1130  1.2158 -0.8616
11631TIP3    H256309   6.325   1.458  13.486 -0.1019  0.8177 -0.5630
11632TIP3   OH256310   5.626   4.746  15.572  0.3743 -0.7493  0.2842
11632TIP3    H156311   5.692   4.801  15.612  0.4679 -0.7020  0.0639
11632TIP3    H256312   5.570   4.806  15.523  2.0303 -1.0888 -2.1807
11633TIP3   OH256313   6.133   4.049   5.354  0.0326  0.8535 -0.5270
11633TIP3    H156314   6.175   4.073   5.436  1.9085 -0.3219 -1.0471
11633TIP3    H256315   6.042   4.033   5.376  0.7441 -0.6664  1.6198
11634TIP3   OH256316   0.929   3.000  11.502 -0.3915 -0.3178 -0.2168
11634TIP3    H156317   0.940   2.911  11.469 -0.8667  0.1341 -1.6724
11634TIP3    H256318   0.953   2.994  11.595  1.3051 -1.5836 -0.6853
11635TIP3   OH256319   5.108   3.375  16.154 -0.0923 -0.3069 -0.2185
11635TIP3    H156320   5.053   3.349  16.080 -1.0184  1.1921 -0.1054
11635TIP3    H256321   5.057   3.350  16.231  1.6219 -3.4695  0.0449
11636TIP3   OH256322   6.026   4.338  13.306 -0.3817  0.0472 -0.8666
11636TIP3    H156323   5.935   4.317  13.329 -0.4716  0.4900 -0.8117
11636TIP3    H256324   6.067   4.361  13.390 -0.1313 -0.4540 -0.8436
11637TIP3   OH256325   3.696   1.166   0.200 -0.1755 -0.1684 -0.5345
11637TIP3    H156326   3.700   1.239   0.138  1.0935  0.1686 -0.1050
11637TIP3    H256327   3.754   1.193   0.272 -0.1212 -1.3574 -0.1069
11638TIP3   OH256328   1.909   6.573  11.674 -0.4002  0.2803 -0.5295
11638TIP3    H156329   1.964   6.559  11.597  0.8143  1.3385  0.1143
11638TIP3    H256330   1.861   6.654  11.655  0.8732  1.2751  0.3245
11639TIP3   OH256331   4.925   0.983  13.772  0.7465 -0.1745  0.6553
11639TIP3    H156332   4.881   0.981  13.687  0.0016  0.8322  0.9987
11639TIP3    H256333   5.018   0.991  13.751  0.6276 -0.6142 -0.0672
11640TIP3   OH256334   3.856   6.644  13.272 -0.5301 -0.0343  0.0296
11640TIP3    H156335   3.806   6.702  13.214  1.3182  2.5076  0.8139
11640TIP3    H256336   3.897   6.581  13.213  0.9588  2.2161 -1.4856
11641TIP3   OH256337   3.874   2.038   1.862 -0.2151  0.2837 -0.1918
11641TIP3    H156338   3.833   2.114   1.822 -1.2482 -0.2196 -0.1215
11641TIP3    H256339   3.876   1.972   1.793 -0.7484 -0.1351  0.1856
11642TIP3   OH256340   5.703   1.562  13.067 -0.1747 -0.0868  0.0306
11642TIP3    H156341   5.645   1.491  13.040  0.5057 -0.6956  0.1463
11642TIP3    H256342   5.743   1.594  12.986 -0.5899  0.2716 -0.0390
11643TIP3   OH256343   3.006   3.738  16.115 -0.3706  0.3672  0.3384
11643TIP3    H156344   2.968   3.656  16.083 -0.2151 -0.9360  3.1716
11643TIP3    H256345   3.094   3.739  16.078 -0.6651 -0.2896 -0.4333
11644TIP3   OH256346   5.502   3.018   1.205  0.4000 -0.0069  0.1451
11644TIP3    H156347   5.573   2.987   1.148  0.0602  1.5131 -1.1741
11644TIP3    H256348   5.455   3.082   1.152 -1.0181  0.1790  1.5520
11645TIP3   OH256349   4.847   3.320   4.362  0.4480  0.3130 -0.0089
11645TIP3    H156350   4.752   3.315   4.363  0.3796 -2.9847 -2.9082
11645TIP3    H256351   4.869   3.343   4.271  2.3872 -0.8777  0.0949
11646TIP3   OH256352   4.221   5.776   2.208 -0.0173  0.0723 -0.5700
11646TIP3    H156353   4.145   5.808   2.256  1.0578 -1.4297  2.3799
11646TIP3    H256354   4.258   5.854   2.167 -1.4925  1.3301  0.3890
11647TIP3   OH256355   2.340   1.242   0.175 -0.2288  0.1573  0.7987
11647TIP3    H156356   2.354   1.306   0.245 -1.3023 -1.5970  2.7353
11647TIP3    H256357   2.366   1.287   0.095 -0.4559  2.8065  2.1307
11648TIP3   OH256358   4.531   2.864  13.090  0.4422  0.3279  0.0346
11648TIP3    H156359   4.518   2.894  13.000 -2.3913 -0.4206  0.0965
11648TIP3    H256360   4.554   2.943  13.139  1.6179  0.8053 -1.2343
11649TIP3   OH256361   3.550   1.442   2.291 -0.1915  0.6932  0.2955
11649TIP3    H156362   3.613   1.507   2.320  1.3126  0.1438 -1.5355
11649TIP3    H256363   3.473   1.493   2.265 -0.5028  1.3800  2.4128
11650TIP3   OH256364   2.831   2.147   3.851 -0.2172 -0.0940 -0.0491
11650TIP3    H156365   2.821   2.230   3.806  0.9331  2.7337  4.3111
11650TIP3    H256366   2.926   2.137   3.863 -0.4243 -1.0338  1.0663
11651TIP3   OH256367   5.828   1.345   5.381  0.0236 -0.0738  0.2396
11651TIP3    H156368   5.738   1.313   5.379  0.7495 -2.4684  1.3299
11651TIP3    H256369   5.880   1.273   5.344  1.4494  1.5067 -0.9951
11652TIP3   OH256370   2.235   2.670  14.582 -0.0752  0.0079 -0.6462
11652TIP3    H156371   2.149   2.628  14.586  0.1009 -0.2450  0.6052
11652TIP3    H256372   2.287   2.612  14.526 -0.5691 -0.0784 -1.0292
11653TIP3   OH256373   3.154   3.083  14.332 -0.4698 -0.0980 -0.3923
11653TIP3    H156374   3.157   3.002  14.382  1.0986  0.6088  0.7244
11653TIP3    H256375   3.178   3.057  14.243  0.4045 -0.8072  0.0397
11654TIP3   OH256376   3.313   5.131   4.997 -0.0874 -0.5207  0.0339
11654TIP3    H156377   3.407   5.119   5.012  0.0176 -0.3864 -0.5173
11654TIP3    H256378   3.283   5.179   5.075  0.4730  0.2483 -0.2053
11655TIP3   OH256379   3.142   2.432   0.013  0.6323  0.2122 -0.0419
11655TIP3    H156380   3.234   2.443   0.038  0.1732  0.9540  1.4544
11655TIP3    H256381   3.106   2.521   0.016 -0.0790 -0.0310 -0.9073
11656TIP3   OH256382   5.703   0.494  14.686 -0.1263  0.5115  0.3783
11656TIP3    H156383   5.786   0.534  14.661 -0.8696  2.0512  0.2601
11656TIP3    H256384   5.724   0.440  14.762  1.5617 -1.7260 -1.5127
11657TIP3   OH256385   1.460   4.477  13.093  0.1726  0.2700 -0.2817
11657TIP3    H156386   1.382   4.481  13.038 -0.0084  0.3106 -0.0282
11657TIP3    H256387   1.512   4.554  13.068 -0.7824  1.3458  0.8752
11658TIP3   OH256388   6.530   2.009   4.500  0.4492  0.0269 -0.2003
11658TIP3    H156389   6.453   2.007   4.556 -0.8523 -2.1408 -1.8739
11658TIP3    H256390   6.602   2.031   4.558 -1.2964  1.4507  1.5683
11659TIP3   OH256391   2.159   1.794   2.275 -0.0937 -0.5152  0.3987
11659TIP3    H156392   2.247   1.821   2.251  0.2582 -0.8376  1.2751
11659TIP3    H256393   2.120   1.871   2.317 -0.3529 -0.2680 -0.2870
11660TIP3   OH256394   0.273   0.774  15.789  0.1144 -0.2907  0.1315
11660TIP3    H156395   0.206   0.707  15.802 -0.0724 -0.0653  0.3289
11660TIP3    H256396   0.351   0.738  15.832 -0.2386  0.0300  1.0543
11661TIP3   OH256397   3.625   4.060  16.940 -0.2659 -0.3780  0.3153
11661TIP3    H156398   3.630   3.975  16.897  0.9106 -0.5093  0.6590
11661TIP3    H256399   3.564   4.046  17.012 -1.2020 -0.5229 -0.4887
11662TIP3   OH256400   3.291   2.638   1.232 -1.0363  0.4583 -0.6117
11662TIP3    H156401   3.385   2.630   1.249 -0.8486  3.6054  0.4501
11662TIP3    H256402   3.253   2.660   1.317 -2.8539 -1.0756 -0.9532
11663TIP3   OH256403   0.401   2.613   3.837 -0.0706 -0.1288  0.2270
11663TIP3    H156404   0.466   2.622   3.906  2.9130 -0.1882 -2.3721
11663TIP3    H256405   0.402   2.698   3.792 -3.1191  0.4756  1.0550
11664TIP3   OH256406   3.182   5.457   5.426  0.1244 -0.1581  0.1764
11664TIP3    H156407   3.173   5.368   5.462 -1.4926 -1.0975 -2.2991
11664TIP3    H256408   3.276   5.475   5.430  0.5509 -2.1696  0.3788
11665TIP3   OH256409   2.009   5.007   1.471  0.3374 -0.6596 -0.2096
11665TIP3    H156410   2.088   5.041   1.429  0.0197 -0.0914 -0.3528
11665TIP3    H256411   1.962   4.962   1.401 -0.6582  1.0952 -0.7214
11666TIP3   OH256412   3.834   4.886  12.557  0.0088  0.3366  0.4022
11666TIP3    H156413   3.747   4.873  12.593  0.0199  2.1895  1.2120
11666TIP3    H256414   3.822   4.948  12.485  0.6836  1.1087  0.9175
11667TIP3   OH256415   0.473   5.592   0.444 -0.0442  0.1281  0.2170
11667TIP3    H156416   0.514   5.518   0.399 -1.4296 -0.6997  0.2287
11667TIP3    H256417   0.431   5.642   0.374  0.6612  0.7546  0.2396
11668TIP3   OH256418   3.964   2.272  16.138  0.0601 -0.3504 -0.2910
11668TIP3    H156419   4.025   2.325  16.189 -0.2204 -0.2626 -0.0478
11668TIP3    H256420   3.980   2.182  16.167  1.1972 -0.5368 -1.3666
11669TIP3   OH256421   2.326   4.267  16.699 -0.8829  0.2909 -0.3990
11669TIP3    H156422   2.252   4.314  16.738 -0.1428  2.0580 -1.0076
11669TIP3    H256423   2.403   4.313  16.733  0.1689 -2.8222  2.0105
11670TIP3   OH256424   0.790   6.451  13.893  0.0669  0.0521 -0.3971
11670TIP3    H156425   0.782   6.357  13.905 -0.5104  0.0447 -0.8213
11670TIP3    H256426   0.851   6.461  13.820  0.6527  0.0292  0.0766
11671TIP3   OH256427   0.956   5.831  12.356  0.0377 -0.1287 -0.2754
11671TIP3    H156428   0.982   5.872  12.273 -0.9698  3.3711  0.9492
11671TIP3    H256429   1.039   5.813  12.400  0.5656 -1.2902 -1.6782
11672TIP3   OH256430   3.917   3.078   0.091 -0.0333 -1.0688  0.3507
11672TIP3    H156431   4.006   3.043   0.089  0.8177  0.8618  1.0333
11672TIP3    H256432   3.908   3.114   0.180 -0.5805  0.8821 -0.4512
11673TIP3   OH256433   4.771   5.891  12.546  0.3484 -0.4116  0.6217
11673TIP3    H156434   4.772   5.822  12.613 -0.1874 -0.8824  0.1594
11673TIP3    H256435   4.718   5.854  12.475 -1.4475  1.1608  1.0843
11674TIP3   OH256436   3.307   0.421  13.422 -0.0535  0.1901  0.0209
11674TIP3    H156437   3.294   0.514  13.403 -1.4196 -0.0823 -0.4889
11674TIP3    H256438   3.299   0.415  13.517 -2.1999  0.3242 -0.0898
11675TIP3   OH256439   4.817   3.273  14.298  0.2406 -0.0507 -0.5203
11675TIP3    H156440   4.841   3.362  14.274  0.3269  0.0676 -0.0001
11675TIP3    H256441   4.765   3.282  14.378  0.1418 -0.4560 -0.5360
11676TIP3   OH256442   6.439   1.972  12.648  0.1430 -0.1120 -0.0562
11676TIP3    H156443   6.481   1.954  12.732  0.7616  1.1847 -0.0613
11676TIP3    H256444   6.454   2.065  12.633 -0.0365 -0.2973 -1.5655
11677TIP3   OH256445   2.071   1.589   1.182 -0.1361  0.3459 -0.5204
11677TIP3    H156446   2.084   1.672   1.136  0.6975  0.4004 -0.1945
11677TIP3    H256447   2.015   1.612   1.257  0.5254  0.7195 -0.1330
11678TIP3   OH256448   0.536   0.907  13.663  0.2323 -0.2183 -0.2256
11678TIP3    H156449   0.562   0.941  13.749 -0.6618 -0.8674  0.3113
11678TIP3    H256450   0.491   0.825  13.682 -0.6028 -0.0218 -1.2628
11679TIP3   OH256451   2.642   2.970   2.843  0.3423  0.5344 -0.2154
11679TIP3    H156452   2.622   3.006   2.756 -1.2130 -0.8735 -0.4854
11679TIP3    H256453   2.690   2.889   2.825 -0.6553 -0.1678  0.1739
11680TIP3   OH256454   0.358   5.072  16.423  0.4181 -0.3381 -0.0783
11680TIP3    H156455   0.314   5.120  16.492  1.2929 -0.0298  0.2835
11680TIP3    H256456   0.393   4.994  16.467  0.9403 -0.1621 -0.1712
11681TIP3   OH256457   2.189   2.358   3.226  0.0241  0.3702  0.1661
11681TIP3    H156458   2.214   2.297   3.157  0.9170  1.5836 -0.6050
11681TIP3    H256459   2.195   2.306   3.306  0.0830 -0.7404 -0.5306
11682TIP3   OH256460   2.162   3.174  13.726  0.2471 -0.1468  0.0887
11682TIP3    H156461   2.234   3.237  13.731  1.6068 -1.6130 -0.2879
11682TIP3    H256462   2.123   3.175  13.813  2.1070 -0.8784  0.9768
11683TIP3   OH256463   0.181   0.210  13.850  0.7360 -0.1774 -0.1585
11683TIP3    H156464   0.175   0.290  13.903 -0.4142  0.1049 -0.6909
11683TIP3    H256465   0.274   0.187  13.852  1.1937  1.4945 -0.4383
11684TIP3   OH256466   0.351   3.537  12.571 -0.5328  0.0447  0.1193
11684TIP3    H156467   0.392   3.587  12.642 -1.9449 -0.2715  1.1978
11684TIP3    H256468   0.257   3.540  12.591 -0.7890 -1.7618 -0.6186
11685TIP3   OH256469   5.355   0.112   5.257  0.2332 -0.2042 -0.2786
11685TIP3    H156470   5.316   0.116   5.170  0.5176 -0.1701 -0.4051
11685TIP3    H256471   5.283   0.086   5.314  0.2291 -1.0033 -0.6432
11686TIP3   OH256472   0.846   4.254   1.597 -0.4360  0.4965 -0.3753
11686TIP3    H156473   0.908   4.293   1.535 -0.6961 -0.3941 -1.2273
11686TIP3    H256474   0.864   4.160   1.592  0.1957  0.4658  1.6375
11687TIP3   OH256475   4.798   4.703  12.086 -0.2088  0.4276  0.2866
11687TIP3    H156476   4.775   4.779  12.032  1.1649  1.4208  1.0114
11687TIP3    H256477   4.796   4.737  12.176 -0.4518 -0.6513  0.6976
11688TIP3   OH256478   0.813   2.401  13.350 -0.2059 -0.5520 -1.0968
11688TIP3    H156479   0.891   2.430  13.303  0.9641  1.5373  1.8282
11688TIP3    H256480   0.846   2.342  13.418 -1.4443 -1.1802 -1.0082
11689TIP3   OH256481   3.391   5.137  16.108  0.3002  0.2296  0.4459
11689TIP3    H156482   3.473   5.146  16.059  0.9896  0.3627  1.5979
11689TIP3    H256483   3.342   5.217  16.089  0.5830  0.3067  0.0309
11690TIP3   OH256484   4.958   5.204  13.259 -0.0849  0.0890  0.4560
11690TIP3    H156485   5.005   5.284  13.282  0.6626 -0.5350  1.1766
11690TIP3    H256486   4.877   5.208  13.310  0.3175  0.0122  1.1086
11691TIP3   OH256487   1.640   0.866   5.363  0.1032 -0.1701  0.4513
11691TIP3    H156488   1.684   0.921   5.298  1.5884  0.1640  1.6802
11691TIP3    H256489   1.704   0.797   5.383 -1.6938 -2.3856 -1.0095
11692TIP3   OH256490   4.122   4.146  16.043  0.1975  0.7205  0.6582
11692TIP3    H156491   4.100   4.053  16.051  2.2939  0.2616  2.1269
11692TIP3    H256492   4.211   4.146  16.007 -0.1390  2.2054 -0.2296
11693TIP3   OH256493   3.815   4.344   0.206  0.2023  0.1441 -0.3582
11693TIP3    H156494   3.879   4.274   0.216 -0.5170 -0.3997  0.5293
11693TIP3    H256495   3.811   4.359   0.111  1.5916  0.1635 -0.4389
11694TIP3   OH256496   3.057   2.043  13.938  0.4125 -0.5289  0.1133
11694TIP3    H156497   3.025   2.096  13.865 -0.5441 -1.7866 -0.4222
11694TIP3    H256498   3.132   1.996  13.902 -0.3202 -1.4752 -0.2218
11695TIP3   OH256499   3.432   6.710   1.428 -0.1725 -0.0826  0.1357
11695TIP3    H156500   3.440   6.799   1.464  0.4374 -0.3884  0.7700
11695TIP3    H256501   3.522   6.677   1.425 -0.5551 -1.3833  1.7254
11696TIP3   OH256502   0.340   6.649   6.158  0.0423  0.6942 -0.3478
11696TIP3    H156503   0.395   6.605   6.223  0.5891 -0.9962 -1.8715
11696TIP3    H256504   0.401   6.683   6.094 -0.4853  2.4920  0.0472
11697TIP3   OH256505   5.288   2.276   2.289 -0.0413 -0.3133 -0.1113
11697TIP3    H156506   5.215   2.335   2.311 -0.3039 -0.0310 -1.5930
11697TIP3    H256507   5.331   2.259   2.372 -1.2477  0.2659  0.6676
11698TIP3   OH256508   1.771   4.005  13.667  0.1378  0.3813  0.0552
11698TIP3    H156509   1.740   3.985  13.755  0.4462 -1.3062 -0.1955
11698TIP3    H256510   1.866   4.002  13.674  0.1576 -0.2645 -0.4357
11699TIP3   OH256511   3.603   6.009  15.097  0.0246 -0.3469  0.0805
11699TIP3    H156512   3.516   5.992  15.133  0.5922 -0.5162  1.4421
11699TIP3    H256513   3.655   5.933  15.124  1.3570  1.1495  1.9890
11700TIP3   OH256514   0.712   2.876  12.827  0.1118  0.0846  0.4596
11700TIP3    H156515   0.803   2.890  12.800  0.0959 -0.2766  0.2051
11700TIP3    H256516   0.693   2.948  12.888 -0.0106  1.2423 -0.8911
11701TIP3   OH256517   2.499   1.550  14.381 -0.4363 -0.3379  0.5740
11701TIP3    H156518   2.456   1.635  14.373  1.6168  0.8591  1.3968
11701TIP3    H256519   2.428   1.489  14.405 -2.1110  0.9081 -0.9750
11702TIP3   OH256520   0.041   1.448   5.838  0.2951 -0.6447  0.2293
11702TIP3    H156521  -0.022   1.469   5.769  0.4669  0.9759  0.5390
11702TIP3    H256522  -0.004   1.472   5.919  1.5634  1.3441  0.4101
11703TIP3   OH256523   1.757   4.463  14.755 -0.8808  0.2409 -0.3641
11703TIP3    H156524   1.826   4.473  14.821 -1.4915  3.2999 -0.0415
11703TIP3    H256525   1.740   4.368  14.752  1.7977 -0.3851  1.0825
11704TIP3   OH256526   5.567   2.075  10.512 -0.2696  0.4744  0.3689
11704TIP3    H156527   5.567   2.168  10.493  1.5027  0.3266 -0.5369
11704TIP3    H256528   5.477   2.046  10.492 -0.6879  1.8691  0.1523
11705TIP3   OH256529   2.105   6.185   5.228  0.4151  0.1298 -0.1735
11705TIP3    H156530   2.026   6.138   5.254 -0.4114  3.2688  4.0361
11705TIP3    H256531   2.177   6.131   5.263  0.0485 -1.2618 -1.4505
11706TIP3   OH256532   0.188   3.373  14.612  0.0393  0.0969  0.3723
11706TIP3    H156533   0.228   3.325  14.539  0.2337 -0.5494  0.8827
11706TIP3    H256534   0.144   3.305  14.664  0.9995  0.3369  1.5548
11707TIP3   OH256535   6.451   0.964  11.169 -0.6323  0.0501 -0.1907
11707TIP3    H156536   6.446   0.942  11.263  2.1430 -1.6205 -0.3063
11707TIP3    H256537   6.360   0.962  11.139 -1.4669 -0.9124  2.1607
11708TIP3   OH256538   6.352   3.521  16.033 -0.5611 -0.5538  0.3250
11708TIP3    H156539   6.346   3.432  15.998  1.4310 -0.3928 -0.5725
11708TIP3    H256540   6.264   3.558  16.021 -1.5891 -2.5526  1.2529
11709TIP3   OH256541   4.429   6.308  16.894 -0.0775  0.3300 -0.4462
11709TIP3    H156542   4.357   6.249  16.918 -0.6541  0.9579 -0.6198
11709TIP3    H256543   4.428   6.376  16.961  1.9996 -0.9991  1.0661
11710TIP3   OH256544   4.599   5.437   6.148  0.0607  0.1287 -0.1284
11710TIP3    H156545   4.637   5.519   6.180  0.6446 -0.2461  0.1590
11710TIP3    H256546   4.617   5.373   6.218 -1.6408  0.0662  0.2874
11711TIP3   OH256547   3.000   0.204  13.679  0.4457  0.3838 -0.0252
11711TIP3    H156548   3.062   0.250  13.621  0.1136  1.3084  0.3411
11711TIP3    H256549   2.938   0.271  13.705 -0.4319 -0.4318  0.0156
11712TIP3   OH256550   5.905   5.800   0.821  0.0570 -0.1656 -0.0341
11712TIP3    H156551   5.957   5.810   0.900 -1.4459  3.6359  0.6834
11712TIP3    H256552   5.954   5.846   0.753 -1.2904  1.6359  0.1533
11713TIP3   OH256553   4.443   3.002  14.334  0.2952  0.5091  0.3608
11713TIP3    H156554   4.457   3.087  14.292 -1.8831  0.6583 -0.1577
11713TIP3    H256555   4.506   2.944  14.291 -0.2626  1.1967 -1.4635
11714TIP3   OH256556   1.132   0.037  15.135 -0.1023 -0.1623  0.0611
11714TIP3    H156557   1.187   0.020  15.212 -2.0310 -1.0751  1.2933
11714TIP3    H256558   1.112   0.130  15.140  0.4491 -0.0426  0.1735
11715TIP3   OH256559   6.521   0.659  12.488 -0.3328 -0.0860  0.3369
11715TIP3    H156560   6.562   0.640  12.403 -0.5524  0.0601  0.1984
11715TIP3    H256561   6.429   0.637  12.476 -0.2757 -0.5380  0.6903
11716TIP3   OH256562   3.361   1.254  14.090 -0.6277  0.1592 -0.4378
11716TIP3    H156563   3.409   1.249  14.007 -1.3912  2.0140 -1.0346
11716TIP3    H256564   3.394   1.333  14.132  0.5532 -1.3072  1.6327
11717TIP3   OH256565   5.927   5.796   0.195 -0.1631 -0.4103  0.9338
11717TIP3    H156566   5.944   5.704   0.176  1.4953 -0.3951  2.1181
11717TIP3    H256567   5.947   5.842   0.114 -0.3212 -1.0058  0.5468
11718TIP3   OH256568   5.201   2.230  17.081  0.1063 -0.2245 -0.0764
11718TIP3    H156569   5.222   2.231  16.987 -0.7182 -1.0459 -0.2890
11718TIP3    H256570   5.131   2.164  17.089 -0.3564  0.3713  1.0031
11719TIP3   OH256571   6.097   1.937  15.930  0.1679 -0.2060  0.2498
11719TIP3    H156572   6.154   2.013  15.919  0.0791 -0.3086 -1.1176
11719TIP3    H256573   6.040   1.939  15.853 -0.7616 -0.8879  0.8975
11720TIP3   OH256574   5.880   5.322   2.572  0.5157 -0.1748  0.4846
11720TIP3    H156575   5.904   5.395   2.514  1.0441 -0.7513 -0.0327
11720TIP3    H256576   5.964   5.282   2.595  0.1360 -1.5709 -0.4900
11721TIP3   OH256577   2.428   5.568   2.344 -0.4206 -0.2341 -0.4164
11721TIP3    H156578   2.516   5.588   2.314 -0.4953  1.8517  0.5896
11721TIP3    H256579   2.415   5.624   2.421 -2.4886 -0.7336 -0.3372
11722TIP3   OH256580   6.274   4.528  16.826 -0.0347  0.0038 -0.1076
11722TIP3    H156581   6.205   4.563  16.769  0.1132  2.0262  0.8476
11722TIP3    H256582   6.298   4.602  16.883  1.0091 -1.4377  1.4331
11723TIP3   OH256583   4.109   4.576  15.311 -0.0611  0.1440 -0.1573
11723TIP3    H156584   4.194   4.583  15.355 -0.1513  0.1210  0.0239
11723TIP3    H256585   4.120   4.505  15.248 -1.4715 -3.7778  3.5262
11724TIP3   OH256586   1.039   0.652  13.891 -0.3004 -0.1876  0.0754
11724TIP3    H156587   1.066   0.651  13.983  0.4318 -1.1597 -0.1293
11724TIP3    H256588   1.026   0.745  13.871  0.1503  0.0855  0.9850
11725TIP3   OH256589   4.368   2.811   2.732 -0.2003  0.4789  0.6098
11725TIP3    H156590   4.350   2.762   2.652 -0.7780 -0.4615  1.2887
11725TIP3    H256591   4.395   2.897   2.702 -2.6424  0.9232 -0.5963
11726TIP3   OH256592   2.060   1.637   3.485  0.3634  0.3606  0.1037
11726TIP3    H156593   2.033   1.642   3.577  2.6718  0.2007  0.8502
11726TIP3    H256594   2.067   1.728   3.457 -3.0778  0.4426 -0.8651
11727TIP3   OH256595   4.220   0.443  15.616 -0.5219 -0.1288 -0.5856
11727TIP3    H156596   4.204   0.440  15.711 -0.8917  0.8697 -0.6019
11727TIP3    H256597   4.133   0.448  15.577 -0.4100  3.7757 -0.7464
11728TIP3   OH256598   3.220   2.745  16.657  0.6737 -0.3977  0.1986
11728TIP3    H156599   3.279   2.738  16.582 -0.3893 -1.3934 -0.5888
11728TIP3    H256600   3.177   2.830  16.646  1.2356 -0.1050  0.2350
11729TIP3   OH256601   3.513   4.038  13.098  0.3050 -0.7888 -0.5387
11729TIP3    H156602   3.477   4.088  13.025  1.1327 -1.4043 -1.3927
11729TIP3    H256603   3.573   3.975  13.057  1.6935 -0.3702  0.7480
11730TIP3   OH256604   2.539   3.994   0.211 -0.2981  0.1558 -0.1307
11730TIP3    H156605   2.611   3.969   0.153 -0.7126 -1.5793  0.0719
11730TIP3    H256606   2.461   3.954   0.171 -0.2846 -3.2254  2.8142
11731TIP3   OH256607   1.589   0.045  14.433  0.4450  0.7856  0.2666
11731TIP3    H156608   1.554   0.052  14.344 -0.2120 -1.2511  0.3032
11731TIP3    H256609   1.546   0.115  14.482 -3.2536 -1.1719  0.1496
11732TIP3   OH256610   4.432   3.966   4.542 -0.7690  0.6283  0.1332
11732TIP3    H156611   4.349   3.973   4.496  1.1346  1.2368 -3.6575
11732TIP3    H256612   4.480   3.897   4.495  1.1477  0.7918  1.6955
11733TIP3   OH256613   6.106   5.962   0.028 -0.2839 -0.4351  0.9501
11733TIP3    H156614   6.191   5.923   0.046 -0.4201 -0.8990  0.6118
11733TIP3    H256615   6.103   5.973  -0.067 -0.8988 -1.1486  0.8702
11734TIP3   OH256616   1.461   6.662   5.751  0.5035  0.0969  0.0568
11734TIP3    H156617   1.438   6.736   5.695  0.1582 -0.0171  0.0463
11734TIP3    H256618   1.520   6.699   5.817 -2.4028  1.2054  2.2264
11735TIP3   OH256619   4.944   4.318  14.095  0.5077  0.3742 -0.1608
11735TIP3    H156620   4.910   4.311  14.185  1.9843  0.8831  0.4715
11735TIP3    H256621   4.909   4.241  14.051  1.8588 -1.3390  1.5986
11736TIP3   OH256622   4.864   1.112  15.655  0.1293 -0.8682 -0.0679
11736TIP3    H156623   4.857   1.141  15.746 -0.7998  0.3643 -0.5034
11736TIP3    H256624   4.949   1.144  15.626 -0.4403  0.6032 -0.2241
11737TIP3   OH256625   3.023   5.727  16.535  0.0476 -0.1609  0.3311
11737TIP3    H156626   3.097   5.673  16.506 -0.8531 -0.5823 -1.3559
11737TIP3    H256627   3.060   5.787  16.600  1.6911 -0.8918  0.1054
11738TIP3   OH256628   5.244   5.907   4.491 -0.2187  0.3902  0.1446
11738TIP3    H156629   5.291   5.955   4.558 -0.7723  1.5804 -0.2825
11738TIP3    H256630   5.216   5.974   4.428 -0.7731 -0.5263 -0.6273
11739TIP3   OH256631   0.464   2.197  13.392 -0.3611  0.2459 -0.2340
11739TIP3    H156632   0.489   2.210  13.484  0.5602  1.1491 -0.5875
11739TIP3    H256633   0.426   2.280  13.365 -1.5278 -0.3350 -0.4094
11740TIP3   OH256634   3.155   2.104   4.471 -0.9737  0.5654 -0.2816
11740TIP3    H156635   3.081   2.137   4.523 -1.9613 -1.0501 -0.5727
11740TIP3    H256636   3.208   2.181   4.453 -2.1352  1.6377  0.6752
11741TIP3   OH256637   0.121   2.476   6.361 -0.3664 -0.8249  0.0829
11741TIP3    H156638   0.140   2.474   6.267 -1.7873  0.2090 -0.2590
11741TIP3    H256639   0.156   2.560   6.391 -1.2088 -0.4897  0.1581
11742TIP3   OH256640   2.424   5.194   4.373 -0.5258 -0.3074  0.1364
11742TIP3    H156641   2.353   5.255   4.354 -2.3426 -2.5817 -0.9039
11742TIP3    H256642   2.389   5.136   4.441 -1.2074 -3.6231 -2.7395
11743TIP3   OH256643   1.762   0.649  16.211  0.4418  0.2470  0.1432
11743TIP3    H156644   1.745   0.669  16.303  1.1050 -2.1925  0.8513
11743TIP3    H256645   1.684   0.602  16.182  0.8975 -0.3651 -0.0918
11744TIP3   OH256646   1.752   4.203   4.411  0.0832 -0.6236 -0.4315
11744TIP3    H156647   1.685   4.167   4.469  1.2454 -1.6701  0.3224
11744TIP3    H256648   1.792   4.273   4.463  0.0227 -0.4561 -0.6125
11745TIP3   OH256649   4.668   5.342  14.577  0.4044  0.4423 -0.2986
11745TIP3    H156650   4.723   5.266  14.561 -0.3912 -0.0538 -0.7306
11745TIP3    H256651   4.729   5.413  14.596  1.1473 -0.8609  2.8087
11746TIP3   OH256652   5.839   2.634   2.222 -0.2716  0.2566 -0.2389
11746TIP3    H156653   5.799   2.567   2.279  1.3064  0.6852  1.4756
11746TIP3    H256654   5.765   2.682   2.186 -1.3610  0.3167  1.9289
11747TIP3   OH256655   5.396   1.662   3.071  0.0832 -0.4899 -0.0605
11747TIP3    H156656   5.310   1.697   3.093  0.3816  0.0624  0.2693
11747TIP3    H256657   5.387   1.567   3.078 -1.1281 -0.6061 -2.3327
11748TIP3   OH256658   1.140   5.876   1.624 -0.3114 -0.6868 -0.4395
11748TIP3    H156659   1.217   5.869   1.680  0.1819 -0.0716 -1.0180
11748TIP3    H256660   1.168   5.840   1.540 -0.0129  1.2696 -1.2409
11749TIP3   OH256661   1.668   4.345  14.189  0.5001 -0.1308  0.3709
11749TIP3    H156662   1.746   4.313  14.143 -0.1999  1.0116 -1.7692
11749TIP3    H256663   1.669   4.440  14.174 -1.0114 -0.0366  0.7482
11750TIP3   OH256664   1.581   1.429  11.864 -0.1777 -0.0143 -0.0380
11750TIP3    H156665   1.503   1.376  11.846  0.0008 -0.4027  0.3102
11750TIP3    H256666   1.633   1.423  11.784 -0.1849 -0.3253 -0.0232
11751TIP3   OH256667   2.857   4.801  11.451 -0.5610 -0.0004 -0.1657
11751TIP3    H156668   2.949   4.809  11.427 -0.6985 -1.2406 -1.2225
11751TIP3    H256669   2.855   4.727  11.511 -0.9076 -0.1585 -0.3735
11752TIP3   OH256670   4.714   6.006  14.027 -0.0727 -0.2198 -0.1818
11752TIP3    H156671   4.788   5.946  14.015  0.0272 -0.1165 -0.0912
11752TIP3    H256672   4.643   5.967  13.977 -0.5016 -1.2723  1.2266
11753TIP3   OH256673   4.452   0.745   1.419 -0.1991  0.1734 -0.3614
11753TIP3    H156674   4.380   0.704   1.467 -0.1014  0.0588 -0.3110
11753TIP3    H256675   4.418   0.830   1.392 -0.2950  0.1882 -0.1933
11754TIP3   OH256676   0.924   5.687  15.839 -0.7724  0.0010 -0.0126
11754TIP3    H156677   0.911   5.592  15.838  0.4333 -0.1796 -0.8215
11754TIP3    H256678   0.973   5.703  15.920 -0.9162 -0.0730  0.0902
11755TIP3   OH256679   1.627   6.206  15.159  0.0660  0.3360  0.6496
11755TIP3    H156680   1.629   6.113  15.181 -0.4433  0.3236  0.6647
11755TIP3    H256681   1.565   6.244  15.222 -0.2332  0.5670  0.2169
11756TIP3   OH256682   5.175   0.702   0.171 -0.4704  0.0575 -0.2242
11756TIP3    H156683   5.162   0.727   0.079 -0.2948 -1.2459 -0.6275
11756TIP3    H256684   5.244   0.635   0.168 -0.8802 -0.4334  0.7889
11757TIP3   OH256685   1.821   6.058  13.462 -0.4854 -0.3224 -0.5095
11757TIP3    H156686   1.796   5.999  13.391  0.2064 -0.3068 -0.7755
11757TIP3    H256687   1.875   6.004  13.520 -0.8464 -0.2693 -0.1172
11758TIP3   OH256688   2.713   3.446   4.041  0.0570  0.3392 -0.3636
11758TIP3    H156689   2.792   3.434   3.990 -0.4024 -0.8009 -0.8361
11758TIP3    H256690   2.740   3.503   4.114  0.8969  1.3285 -1.4133
11759TIP3   OH256691   6.013   5.548   6.731 -0.0035 -0.3439  0.3398
11759TIP3    H156692   6.106   5.535   6.714 -0.4589 -1.9817 -1.1783
11759TIP3    H256693   5.969   5.492   6.667 -2.0220 -0.7190  1.9765
11760TIP3   OH256694   4.189   1.484  13.974  0.1323 -0.4422 -0.4440
11760TIP3    H156695   4.182   1.429  14.052  1.2396 -1.2895 -0.9130
11760TIP3    H256696   4.210   1.571  14.008  2.2014 -1.1214  0.1807
11761TIP3   OH256697   5.341   6.331   3.082 -0.0250 -0.2601  0.1643
11761TIP3    H156698   5.359   6.238   3.072  0.7389  0.0054 -1.2230
11761TIP3    H256699   5.248   6.341   3.059  0.1586 -0.5486 -0.7480
11762TIP3   OH256700   0.884   2.914   3.861  0.7209  0.0777  0.4583
11762TIP3    H156701   0.938   2.841   3.892  0.0649 -0.4771  0.3171
11762TIP3    H256702   0.881   2.974   3.935 -0.7206 -1.1727  1.4791
11763TIP3   OH256703   1.831   6.781   0.389  0.4289 -0.0645 -0.1071
11763TIP3    H156704   1.754   6.734   0.359  2.1193 -2.8358 -0.5214
11763TIP3    H256705   1.848   6.846   0.321 -1.0388  0.0270 -0.4066
11764TIP3   OH256706   6.710   6.158   3.056 -0.8083  0.4196 -0.1410
11764TIP3    H156707   6.771   6.196   3.119 -0.3781 -0.5945  0.0829
11764TIP3    H256708   6.698   6.226   2.989  3.8764 -0.6204 -2.5304
11765TIP3   OH256709   4.587   2.754  17.068 -0.0200 -0.2845 -0.4662
11765TIP3    H156710   4.546   2.771  16.983  0.7601  0.6820 -0.6746
11765TIP3    H256711   4.666   2.704  17.047  0.5457  0.5590 -0.3953
11766TIP3   OH256712   6.730   6.329  15.259  0.2501  0.2157 -0.4523
11766TIP3    H156713   6.683   6.256  15.299 -0.9920  0.5009 -1.3145
11766TIP3    H256714   6.811   6.337  15.310 -0.4391 -0.5690  0.8258
11767TIP3   OH256715   3.552   4.380  13.522 -0.0867  0.0080  0.4460
11767TIP3    H156716   3.467   4.419  13.543  0.2036  0.4869  0.7681
11767TIP3    H256717   3.573   4.413  13.435 -0.6311 -0.8208 -0.0081
11768TIP3   OH256718   1.649   4.967  13.818 -0.0474  1.3582 -0.0654
11768TIP3    H156719   1.684   5.024  13.749 -0.5071 -0.9251 -2.3280
11768TIP3    H256720   1.623   4.887  13.773 -1.4089  0.1276  2.6382
11769TIP3   OH256721   1.719   6.789   5.859  0.4141 -0.6305  0.5427
11769TIP3    H156722   1.740   6.878   5.833 -0.3375 -0.7987 -0.7493
11769TIP3    H256723   1.650   6.799   5.925  1.9496 -0.2096  2.1403
11770TIP3   OH256724   0.937   3.274   2.908 -0.0359  0.1730 -0.4136
11770TIP3    H156725   0.951   3.204   2.845  4.4566 -1.7447  2.2438
11770TIP3    H256726   0.981   3.350   2.871  2.0158 -0.7625 -0.0318
11771TIP3   OH256727   6.665   5.308   0.857  0.5212 -0.1688  0.1510
11771TIP3    H156728   6.640   5.239   0.795  0.6145 -2.3955  2.4068
11771TIP3    H256729   6.585   5.327   0.906  0.3346  1.8839 -0.8544
11772TIP3   OH256730   2.496   2.932  13.182 -0.2374 -0.1749 -0.0747
11772TIP3    H156731   2.433   2.971  13.121  1.4052  2.2997 -0.3378
11772TIP3    H256732   2.477   2.975  13.266 -1.0083 -1.9033  0.6913
11773TIP3   OH256733   2.109   5.616  15.714  0.3234  0.4285 -0.2235
11773TIP3    H156734   2.138   5.617  15.623  1.1787  1.0874  0.0450
11773TIP3    H256735   2.166   5.552  15.758 -0.7089 -0.6054 -0.3273
11774TIP3   OH256736   2.845   2.410  16.239 -0.4181  0.4272  0.0098
11774TIP3    H156737   2.886   2.496  16.233 -0.4522  0.4462  0.0541
11774TIP3    H256738   2.754   2.428  16.262  0.2325  0.2795  3.1893
11775TIP3   OH256739   3.159   0.319   4.860 -0.3957  0.0604 -0.1935
11775TIP3    H156740   3.141   0.347   4.949  0.6191  1.8462 -0.4916
11775TIP3    H256741   3.194   0.230   4.868  0.5701  0.5449  1.2843
11776TIP3   OH256742   2.688   3.614  13.680  0.2251 -0.1518 -0.5975
11776TIP3    H156743   2.637   3.682  13.724 -2.4734 -1.4003 -1.5682
11776TIP3    H256744   2.677   3.536  13.734  1.9738 -0.2259 -0.3161
11777TIP3   OH256745   3.259   6.694   0.794  0.4357  0.2905 -0.7272
11777TIP3    H156746   3.277   6.782   0.762  0.4251  0.6021  0.0909
11777TIP3    H256747   3.187   6.663   0.739 -0.1141  1.1126 -0.5096
11778TIP3   OH256748   3.203   4.883  15.009 -0.2443  0.0252  0.2213
11778TIP3    H156749   3.217   4.797  14.970 -2.5584 -0.4126  0.1769
11778TIP3    H256750   3.113   4.905  14.986  0.3594  2.6022  0.0232
11779TIP3   OH256751   5.024   0.448   1.811  0.0069 -0.2098 -0.2820
11779TIP3    H156752   4.973   0.503   1.871 -0.1366 -0.8903  0.2278
11779TIP3    H256753   4.980   0.459   1.726  0.7377  1.4555 -0.4836
11780TIP3   OH256754   3.682   2.290  16.119  0.0726  0.2291  0.4284
11780TIP3    H156755   3.778   2.286  16.114  0.0364 -0.1162 -0.0244
11780TIP3    H256756   3.659   2.233  16.192  0.1328 -0.7055 -0.2734
11781TIP3   OH256757   3.336   1.320   0.027 -0.5655 -0.5190  0.2854
11781TIP3    H156758   3.393   1.382   0.071 -0.2063  0.0016 -0.8875
11781TIP3    H256759   3.267   1.374  -0.013  1.3004 -0.4312 -3.1992
11782TIP3   OH256760   1.923   4.989   0.947  0.1309 -0.5433  0.5029
11782TIP3    H156761   1.860   5.060   0.953 -1.0257 -1.4657 -0.3720
11782TIP3    H256762   2.008   5.032   0.949 -0.5225  0.7731  1.0169
11783TIP3   OH256763   4.463   2.143   6.645 -0.1540  0.1745  0.3585
11783TIP3    H156764   4.446   2.237   6.637 -0.0386  0.1041 -0.8158
11783TIP3    H256765   4.378   2.101   6.631 -0.0901  0.0773  0.2600
11784TIP3   OH256766   5.453   6.659   5.883  0.6783  0.3772 -0.1114
11784TIP3    H156767   5.394   6.583   5.882  0.0041  0.8858 -1.3573
11784TIP3    H256768   5.440   6.700   5.798 -0.4213  2.9994  1.2278
11785TIP3   OH256769   1.561   3.204   2.454 -0.5627  0.0009 -0.1877
11785TIP3    H156770   1.557   3.108   2.453  2.7165 -0.2377 -0.6184
11785TIP3    H256771   1.520   3.230   2.372  1.7634 -1.3340 -1.8755
11786TIP3   OH256772   6.265   1.052  15.330 -0.0507 -0.2889 -0.6954
11786TIP3    H156773   6.186   1.038  15.278 -0.6055  2.1872 -0.6556
11786TIP3    H256774   6.333   1.003  15.285 -1.1859 -0.7653 -1.9463
11787TIP3   OH256775   2.464   2.079   1.333 -0.3538 -0.1746 -0.1348
11787TIP3    H156776   2.462   2.008   1.270 -0.4312 -1.3488  1.1337
11787TIP3    H256777   2.375   2.114   1.333  0.1728  1.4388 -2.3228
11788TIP3   OH256778   4.296   5.619  16.784 -0.7082  0.1272 -0.3271
11788TIP3    H156779   4.312   5.714  16.790 -0.5937  0.0341  1.8635
11788TIP3    H256780   4.382   5.582  16.765 -0.4601  0.3820  0.2575
11789TIP3   OH256781   0.304   5.350   3.048 -0.1445 -0.0923  0.5535
11789TIP3    H156782   0.284   5.409   3.120 -2.6052  0.5084 -0.5239
11789TIP3    H256783   0.242   5.373   2.979 -0.3872 -3.0994 -0.3954
11790TIP3   OH256784   2.572   6.420  14.640 -0.3600  0.4501  0.1424
11790TIP3    H156785   2.496   6.476  14.623  0.0885  0.4237 -2.3289
11790TIP3    H256786   2.546   6.334  14.606 -0.0835 -0.2199  1.5396
11791TIP3   OH256787   1.382   1.768  14.617 -0.5293  0.1576 -0.2786
11791TIP3    H156788   1.358   1.850  14.575 -2.7136  1.3627  2.9225
11791TIP3    H256789   1.475   1.778  14.637 -0.1442  0.7166 -2.1023
11792TIP3   OH256790   1.001   3.094  13.226  0.3324  0.4392  0.1828
11792TIP3    H156791   1.036   3.009  13.200  0.9937  0.1685  1.8059
11792TIP3    H256792   1.077   3.152  13.225  1.2927 -0.3362  4.5610
11793TIP3   OH256793   0.571   5.865  10.706  0.1569  0.0870 -0.6771
11793TIP3    H156794   0.546   5.778  10.676 -0.2262  0.0641 -0.3058
11793TIP3    H256795   0.492   5.900  10.748  1.1921 -0.7101  2.1779
11794TIP3   OH256796   4.729   3.752  15.672 -0.2938  0.0186  0.1403
11794TIP3    H156797   4.788   3.826  15.656 -1.2833  0.6521 -0.6947
11794TIP3    H256798   4.713   3.715  15.586  0.1723 -1.1860  0.5513
11795TIP3   OH256799   5.592   4.162   4.408  0.1888 -0.3943  0.4851
11795TIP3    H156800   5.536   4.229   4.370 -0.6341 -0.9326  0.7415
11795TIP3    H256801   5.667   4.211   4.443  0.9951  0.1150 -1.8002
11796TIP3   OH256802   3.413   1.873  12.837  0.1918  0.5682  0.2577
11796TIP3    H156803   3.421   1.967  12.852  1.5903  0.3541  1.0020
11796TIP3    H256804   3.372   1.866  12.751  0.2321  1.8599  0.1176
11797TIP3   OH256805   5.379   1.999   4.718  0.1644  0.1069  0.6508
11797TIP3    H156806   5.315   2.043   4.661  0.4466  0.4878  0.6288
11797TIP3    H256807   5.462   2.043   4.701  0.2587  0.2083  1.3372
11798TIP3   OH256808   1.969   4.638  12.114 -0.1402 -0.0538 -0.6805
11798TIP3    H156809   2.060   4.627  12.142 -1.1635 -1.3618  2.6479
11798TIP3    H256810   1.960   4.578  12.039  1.2769 -1.4472  0.1909
11799TIP3   OH256811   6.226   5.138   1.685 -0.2926 -0.1957  0.2909
11799TIP3    H156812   6.144   5.151   1.639 -0.4077  1.4272  0.8966
11799TIP3    H256813   6.290   5.120   1.616 -0.9037 -0.2112 -0.2764
11800TIP3   OH256814   4.966   6.063  13.781  0.2381 -0.0188  0.3904
11800TIP3    H156815   4.965   5.989  13.842  0.9519 -0.2525  0.1341
11800TIP3    H256816   5.001   6.136  13.832  1.5563 -0.3983  0.0913
11801TIP3   OH256817   3.064   0.082  10.660  0.3030 -0.1123 -0.3591
11801TIP3    H156818   3.131   0.149  10.647  0.0279  0.2775  0.1742
11801TIP3    H256819   3.111   0.010  10.701  0.5673 -0.1808 -0.7757
11802TIP3   OH256820   0.805   4.295   5.459 -0.7858 -0.1185 -0.3098
11802TIP3    H156821   0.770   4.208   5.480 -0.1036 -0.4185 -0.3965
11802TIP3    H256822   0.733   4.355   5.478 -1.0762 -0.6489  0.2840
11803TIP3   OH256823   1.254   2.853   4.736  0.4298 -0.8922 -0.3877
11803TIP3    H156824   1.208   2.825   4.815  0.2820  1.1887  0.3437
11803TIP3    H256825   1.319   2.785   4.721  1.2639 -0.8088  2.2690
11804TIP3   OH256826   0.561   5.090   1.999  0.0592  0.0413  0.0137
11804TIP3    H156827   0.496   5.146   2.040 -0.9099 -1.3825  0.4947
11804TIP3    H256828   0.608   5.050   2.072 -0.5595 -1.2189 -0.2421
11805TIP3   OH256829   1.828   3.432   3.189  0.0847 -0.0790  0.0240
11805TIP3    H156830   1.764   3.458   3.256 -0.4348 -1.6366  0.1755
11805TIP3    H256831   1.775   3.388   3.123  0.8914 -0.5441 -0.3136
11806TIP3   OH256832   2.800   2.383   0.431  0.3536  0.1118  0.1022
11806TIP3    H156833   2.788   2.454   0.494 -0.5908 -1.5385  1.8842
11806TIP3    H256834   2.732   2.320   0.453 -1.1705  0.1546 -3.7117
11807TIP3   OH256835   6.000   6.481  16.234 -0.4505  0.7261  0.4838
11807TIP3    H156836   5.954   6.400  16.212  0.4194  0.5077 -0.6228
11807TIP3    H256837   6.091   6.464  16.212  0.2520  1.0759  2.8552
11808TIP3   OH256838   1.108   6.049  11.361 -0.2249 -0.6561  0.6477
11808TIP3    H156839   1.172   6.072  11.294 -2.3401 -0.2538 -1.3845
11808TIP3    H256840   1.081   5.959  11.338 -2.8336  0.3618 -0.8134
11809TIP3   OH256841   4.485   3.462   1.376 -0.5624  0.3960  0.1401
11809TIP3    H156842   4.486   3.541   1.323  1.3709  0.4904  0.2437
11809TIP3    H256843   4.395   3.455   1.408 -1.2888  1.3693 -1.5781
11810TIP3   OH256844   2.027   0.858  13.122  0.2235 -0.0618 -0.3501
11810TIP3    H156845   2.058   0.923  13.185  0.2662 -0.0932 -0.3388
11810TIP3    H256846   1.933   0.872  13.117  0.2273 -0.0244 -0.3195
11811TIP3   OH256847   5.820   4.077   1.658  0.3232  0.7652  0.2599
11811TIP3    H156848   5.905   4.081   1.703 -0.2324 -1.0230  1.5657
11811TIP3    H256849   5.759   4.119   1.719 -0.0475  0.3675  0.1683
11812TIP3   OH256850   4.414   5.655   3.095  0.0088 -0.1320 -0.1766
11812TIP3    H156851   4.347   5.611   3.146 -0.0778 -1.1446 -1.1143
11812TIP3    H256852   4.461   5.584   3.051  1.7143  0.5410  0.4545
11813TIP3   OH256853   4.993   1.988  14.380 -0.2413 -0.5169 -0.0394
11813TIP3    H156854   4.957   2.072  14.411  0.0210 -0.5242  0.2895
11813TIP3    H256855   4.945   1.970  14.299  1.2343  1.0627 -1.3387
11814TIP3   OH256856   1.737   2.807  13.126  0.5935  0.5571 -0.6223
11814TIP3    H156857   1.775   2.856  13.200  0.3425  1.1363 -0.8783
11814TIP3    H256858   1.743   2.867  13.052 -1.3461  0.8852 -0.5517
11815TIP3   OH256859   2.234   2.394  13.797 -0.0535  0.1092  0.7274
11815TIP3    H156860   2.167   2.453  13.831  0.4941  0.3575  1.3972
11815TIP3    H256861   2.250   2.332  13.868 -0.8750 -1.0986 -0.0933
11816TIP3   OH256862   6.034   3.074   3.158  0.0992  0.1330  0.0733
11816TIP3    H156863   5.987   3.090   3.076  0.2984 -2.4622 -0.6610
11816TIP3    H256864   5.997   3.137   3.220 -2.4099  0.0203 -1.1825
11817TIP3   OH256865   0.807   3.287   2.116  0.0004  0.3161 -0.7809
11817TIP3    H156866   0.866   3.265   2.188  0.6496  4.0209  0.0217
11817TIP3    H256867   0.772   3.373   2.139 -0.7286  1.1372 -4.3067
11818TIP3   OH256868   2.851   1.792   4.394  0.0032  0.2190 -0.1198
11818TIP3    H156869   2.928   1.738   4.414 -0.2615 -0.1346 -0.0405
11818TIP3    H256870   2.795   1.734   4.343  0.5948  1.0532 -1.7813
11819TIP3   OH256871   3.821   3.567  15.135 -0.2340 -0.3608 -0.3151
11819TIP3    H156872   3.906   3.610  15.144 -0.1708 -0.1881 -1.5407
11819TIP3    H256873   3.803   3.569  15.041 -1.4994 -0.5853 -0.0976
11820TIP3   OH256874   0.087   3.227  12.497  0.4146  0.0666  0.2180
11820TIP3    H156875   0.177   3.209  12.523  0.6320  0.7413 -0.0654
11820TIP3    H256876   0.044   3.255  12.578  0.1164 -1.4700  0.6346
11821TIP3   OH256877   3.078   4.972  15.487  0.3100  0.2254 -0.4359
11821TIP3    H156878   3.157   4.964  15.540  0.0252  2.4095  0.4219
11821TIP3    H256879   3.101   4.934  15.403  1.4940 -1.3294  0.5344
11822TIP3   OH256880   1.221   4.993   3.729  0.1223 -0.2264 -0.3028
11822TIP3    H156881   1.230   4.976   3.635  0.6384 -0.1539 -0.2681
11822TIP3    H256882   1.256   4.915   3.771 -1.5930 -0.9588 -0.1727
11823TIP3   OH256883   4.397   4.973  16.823  0.5250  0.5542  0.8314
11823TIP3    H156884   4.325   4.916  16.795  0.4007  0.3957  1.4551
11823TIP3    H256885   4.381   4.987  16.916  0.9399  1.0544  0.8322
11824TIP3   OH256886   1.622   0.854   4.653 -0.1897  0.2071  0.9547
11824TIP3    H156887   1.649   0.896   4.572  4.3701 -0.0678  2.0538
11824TIP3    H256888   1.618   0.760   4.632  1.2516  0.1095  1.0562
11825TIP3   OH256889   5.409   3.083  11.123 -0.1508 -0.3954  0.6752
11825TIP3    H156890   5.397   3.068  11.030  0.6610 -1.4535  0.7108
11825TIP3    H256891   5.359   3.162  11.143  0.3951  0.3608 -0.8314
11826TIP3   OH256892   6.544   6.503   4.648  0.7683 -0.0304  0.6791
11826TIP3    H156893   6.574   6.594   4.650  0.3110  0.1323  3.4196
11826TIP3    H256894   6.559   6.470   4.736 -1.8807 -1.6526  0.6514
11827TIP3   OH256895   6.285   3.630  17.002  0.2511 -0.2590  0.3295
11827TIP3    H156896   6.286   3.554  17.059  0.9282 -0.2591  0.3251
11827TIP3    H256897   6.270   3.594  16.914  0.7679 -0.4035  0.3005
11828TIP3   OH256898   4.461   4.410   0.738 -0.1173 -0.6313  0.4952
11828TIP3    H156899   4.446   4.331   0.687 -0.9839 -0.0323 -0.2129
11828TIP3    H256900   4.536   4.453   0.696  1.9879 -2.2515  2.3638
11829TIP3   OH256901   1.097   6.219   5.483 -0.2251 -0.6108 -0.5127
11829TIP3    H156902   1.159   6.254   5.419 -0.1917  2.8682  1.2039
11829TIP3    H256903   1.150   6.164   5.541  0.8007  0.4517 -0.4208
11830TIP3   OH256904   2.640   1.161  16.220  0.3417 -0.4930 -0.3984
11830TIP3    H156905   2.699   1.234  16.239 -0.7217  0.3129 -0.0689
11830TIP3    H256906   2.559   1.183  16.267 -0.8601 -0.6538 -2.3058
11831TIP3   OH256907   5.525   0.204   3.997 -0.3958  0.1274  0.3437
11831TIP3    H156908   5.557   0.291   3.977  1.0820 -0.3613  0.5023
11831TIP3    H256909   5.505   0.165   3.912 -0.3837  0.3607  0.2342
11832TIP3   OH256910   1.853   0.259   0.911  0.4380  0.5099 -0.1681
11832TIP3    H156911   1.902   0.340   0.898  0.9753  0.4225  1.1200
11832TIP3    H256912   1.824   0.234   0.824 -1.0149  2.8812 -0.4562
11833TIP3   OH256913   5.915   2.882  14.177  0.0229 -0.2084 -0.5192
11833TIP3    H156914   5.889   2.898  14.086 -0.8026 -0.9709 -0.4302
11833TIP3    H256915   5.849   2.821  14.211 -0.1289  0.6570  0.8336
11834TIP3   OH256916   4.182   1.453   5.787 -0.1872 -0.3373  0.1453
11834TIP3    H156917   4.264   1.482   5.826  0.9717 -1.5180 -1.3180
11834TIP3    H256918   4.118   1.461   5.857  1.6856 -1.8959  2.1523
11835TIP3   OH256919   5.006   6.253  14.915  0.2698  0.0595  0.0956
11835TIP3    H156920   4.969   6.185  14.970  2.7710 -1.4143  0.1322
11835TIP3    H256921   5.016   6.329  14.974 -0.5575 -0.2468  0.6374
11836TIP3   OH256922   1.739   5.309  14.977  0.0111 -0.6952 -0.5145
11836TIP3    H156923   1.812   5.249  14.965  0.3996 -0.3489  0.0484
11836TIP3    H256924   1.777   5.382  15.027 -0.0890  0.6912 -2.3795
11837TIP3   OH256925   4.724   2.507  11.648  0.5513  0.1508  0.3451
11837TIP3    H156926   4.780   2.472  11.579  0.8429  0.7595  0.2624
11837TIP3    H256927   4.768   2.588  11.675 -0.3299  0.6893  0.2143
11838TIP3   OH256928   4.640   3.726   1.769 -0.5371  0.4360 -0.0214
11838TIP3    H156929   4.629   3.821   1.778  0.5133  0.4339  1.5684
11838TIP3    H256930   4.551   3.692   1.770 -0.8985  1.3474  0.2162
11839TIP3   OH256931   3.232   0.213  16.222 -0.3331 -0.5736 -0.1980
11839TIP3    H156932   3.165   0.213  16.153  0.8048  1.0632 -1.3759
11839TIP3    H256933   3.243   0.306  16.245  1.1797 -0.8435  0.2955
11840TIP3   OH256934   6.657   5.057  13.025  0.2926 -0.5675  0.2184
11840TIP3    H156935   6.669   4.965  13.051  0.6299 -0.6512 -0.2340
11840TIP3    H256936   6.669   5.057  12.930 -0.3284 -0.1569  0.1324
11841TIP3   OH256937   5.110   4.916  15.555 -0.7928  0.5539 -0.3094
11841TIP3    H156938   5.087   5.002  15.520 -1.8149 -0.0502 -1.1880
11841TIP3    H256939   5.027   4.880  15.588  0.1565  1.2491  3.2293
11842TIP3   OH256940   4.769   6.511  15.557  0.8650  0.5082 -0.0889
11842TIP3    H156941   4.704   6.574  15.588  0.0357  0.1882 -1.1162
11842TIP3    H256942   4.795   6.463  15.635  0.8524  1.5153  0.5582
11843TIP3   OH256943   4.398   0.321   5.284  0.1722  0.3050 -0.0030
11843TIP3    H156944   4.387   0.414   5.268 -0.4267  0.6843  2.2261
11843TIP3    H256945   4.441   0.316   5.370 -2.2957 -1.4329  1.2552
11844TIP3   OH256946   3.075   6.580   0.602  0.0770 -0.2260  0.2051
11844TIP3    H156947   2.980   6.570   0.596  0.1383 -0.5509 -0.3925
11844TIP3    H256948   3.109   6.518   0.537  0.6838  0.1047  0.2003
11845TIP3   OH256949   2.413   4.050   0.986  0.1832  0.1459  0.5053
11845TIP3    H156950   2.402   4.097   1.069 -0.0811  1.7958 -0.4292
11845TIP3    H256951   2.447   4.116   0.925 -0.5546 -0.7762 -0.9569
11846TIP3   OH256952   4.144   0.450   0.460  0.1586  0.3005 -0.5704
11846TIP3    H156953   4.125   0.503   0.537 -1.7057  1.0512 -1.4674
11846TIP3    H256954   4.191   0.510   0.401  0.4153  0.1384 -0.5295
11847TIP3   OH256955   1.074   1.956   1.141 -0.3352 -0.4953 -0.3020
11847TIP3    H156956   1.137   2.028   1.138 -1.8028  0.8144 -1.5213
11847TIP3    H256957   1.119   1.883   1.098  1.4868 -0.6316  1.6861
11848TIP3   OH256958   2.505   1.921  16.249 -0.1681 -0.2480  0.1433
11848TIP3    H156959   2.507   1.956  16.160 -0.6232  0.3787  0.3724
11848TIP3    H256960   2.454   1.985  16.299 -0.4773 -0.9247  0.7128
11849TIP3   OH256961   4.835   3.068   1.741  0.4171  0.0875  0.2356
11849TIP3    H156962   4.831   3.006   1.814  1.4053 -0.6823 -0.3389
11849TIP3    H256963   4.838   3.012   1.663 -1.6028  0.8868 -0.4978
11850TIP3   OH256964   4.958   1.835   2.414  1.2166  0.3368 -0.1105
11850TIP3    H156965   4.866   1.816   2.435  0.4298  0.6680 -2.8185
11850TIP3    H256966   4.978   1.914   2.464 -0.3648  0.8833 -0.2523
11851TIP3   OH256967   5.136   3.201   4.628 -0.1321  0.0808 -0.0957
11851TIP3    H156968   5.056   3.196   4.576  0.5294 -2.3821 -1.0073
11851TIP3    H256969   5.106   3.191   4.719 -0.8428 -1.9117 -0.4891
11852TIP3   OH256970   6.358   5.529   1.064 -0.0309  0.3258 -0.0095
11852TIP3    H156971   6.352   5.485   0.978 -2.7918  0.8972 -0.2018
11852TIP3    H256972   6.401   5.464   1.120 -0.1082 -0.9139 -1.3008
11853TIP3   OH256973   2.801   1.048  15.835  0.0010 -0.5291 -0.4027
11853TIP3    H156974   2.853   1.128  15.839  1.0639 -1.1426 -1.5016
11853TIP3    H256975   2.859   0.979  15.866 -0.3221 -1.1403 -1.1214
11854TIP3   OH256976   1.406   3.352  11.999  0.5603 -0.1111 -0.3720
11854TIP3    H156977   1.457   3.271  11.995  0.3324 -0.2607 -0.2874
11854TIP3    H256978   1.453   3.407  12.062  1.2581  0.2081 -1.1706
11855TIP3   OH256979   5.264   4.337  14.915 -0.7569  0.5333  0.7981
11855TIP3    H156980   5.243   4.402  14.847 -0.3575 -1.1228 -1.0087
11855TIP3    H256981   5.179   4.306  14.945 -0.9395  1.2077  0.9890
11856TIP3   OH256982   5.246   3.783   5.663 -0.5110 -0.2472  0.4711
11856TIP3    H156983   5.231   3.870   5.700 -1.3254  0.1037 -0.6243
11856TIP3    H256984   5.334   3.788   5.625 -0.4109 -0.0269  0.7240
11857TIP3   OH256985   4.194   5.853  11.602 -0.3030  0.1166 -0.3153
11857TIP3    H156986   4.273   5.898  11.631  0.9097 -2.1299  0.0370
11857TIP3    H256987   4.183   5.881  11.511  0.6263  0.7899 -0.2364
11858TIP3   OH256988   1.921   5.742  16.531 -0.2576  0.2272  0.0472
11858TIP3    H156989   1.965   5.827  16.521  0.6157 -0.0959  0.8904
11858TIP3    H256990   1.991   5.678  16.524 -0.5857 -0.3143  1.3403
11859TIP3   OH256991   1.500   2.276   4.022 -0.2974 -0.1237  0.0208
11859TIP3    H156992   1.521   2.194   3.978 -0.0707 -0.8922  1.4969
11859TIP3    H256993   1.404   2.279   4.022 -0.3288 -0.8014  0.6563
11860TIP3   OH256994   1.219   2.268   4.045 -0.5120  0.3243  0.0918
11860TIP3    H156995   1.144   2.270   3.986 -2.2807 -0.4977  2.1882
11860TIP3    H256996   1.230   2.176   4.068  0.1994  0.6160  0.9703
11861TIP3   OH256997   1.332   5.287   6.086  0.0927 -0.0407  0.4956
11861TIP3    H156998   1.426   5.293   6.066 -0.3199  0.5104 -1.5025
11861TIP3    H256999   1.320   5.343   6.162  1.2907  0.3503  0.4141
11862TIP3   OH257000   1.463   4.176   1.725 -0.5830 -0.2919  0.2545
11862TIP3    H157001   1.530   4.244   1.720  0.2104 -1.1309 -1.6403
11862TIP3    H257002   1.507   4.097   1.694 -2.4921 -0.8099 -1.3333
11863TIP3   OH257003   2.378   5.856  13.759 -0.0239 -0.4189 -0.0650
11863TIP3    H157004   2.349   5.947  13.770  0.0635 -0.3767 -0.1844
11863TIP3    H257005   2.297   5.805  13.762 -0.0431 -0.3699  0.3493
11864TIP3   OH257006   1.237   0.584  15.341  0.4763 -0.0954  0.5784
11864TIP3    H157007   1.153   0.538  15.337 -0.3434  1.2319  1.5117
11864TIP3    H257008   1.254   0.612  15.251 -1.8224  2.5131  0.8286
11865TIP3   OH257009   0.173   3.451  12.320  0.7638  0.5342 -0.1741
11865TIP3    H157010   0.129   3.371  12.351  1.5904  1.0597  2.6765
11865TIP3    H257011   0.243   3.466  12.384  0.7143  3.4967 -0.6709
11866TIP3   OH257012   3.561   3.139  16.809 -0.2268  0.2854  0.6526
11866TIP3    H157013   3.637   3.103  16.855 -0.4963 -0.3381  0.6079
11866TIP3    H257014   3.595   3.165  16.723 -0.4421 -1.6846 -0.0654
11867TIP3   OH257015   4.518   6.305  14.960 -0.1383 -0.1270 -0.5640
11867TIP3    H157016   4.519   6.344  15.048  1.0914  0.5250 -0.8450
11867TIP3    H257017   4.540   6.213  14.975  0.2823  0.0268 -0.2071
11868TIP3   OH257018   4.268   3.290   0.218 -0.0292 -0.2156  0.3556
11868TIP3    H157019   4.309   3.335   0.292  1.9399 -1.1808 -0.0787
11868TIP3    H257020   4.321   3.316   0.142 -1.9828  0.7310 -0.7590
11869TIP3   OH257021   6.427   4.958  11.780  0.4834  0.3477  0.3058
11869TIP3    H157022   6.372   4.895  11.732 -0.1319  0.7622  0.4471
11869TIP3    H257023   6.491   4.987  11.716 -0.5410  1.1476 -0.3918
11870TIP3   OH257024   3.053   0.488   4.346 -0.1875 -0.1927 -0.1434
11870TIP3    H157025   3.107   0.457   4.419 -2.7315 -2.1271  1.0742
11870TIP3    H257026   3.003   0.560   4.382 -0.2903 -0.0964 -0.4767
11871TIP3   OH257027   4.328   0.262   0.614  0.4487 -0.0240 -0.0282
11871TIP3    H157028   4.308   0.173   0.585 -0.0658  0.3510 -0.8676
11871TIP3    H257029   4.285   0.318   0.550  1.6658  0.8329 -0.1278
11872TIP3   OH257030   2.474   2.960  11.646  0.0570 -1.0479  0.3653
11872TIP3    H157031   2.497   3.018  11.718  1.0636  0.6513 -1.2331
11872TIP3    H257032   2.475   2.872  11.684  1.3670 -0.2763  2.2199
11873TIP3   OH257033   5.485   5.467  15.717  0.2677 -0.2194  0.2017
11873TIP3    H157034   5.487   5.486  15.811 -0.6158  0.7825  0.0353
11873TIP3    H257035   5.394   5.481  15.691  0.7605  0.9313 -1.0698
11874TIP3   OH257036   0.553   5.585   4.024  0.1915 -0.0283  0.7056
11874TIP3    H157037   0.542   5.496   4.057 -1.4926 -1.0206 -2.1179
11874TIP3    H257038   0.635   5.582   3.974  0.9673  0.5235  1.8859
11875TIP3   OH257039   6.116   2.859   0.472  0.0997 -0.2374 -0.1461
11875TIP3    H157040   6.090   2.951   0.476  0.5022 -0.1366  0.2330
11875TIP3    H257041   6.209   2.859   0.492  0.1695 -0.6984 -0.4562
11876TIP3   OH257042   3.833   1.365   2.478 -0.0940  0.2432 -0.6359
11876TIP3    H157043   3.783   1.440   2.510  1.3363  0.4445  1.2591
11876TIP3    H257044   3.907   1.404   2.431  1.4091  0.1405  1.5068
11877TIP3   OH257045   0.647   2.804   3.726 -0.2039 -0.1114  0.0094
11877TIP3    H157046   0.705   2.756   3.784 -1.4425 -1.2696  0.3494
11877TIP3    H257047   0.622   2.882   3.777 -0.0825 -0.3364  0.4179
11878TIP3   OH257048   1.929   3.169  14.992  0.1728 -0.1631  0.4914
11878TIP3    H157049   1.955   3.213  15.073 -1.1822 -1.7435  1.8650
11878TIP3    H257050   2.011   3.157  14.944  0.9839  1.0361  1.4915
11879TIP3   OH257051   6.754   0.531   1.978  0.7820  0.2482  0.2604
11879TIP3    H157052   6.752   0.608   1.921 -0.2631  0.7333  0.9199
11879TIP3    H257053   6.791   0.462   1.923 -0.5444  0.6015 -1.1513
11880TIP3   OH257054   3.616   3.309  14.067 -0.3916  0.0433  0.2684
11880TIP3    H157055   3.593   3.387  14.117 -0.3399  0.2355 -0.0064
11880TIP3    H257056   3.550   3.304  13.998 -0.3960 -0.1575  0.2842
11881TIP3   OH257057   3.969   0.429  14.092 -0.1355 -0.7022  0.5184
11881TIP3    H157058   3.946   0.356  14.035  1.3493 -2.2700  1.8135
11881TIP3    H257059   4.062   0.417  14.111  0.4822  2.2093 -0.1250
11882TIP3   OH257060   6.585   6.096   0.393 -0.2662 -0.2223 -0.3743
11882TIP3    H157061   6.601   6.020   0.449 -1.3426 -1.5893 -1.8324
11882TIP3    H257062   6.563   6.059   0.308 -0.2197  1.7609 -1.3048
11883TIP3   OH257063   1.199   4.109   1.773  0.1989  0.3540 -0.5564
11883TIP3    H157064   1.279   4.144   1.734 -0.6394  2.0313 -0.8616
11883TIP3    H257065   1.164   4.181   1.826 -1.1194 -0.3258 -0.4520
11884TIP3   OH257066   3.685   0.203  11.586  0.2573  0.2239 -0.2783
11884TIP3    H157067   3.637   0.200  11.669 -0.1807  0.1910 -0.5313
11884TIP3    H257068   3.672   0.293  11.555 -0.6601 -0.1210 -0.9402
11885TIP3   OH257069   3.549   5.042   1.327  0.2309 -0.2836 -0.2727
11885TIP3    H157070   3.521   4.952   1.344 -1.3232  0.4034  1.0986
11885TIP3    H257071   3.469   5.085   1.296  0.9892  0.6145 -1.0323
11886TIP3   OH257072   0.157   6.588   4.966  0.1220  0.0697 -1.1748
11886TIP3    H157073   0.242   6.591   5.010  0.1150  0.0520 -1.1598
11886TIP3    H257074   0.167   6.644   4.889 -0.7704  2.6831  0.4518
11887TIP3   OH257075   4.405   0.245  15.558  0.3807 -0.1691 -0.1825
11887TIP3    H157076   4.485   0.270  15.604  1.5616  0.3660 -2.3842
11887TIP3    H257077   4.339   0.305  15.593  1.2601  0.3735  0.6215
11888TIP3   OH257078   0.630   5.259  15.192 -0.5339  0.0185  0.2986
11888TIP3    H157079   0.694   5.294  15.130 -0.4587 -0.0113  0.3596
11888TIP3    H257080   0.675   5.262  15.277  0.1176 -1.8542  0.0466
11889TIP3   OH257081   3.660   1.357   2.036 -0.0513 -0.5032 -0.6938
11889TIP3    H157082   3.605   1.312   1.972  0.2102 -1.8511 -0.0150
11889TIP3    H257083   3.603   1.372   2.111  0.1711 -0.8168 -0.4549
11890TIP3   OH257084   3.683   0.914  14.053 -0.1647  0.6101  0.0943
11890TIP3    H157085   3.712   0.835  14.098 -1.3052 -0.8225 -1.5421
11890TIP3    H257086   3.619   0.954  14.112  1.4937  1.1723  1.5843
11891TIP3   OH257087   1.913   3.660   5.142  0.2680 -0.1332 -0.1334
11891TIP3    H157088   1.913   3.755   5.158  0.8176  0.3858 -2.7123
11891TIP3    H257089   1.859   3.649   5.064 -0.3974 -2.0674  0.5594
11892TIP3   OH257090   1.999   6.320  12.499 -0.1079  0.4717 -0.3867
11892TIP3    H157091   2.054   6.359  12.566  2.0809  0.4034 -2.0400
11892TIP3    H257092   1.994   6.227  12.521  2.6695 -0.0380 -1.5523
11893TIP3   OH257093   0.114   6.192   4.171 -0.2865 -0.3703  0.2499
11893TIP3    H157094   0.052   6.131   4.210 -0.6032  0.1983  0.6467
11893TIP3    H257095   0.068   6.276   4.170 -1.0194 -0.6552 -3.0110
11894TIP3   OH257096   0.719   0.692  16.883 -0.6600  0.0458 -0.3493
11894TIP3    H157097   0.650   0.626  16.886 -0.1687 -0.5237 -1.3087
11894TIP3    H257098   0.797   0.644  16.857 -0.1354  0.8802 -0.3386
11895TIP3   OH257099   2.578   0.315  10.405 -0.1978 -0.0411 -0.4226
11895TIP3    H157100   2.660   0.294  10.450  0.2455  0.3142 -1.0656
11895TIP3    H257101   2.576   0.411  10.403 -0.1436 -0.0587 -1.2994
11896TIP3   OH257102   5.441   2.227   5.173  0.2505 -0.0050  0.4687
11896TIP3    H157103   5.489   2.251   5.252 -2.0283  2.1724  1.3540
11896TIP3    H257104   5.497   2.165   5.127  2.2840 -0.2219  3.0737
11897TIP3   OH257105   2.568   0.545   0.975 -0.2117  0.0727 -0.1054
11897TIP3    H157106   2.479   0.574   0.993 -0.3097  0.0689 -0.5761
11897TIP3    H257107   2.573   0.541   0.880  0.4367  0.5127 -0.0949
11898TIP3   OH257108   4.516   1.933   4.763  0.0949  0.6827 -0.0219
11898TIP3    H157109   4.423   1.949   4.744  0.0215  2.0609  1.3403
11898TIP3    H257110   4.519   1.840   4.784 -0.4337 -0.0844 -2.8564
11899TIP3   OH257111   5.520   5.818  12.298  0.1566 -0.3982  0.3388
11899TIP3    H157112   5.559   5.889  12.247  0.1840 -0.0135  0.8880
11899TIP3    H257113   5.578   5.743  12.285  0.0094 -0.3896 -0.4234
11900TIP3   OH257114   5.278   2.244   0.742 -0.1066 -0.2593 -0.1591
11900TIP3    H157115   5.249   2.193   0.667 -1.4636 -0.6073  0.5671
11900TIP3    H257116   5.374   2.237   0.741 -0.2366 -2.6192 -0.2197
11901TIP3   OH257117   3.370   2.428   2.177 -0.0712  0.4082 -0.0823
11901TIP3    H157118   3.449   2.458   2.133  0.7372  0.4969  1.3555
11901TIP3    H257119   3.355   2.491   2.247 -0.4014 -0.5628  0.7600
11902TIP3   OH257120   0.572   2.566  14.935 -0.3487  1.1578  0.5697
11902TIP3    H157121   0.553   2.473  14.919 -0.0630  1.1019  0.5536
11902TIP3    H257122   0.485   2.607  14.943 -0.4880  1.0292 -0.1995
11903TIP3   OH257123   2.553   2.376  12.507 -0.1865 -0.3776  0.1365
11903TIP3    H157124   2.633   2.384  12.454 -1.0323  0.2300 -1.1056
11903TIP3    H257125   2.583   2.347  12.593  1.2483 -1.5344 -0.7085
11904TIP3   OH257126   4.359   2.698   2.466 -0.0028  0.0750  0.1184
11904TIP3    H157127   4.368   2.690   2.371 -1.2950 -1.1307  0.0621
11904TIP3    H257128   4.328   2.612   2.495  1.0817  0.1798  1.7417
11905TIP3   OH257129   5.478   1.466  11.885  0.6862  1.0217 -0.1696
11905TIP3    H157130   5.426   1.462  11.966  0.6761  2.4411 -0.0839
11905TIP3    H257131   5.507   1.557  11.880  1.4259  0.7361 -1.3156
11906TIP3   OH257132   4.821   3.970   4.568  0.2700  0.4123  0.3334
11906TIP3    H157133   4.764   3.907   4.523  0.3004  1.2332 -0.8696
11906TIP3    H257134   4.762   4.038   4.599  0.5649  1.2168 -0.8308
11907TIP3   OH257135   1.045   3.893   0.962 -0.1723  0.7063  0.7913
11907TIP3    H157136   0.979   3.866   1.026  0.8688 -2.2635  0.7714
11907TIP3    H257137   1.128   3.883   1.007  0.7156 -2.9055 -1.2305
11908TIP3   OH257138   2.702   6.284  14.002  0.3576 -0.3409 -0.0905
11908TIP3    H157139   2.734   6.374  14.001 -0.9349  0.1667  1.0396
11908TIP3    H257140   2.707   6.258  14.094  2.1728 -2.0083 -0.5814
11909TIP3   OH257141   4.864   1.536   3.792  0.0207  0.4947  0.1203
11909TIP3    H157142   4.806   1.608   3.769  1.1843  0.6589 -2.6797
11909TIP3    H257143   4.950   1.562   3.759  1.0334 -1.0913  1.3354
11910TIP3   OH257144   6.114   0.961   2.461 -0.0490  0.2204 -0.2566
11910TIP3    H157145   6.036   0.983   2.411 -0.7120  0.4314  0.8506
11910TIP3    H257146   6.144   1.045   2.497 -0.0333 -0.0277  0.3279
11911TIP3   OH257147   0.636   4.045   0.563  0.0992 -0.0674 -0.1081
11911TIP3    H157148   0.553   4.029   0.609  0.0730 -0.7793 -0.3961
11911TIP3    H257149   0.687   3.965   0.577  0.1923 -0.1920 -1.1135
11912TIP3   OH257150   0.710   4.664  15.161  0.0896  0.8623 -0.1386
11912TIP3    H157151   0.805   4.673  15.172  0.1468  0.7342 -0.5023
11912TIP3    H257152   0.675   4.662  15.250  0.6313 -1.2661  0.0806
11913TIP3   OH257153   4.614   6.604  11.456  0.6085  0.3784 -0.3798
11913TIP3    H157154   4.572   6.546  11.520 -2.1090  0.9522 -1.4869
11913TIP3    H257155   4.591   6.692  11.485  3.9341  1.0057  0.7775
11914TIP3   OH257156   3.979   0.659  15.685  0.0998  0.0645 -0.4944
11914TIP3    H157157   3.959   0.586  15.626 -0.3372  1.0386 -1.5946
11914TIP3    H257158   3.983   0.735  15.628 -0.6544  1.0994  0.7826
11915TIP3   OH257159   4.615   5.837   3.564 -0.1260 -0.2920  0.3045
11915TIP3    H157160   4.533   5.880   3.589 -0.0610 -0.3138  0.5630
11915TIP3    H257161   4.676   5.909   3.548 -0.4037 -0.2498 -0.6539
11916TIP3   OH257162   3.417   0.979   3.055  0.0664 -0.5655 -0.2341
11916TIP3    H157163   3.458   0.916   3.115 -0.8182 -0.9031  0.0215
11916TIP3    H257164   3.441   0.948   2.968  1.6352  0.1088 -0.0820
11917TIP3   OH257165   5.115   4.609   0.861  0.3748 -0.5630  0.1066
11917TIP3    H157166   5.045   4.670   0.883 -0.6658 -2.2806  1.7634
11917TIP3    H257167   5.157   4.648   0.784  0.2585  2.6127  1.4995
11918TIP3   OH257168   5.896   5.903   3.382  0.6558 -0.4717 -0.2033
11918TIP3    H157169   5.921   5.829   3.328  0.2960  0.2299 -1.3643
11918TIP3    H257170   5.936   5.886   3.467 -0.8977 -2.8739  0.1303
11919TIP3   OH257171   4.816   3.246   3.226 -0.9564  0.2332  0.0464
11919TIP3    H157172   4.797   3.172   3.168 -0.2743  0.9410 -1.1426
11919TIP3    H257173   4.861   3.207   3.301  0.6182 -0.4524 -1.1809
11920TIP3   OH257174   3.383   5.265  16.837  0.6115 -0.5517  0.4670
11920TIP3    H157175   3.358   5.173  16.830  0.6694 -0.6328  1.3139
11920TIP3    H257176   3.345   5.305  16.758  0.9277 -1.3634 -0.1130
11921TIP3   OH257177   1.313   2.405   1.784  0.0980 -0.0449 -0.1994
11921TIP3    H157178   1.342   2.374   1.698  2.0587 -0.3919  0.5413
11921TIP3    H257179   1.369   2.359   1.846  0.2533  1.8749  1.1634
11922TIP3   OH257180   4.753   4.898   5.069 -0.7780  0.0680  0.4034
11922TIP3    H157181   4.831   4.932   5.026 -1.9554  2.1793 -0.1900
11922TIP3    H257182   4.769   4.912   5.163  0.7203 -2.2123  0.5568
11923TIP3   OH257183   4.203   4.753  10.184  0.3124 -0.0471 -0.2758
11923TIP3    H157184   4.122   4.784  10.225  0.3121 -1.9077  1.2935
11923TIP3    H257185   4.227   4.823  10.123 -1.4334  1.4220  0.6045
11924TIP3   OH257186   0.215   4.996  11.578  0.1292  0.0745  0.7119
11924TIP3    H157187   0.281   4.993  11.647  0.9180 -3.8507  0.0366
11924TIP3    H257188   0.260   4.965  11.499 -1.2278  2.5858 -1.1922
11925TIP3   OH257189   1.999   4.170  10.798 -0.1038 -0.3566 -0.0158
11925TIP3    H157190   1.923   4.173  10.740 -0.2284 -2.4391 -0.0532
11925TIP3    H257191   2.033   4.259  10.798 -0.9971  0.0463 -2.0826
11926TIP3   OH257192   6.444   3.295  15.175 -0.1918  0.3960  0.9724
11926TIP3    H157193   6.465   3.209  15.211  2.3799  0.8629  0.8149
11926TIP3    H257194   6.425   3.349  15.251  1.6366  0.4950  1.3977
11927TIP3   OH257195   0.564   4.127  16.248 -0.0810 -0.0187 -0.5874
11927TIP3    H157196   0.532   4.038  16.246 -1.7924  0.4110  2.1403
11927TIP3    H257197   0.611   4.134  16.332  1.4140  1.2305 -1.4614
11928TIP3   OH257198   6.269   0.083  13.576 -0.0557 -0.7605  0.0838
11928TIP3    H157199   6.339   0.149  13.581 -1.7112  1.2709 -1.4756
11928TIP3    H257200   6.271   0.040  13.661  2.5708 -0.2662  0.3655
11929TIP3   OH257201   2.085   2.729   4.059 -0.4326 -0.1474  0.4849
11929TIP3    H157202   1.998   2.718   4.020 -0.6288  2.0823  0.1772
11929TIP3    H257203   2.069   2.766   4.145  0.2318  2.0353 -0.2792
11930TIP3   OH257204   4.516   3.517  11.751  0.4818 -0.1233  0.2254
11930TIP3    H157205   4.492   3.564  11.672 -0.7474  0.4581  0.9241
11930TIP3    H257206   4.470   3.433  11.744 -0.2611  0.2360  0.6687
11931TIP3   OH257207   1.073   1.849   0.609  0.3803  0.1634 -0.4252
11931TIP3    H157208   1.005   1.782   0.609 -0.8852  1.4158 -0.4248
11931TIP3    H257209   1.147   1.808   0.563  0.0583 -1.6106  0.5567
11932TIP3   OH257210   6.424   3.386  16.916  0.3915 -0.1305 -0.1071
11932TIP3    H157211   6.448   3.393  16.824 -2.2007  1.6331 -0.7770
11932TIP3    H257212   6.451   3.298  16.942  0.9759 -0.7573 -2.6311
11933TIP3   OH257213   0.789   6.666  11.168  0.0867  0.3784  0.0504
11933TIP3    H157214   0.705   6.688  11.207  0.6242  0.7848  1.0265
11933TIP3    H257215   0.850   6.663  11.243  0.7741 -0.7439 -0.5159
11934TIP3   OH257216   2.935   1.591   0.194 -0.3160  0.1378  0.6395
11934TIP3    H157217   2.874   1.544   0.250 -1.1651  1.7808  1.1562
11934TIP3    H257218   2.880   1.650   0.142  0.7492  0.9828  0.4319
11935TIP3   OH257219   3.148   3.320  16.296 -0.5685 -0.2252 -0.1246
11935TIP3    H157220   3.119   3.254  16.233  0.4989 -0.2848 -0.5693
11935TIP3    H257221   3.189   3.270  16.366 -0.3132 -0.0739 -0.1633
11936TIP3   OH257222   5.858   1.864   6.113 -0.6468  0.4075  0.6754
11936TIP3    H157223   5.901   1.782   6.139 -2.2509 -0.6539  0.1645
11936TIP3    H257224   5.822   1.899   6.194 -0.5122  0.2763  0.7934
11937TIP3   OH257225   2.107   2.363  11.676 -0.3774 -0.3084  0.1919
11937TIP3    H157226   2.168   2.403  11.738  0.0293  0.4060 -0.6445
11937TIP3    H257227   2.096   2.428  11.607  0.7701 -1.8177 -1.5265
11938TIP3   OH257228   4.811   4.951   5.737  0.1204  0.1854  0.0401
11938TIP3    H157229   4.757   4.872   5.732 -0.0495  0.3622 -1.2974
11938TIP3    H257230   4.748   5.023   5.732  0.4063  0.3893 -0.9327
11939TIP3   OH257231   4.634   2.859   6.418 -0.1656 -0.2200 -0.4180
11939TIP3    H157232   4.551   2.814   6.434  0.2534 -0.0164  3.2349
11939TIP3    H257233   4.671   2.873   6.505  2.7166  1.6337 -1.7695
11940TIP3   OH257234   0.671   6.200   3.386  0.2493  0.3686 -0.0148
11940TIP3    H157235   0.697   6.168   3.473 -1.2851  0.4010  0.4868
11940TIP3    H257236   0.642   6.122   3.339 -1.1498  0.6421  0.3468
11941TIP3   OH257237   0.203   6.550  14.270 -0.2379 -0.2435  0.0009
11941TIP3    H157238   0.247   6.526  14.352 -0.0814 -0.8072 -0.2437
11941TIP3    H257239   0.166   6.468  14.238 -0.8578  0.0967 -0.1635
11942TIP3   OH257240   6.422   5.418  15.649 -0.4987 -0.1013  0.1700
11942TIP3    H157241   6.443   5.411  15.556  1.5722  1.4963  0.4207
11942TIP3    H257242   6.444   5.332  15.685  1.6489  0.1362 -0.3952
11943TIP3   OH257243   2.898   2.570  13.496  0.6471  0.1433 -0.3894
11943TIP3    H157244   2.866   2.482  13.477 -2.2241  1.5228 -2.7879
11943TIP3    H257245   2.862   2.590  13.583  0.8066 -0.7888 -0.0970
11944TIP3   OH257246   4.128   4.262   2.596 -0.2846 -0.1252  0.0373
11944TIP3    H157247   4.067   4.326   2.558  1.6777  2.3662  0.7643
11944TIP3    H257248   4.206   4.268   2.540  0.6279 -0.4571  1.2392
11945TIP3   OH257249   2.156   3.489  14.274  0.2077  0.0532 -0.1741
11945TIP3    H157250   2.085   3.446  14.226  1.0423 -1.1378 -0.3955
11945TIP3    H257251   2.199   3.419  14.322  1.5030  0.6590 -0.3908
11946TIP3   OH257252   4.810   1.971  15.573 -0.3349 -0.0304  0.3783
11946TIP3    H157253   4.818   1.989  15.666  3.1167 -1.7758  0.5595
11946TIP3    H257254   4.843   2.051  15.530  0.9027 -0.3267  0.7574
11947TIP3   OH257255   4.593   6.225   5.900 -0.5547  0.3023  0.0023
11947TIP3    H157256   4.607   6.317   5.924 -0.0599 -0.0156  0.9941
11947TIP3    H257257   4.498   6.217   5.893 -0.8658  0.2119  2.9532
11948TIP3   OH257258   4.014   5.241   1.412 -0.2415  0.2167 -0.3826
11948TIP3    H157259   3.931   5.284   1.394 -0.2902  0.2267 -0.1426
11948TIP3    H257260   4.031   5.260   1.504  0.1945  0.4991 -0.5152
11949TIP3   OH257261   1.788   6.490   0.087  0.1771  0.4707  0.0000
11949TIP3    H157262   1.741   6.533   0.016 -0.3399 -0.7731 -0.4418
11949TIP3    H257263   1.731   6.500   0.164  0.2815  0.9663  0.0152
11950TIP3   OH257264   4.657   4.289  11.588  0.2164  0.1063 -0.1174
11950TIP3    H157265   4.587   4.336  11.543  0.2220 -0.0409 -0.2796
11950TIP3    H257266   4.694   4.232  11.522  0.6319  0.3402 -0.0931
11951TIP3   OH257267   0.964   1.892  12.736  0.3860  0.3621 -0.8645
11951TIP3    H157268   1.004   1.827  12.794  0.5247 -0.7807 -2.1961
11951TIP3    H257269   0.955   1.970  12.791 -0.3725 -0.9461  0.9795
11952TIP3   OH257270   0.142   3.302  12.901  0.0221 -0.3999  0.1878
11952TIP3    H157271   0.060   3.313  12.948  0.9943  0.1319  1.8669
11952TIP3    H257272   0.193   3.379  12.924  0.9083 -0.6054 -1.0070
11953TIP3   OH257273   1.662   2.720   0.013  0.8249  0.3088 -0.7141
11953TIP3    H157274   1.615   2.795  -0.023 -0.7387 -0.8002 -1.0709
11953TIP3    H257275   1.703   2.754   0.092 -0.2764  1.4291 -0.5877
11954TIP3   OH257276   0.461   2.443  12.859  0.3677 -0.3052  0.1561
11954TIP3    H157277   0.508   2.524  12.873 -2.0338  1.8270 -2.6605
11954TIP3    H257278   0.510   2.398  12.790 -0.9478  1.3797 -1.9918
11955TIP3   OH257279   3.573   4.369   0.996  0.5001 -0.0919 -0.2616
11955TIP3    H157280   3.558   4.419   0.916  0.9030  0.8798  0.2590
11955TIP3    H257281   3.637   4.421   1.045 -1.5152  0.5806  1.7877
11956TIP3   OH257282   1.131   6.352   2.572  0.2902  0.0565  0.3087
11956TIP3    H157283   1.132   6.371   2.666 -1.0074  1.3682  0.1010
11956TIP3    H257284   1.076   6.421   2.534 -1.6387 -2.1065 -1.0580
11957TIP3   OH257285   4.849   3.975  13.174 -0.6581 -0.1878  0.6375
11957TIP3    H157286   4.805   4.051  13.213 -1.2482  0.6207 -1.4436
11957TIP3    H257287   4.818   3.900  13.225 -1.2883  0.8059  1.7625
11958TIP3   OH257288   6.342   6.665   3.396 -0.1129 -0.2621  0.2456
11958TIP3    H157289   6.389   6.674   3.480 -0.4830 -2.3060  0.7311
11958TIP3    H257290   6.250   6.659   3.421 -0.1483 -1.9549 -0.1723
11959TIP3   OH257291   4.672   5.134  11.204 -0.0607 -0.2355  0.1264
11959TIP3    H157292   4.671   5.134  11.109 -1.3367  2.6121  0.0333
11959TIP3    H257293   4.580   5.144  11.229  0.4129  0.9303  1.5684
11960TIP3   OH257294   5.883   1.014  11.810 -0.0605 -0.5631 -0.3538
11960TIP3    H157295   5.813   1.008  11.876  0.7388 -0.6208  0.5149
11960TIP3    H257296   5.866   1.096  11.764  0.0587  0.1059  0.7530
11961TIP3   OH257297   1.010   0.072   4.091  0.0915  0.2565 -0.1808
11961TIP3    H157298   0.970   0.004   4.036 -0.7689  0.1385  0.5739
11961TIP3    H257299   0.961   0.151   4.070 -0.3861  0.1672  0.5568
11962TIP3   OH257300   5.887   1.388   4.282  0.0540  0.0226 -0.0830
11962TIP3    H157301   5.797   1.373   4.312 -0.0149 -1.1716 -0.7853
11962TIP3    H257302   5.893   1.483   4.270 -1.8804 -0.0164 -2.2026
11963TIP3   OH257303   1.000   3.322   3.700 -0.2035 -0.6698 -0.2672
11963TIP3    H157304   1.083   3.296   3.739  0.5241 -2.2065 -2.6077
11963TIP3    H257305   0.947   3.242   3.702 -1.4527  0.1401  0.6597
11964TIP3   OH257306   2.300   4.251  13.487  0.4439 -0.0940 -0.2519
11964TIP3    H157307   2.282   4.251  13.581  2.3534  0.4294  0.1430
11964TIP3    H257308   2.305   4.159  13.463 -2.7560 -0.3459 -0.4714
11965TIP3   OH257309   0.072   1.624   6.346  0.8427  0.0283 -0.3968
11965TIP3    H157310   0.077   1.712   6.308  0.1656  0.5976  0.7759
11965TIP3    H257311   0.121   1.630   6.428 -0.6408 -0.2102  0.5331
11966TIP3   OH257312   0.180   3.564   4.117  0.1945 -0.0085 -0.4308
11966TIP3    H157313   0.152   3.655   4.114 -0.4062 -0.1222  0.8834
11966TIP3    H257314   0.203   3.543   4.027 -0.7110  1.1179 -0.9495
11967TIP3   OH257315   4.939   2.540   3.799  0.0353  0.4392 -0.6045
11967TIP3    H157316   4.910   2.609   3.858 -0.1120 -0.7544  0.7788
11967TIP3    H257317   4.982   2.476   3.855  3.1997  0.9133 -2.2386
11968TIP3   OH257318   6.048   0.350   1.742 -0.1649  0.0667 -0.0091
11968TIP3    H157319   5.955   0.353   1.762 -0.3783 -0.9883 -0.7655
11968TIP3    H257320   6.090   0.396   1.815 -1.3062  1.0570  0.0523
11969TIP3   OH257321   4.943   6.505  13.002  0.0056  0.0656  0.5679
11969TIP3    H157322   5.009   6.438  12.985 -0.6603 -0.8105  1.3414
11969TIP3    H257323   4.899   6.518  12.918  0.5051 -0.0621  0.2866
11970TIP3   OH257324   2.710   1.769  13.140 -0.2937 -0.3960 -0.4175
11970TIP3    H157325   2.734   1.680  13.115  0.1007 -1.1668  2.3494
11970TIP3    H257326   2.749   1.780  13.227 -0.6199  2.3770 -0.5372
11971TIP3   OH257327   2.866   5.689  11.343  0.2558  0.3097  0.4442
11971TIP3    H157328   2.850   5.724  11.256  0.0993  0.7251  0.6369
11971TIP3    H257329   2.818   5.747  11.402  0.2224 -0.0642  0.7949
11972TIP3   OH257330   1.987   4.163   5.567  0.5147 -0.3499  0.2605
11972TIP3    H157331   2.006   4.165   5.660 -2.6233 -1.3146  1.0469
11972TIP3    H257332   1.959   4.073   5.550 -2.7638  0.6977 -0.6365
11973TIP3   OH257333   3.890   5.118  14.784 -0.5824 -0.4962  0.9204
11973TIP3    H157334   3.932   5.202  14.802  1.9454 -1.8749  2.1310
11973TIP3    H257335   3.861   5.087  14.870 -0.0864 -1.5019  0.7455
11974TIP3   OH257336   3.175   5.063   0.509 -0.1487  0.8114  0.3513
11974TIP3    H157337   3.250   5.122   0.510 -0.2413  1.0184 -1.6017
11974TIP3    H257338   3.171   5.030   0.420 -1.4425 -0.4320  0.8271
11975TIP3   OH257339   2.063   1.208   2.235  0.3851 -0.1924  0.0080
11975TIP3    H157340   2.123   1.147   2.191 -0.7915  0.8754 -3.3742
11975TIP3    H257341   2.106   1.293   2.226  0.0047  0.0928  0.8134
11976TIP3   OH257342   3.779   1.428   5.399  0.2237  0.2023  0.3379
11976TIP3    H157343   3.855   1.377   5.425  1.1351  0.1691 -2.1769
11976TIP3    H257344   3.716   1.415   5.470  0.9261 -3.2795  0.4900
11977TIP3   OH257345   6.735   3.359   0.067 -0.4402  1.0789 -0.5561
11977TIP3    H157346   6.696   3.400   0.143 -1.5516  0.4331 -0.7581
11977TIP3    H257347   6.724   3.265   0.081  0.0217  0.9243 -1.1516
11978TIP3   OH257348   2.483   2.059   2.005 -0.0567 -0.3590  0.0475
11978TIP3    H157349   2.387   2.055   2.005 -0.2510  2.3613 -1.1986
11978TIP3    H257350   2.504   2.121   2.074  0.9451 -1.7638  1.0718
11979TIP3   OH257351   1.330   2.227  15.787 -0.2953  0.5599 -0.6025
11979TIP3    H157352   1.310   2.200  15.697 -1.8867  1.4665 -0.5639
11979TIP3    H257353   1.322   2.147  15.838  1.2142 -0.0906 -1.3153
11980TIP3   OH257354   2.713   5.300   5.437 -0.8315  0.3153 -0.2585
11980TIP3    H157355   2.745   5.360   5.369 -0.1138  0.7556  0.4489
11980TIP3    H257356   2.778   5.308   5.507 -3.0296  2.0619  1.7275
11981TIP3   OH257357   5.473   1.072  15.984 -0.2483 -0.2149  0.1370
11981TIP3    H157358   5.377   1.072  15.992 -0.5178 -3.4921 -1.4149
11981TIP3    H257359   5.489   1.120  15.903 -0.4067  1.3526  0.9840
11982TIP3   OH257360   4.718   2.482  12.929  0.4576  0.4351  0.3814
11982TIP3    H157361   4.700   2.522  13.014 -0.0011  0.9403  0.0538
11982TIP3    H257362   4.649   2.417  12.918 -1.5175  2.6280 -1.0405
11983TIP3   OH257363   6.405   3.701   5.940 -0.1509  0.1820  0.4075
11983TIP3    H157364   6.328   3.742   5.978  0.4986  0.8098  1.0734
11983TIP3    H257365   6.453   3.666   6.014  0.2677 -0.0983  0.0124
11984TIP3   OH257366   3.008   6.138   1.061 -0.0891  0.1853  0.0238
11984TIP3    H157367   2.937   6.191   1.024  0.9159  0.4998 -1.5449
11984TIP3    H257368   3.011   6.162   1.154 -1.8847  0.2981  0.0826
11985TIP3   OH257369   6.653   3.759  11.649  0.3745 -0.6718  0.6531
11985TIP3    H157370   6.686   3.740  11.737  0.4350  1.0696  1.0513
11985TIP3    H257371   6.666   3.678  11.600  1.9220 -1.1689  1.7937
11986TIP3   OH257372   2.313   3.387  13.481 -0.4819  0.4931 -0.0350
11986TIP3    H157373   2.231   3.344  13.508  0.6672 -1.7969  0.0514
11986TIP3    H257374   2.360   3.402  13.563  0.0964 -0.2101 -0.2286
11987TIP3   OH257375   1.139   5.190   0.401  0.2963 -0.4759  0.8631
11987TIP3    H157376   1.130   5.143   0.484 -2.2956  2.2047  2.2845
11987TIP3    H257377   1.207   5.255   0.418 -0.2504  0.0879  0.9279
11988TIP3   OH257378   1.292   5.354   0.137  0.7469  0.5511  0.0035
11988TIP3    H157379   1.199   5.345   0.115  0.5452 -0.0752  1.0225
11988TIP3    H257380   1.329   5.267   0.121  1.2723  0.9185 -0.8389
11989TIP3   OH257381   6.429   3.592   2.152 -0.0274  0.3194 -0.5429
11989TIP3    H157382   6.473   3.529   2.208  1.5528 -0.0701 -2.1277
11989TIP3    H257383   6.445   3.677   2.193 -0.3415 -0.0999  0.4590
11990TIP3   OH257384   0.543   4.289   0.120  0.3753  0.4679  0.9771
11990TIP3    H157385   0.600   4.245   0.183  0.1803 -2.2418 -0.5933
11990TIP3    H257386   0.481   4.222   0.092  0.2071  1.6233 -1.7795
11991TIP3   OH257387   2.904   5.732   1.315 -0.0735 -0.3915 -0.0516
11991TIP3    H157388   2.865   5.816   1.293 -0.3866 -0.8018 -1.0915
11991TIP3    H257389   2.993   5.737   1.281 -0.0254 -0.4008  0.0724
11992TIP3   OH257390   2.372   2.312  14.723 -0.0792  0.2550 -0.5201
11992TIP3    H157391   2.313   2.319  14.798 -0.1551  1.1598 -0.6485
11992TIP3    H257392   2.403   2.222  14.725 -0.8770 -0.0197 -0.0061
11993TIP3   OH257393   5.524   1.912   0.507 -0.2011  0.2784 -0.4593
11993TIP3    H157394   5.431   1.887   0.513 -0.9153  2.5426 -0.9456
11993TIP3    H257395   5.572   1.831   0.519 -2.2353 -0.8249  0.6933
11994TIP3   OH257396   6.241   4.821   4.444 -0.9199  0.5120 -0.6215
11994TIP3    H157397   6.170   4.771   4.403 -0.0425 -1.0980 -0.2835
11994TIP3    H257398   6.197   4.878   4.506 -1.9957  0.3242 -1.1798
11995TIP3   OH257399   0.778   3.240  11.880  0.0444  0.0471  0.3889
11995TIP3    H157400   0.863   3.267  11.914  0.2203 -0.5694  0.4536
11995TIP3    H257401   0.769   3.149  11.908 -1.7607  0.8168  2.5887
11996TIP3   OH257402   3.012   1.500  13.466  0.0042 -0.4010  0.3499
11996TIP3    H157403   3.092   1.449  13.476 -0.8064 -1.7145  0.3247
11996TIP3    H257404   2.973   1.501  13.553 -1.1388 -1.8136 -0.1168
11997TIP3   OH257405   0.572   0.258  16.397  0.0860  0.4496 -0.4220
11997TIP3    H157406   0.496   0.312  16.421  0.7171  0.0364  2.8767
11997TIP3    H257407   0.645   0.297  16.445  1.1172 -1.6759 -0.1919
11998TIP3   OH257408   3.707   2.610  17.079 -0.0918  0.1013 -0.0550
11998TIP3    H157409   3.628   2.615  17.026 -1.4277 -1.2560  1.6548
11998TIP3    H257410   3.748   2.528  17.052  0.3642  0.4593 -0.4538
11999TIP3   OH257411   1.458   1.279   4.685 -0.3744 -0.2172  0.0246
11999TIP3    H157412   1.536   1.254   4.634 -0.0495 -0.2648  0.5327
11999TIP3    H257413   1.445   1.371   4.665 -0.5249 -0.3488 -0.5009
12000TIP3   OH257414   2.560   3.586   3.247  0.7426  0.6019  0.1342
12000TIP3    H157415   2.480   3.635   3.263  0.4282 -0.1477  0.9527
12000TIP3    H257416   2.614   3.644   3.194 -0.7282  0.7543 -1.2638
12001TIP3   OH257417   4.534   4.154  11.294 -0.1935  0.1375  0.2159
12001TIP3    H157418   4.513   4.061  11.287  0.2346 -0.0806  1.4708
12001TIP3    H257419   4.628   4.156  11.312 -0.2662  0.7863  0.5605
12002TIP3   OH257420   2.943   3.672  13.092  0.0897 -0.5335  0.2441
12002TIP3    H157421   3.015   3.681  13.030  1.7100 -0.7130  1.9900
12002TIP3    H257422   2.938   3.758  13.135  0.4367 -1.0048  1.2838
12003TIP3   OH257423   5.416   1.224   0.556 -0.3621 -0.0067  0.1100
12003TIP3    H157424   5.405   1.185   0.469 -1.0186  1.1191 -0.3441
12003TIP3    H257425   5.347   1.289   0.561  0.1867  0.5142  1.1554
12004TIP3   OH257426   0.605   1.317  16.351 -0.4029  0.2159  0.4207
12004TIP3    H157427   0.599   1.334  16.445  1.3750 -1.4662  0.9012
12004TIP3    H257428   0.542   1.247  16.336  0.3998 -0.5838  0.6912
12005TIP3   OH257429   5.092   6.398   2.632 -0.0398 -0.3874  0.2689
12005TIP3    H157430   5.160   6.337   2.661  0.9435  0.7680  0.5239
12005TIP3    H257431   5.120   6.423   2.543 -0.2093 -0.0280  0.3153
12006TIP3   OH257432   5.836   3.129  10.621 -0.5911 -0.2150  0.7901
12006TIP3    H157433   5.796   3.056  10.668 -1.7159  1.4193  2.5439
12006TIP3    H257434   5.928   3.128  10.649 -0.5571 -1.0384  0.6668
12007TIP3   OH257435   2.649   4.842   0.684 -0.0366  0.1339 -0.2982
12007TIP3    H157436   2.599   4.813   0.607  1.5925  1.2149 -1.8487
12007TIP3    H257437   2.729   4.791   0.681 -0.4208 -0.6175  1.3863
12008TIP3   OH257438   2.540   5.863  15.344 -0.2358 -0.1695 -0.1124
12008TIP3    H157439   2.619   5.815  15.318  0.0427 -0.0062  0.4144
12008TIP3    H257440   2.521   5.919  15.270  2.2420  2.4528  1.0441
12009TIP3   OH257441   5.353   1.611  15.328 -0.1755 -0.0561 -0.4377
12009TIP3    H157442   5.263   1.600  15.358 -0.4659  1.5261 -0.6532
12009TIP3    H257443   5.372   1.704  15.342  1.1577 -0.2040 -1.1071
12010TIP3   OH257444   5.469   0.049  14.849  0.2163  0.2899  0.9130
12010TIP3    H157445   5.449   0.122  14.908 -1.1842 -0.0421  0.8866
12010TIP3    H257446   5.405  -0.018  14.873 -0.0789 -0.0202 -0.6665
12011TIP3   OH257447   0.762   3.296   0.169  0.6058  0.1142  0.3654
12011TIP3    H157448   0.766   3.390   0.187 -0.1317  0.4780 -1.2197
12011TIP3    H257449   0.694   3.287   0.102  1.5492 -1.3961 -0.4440
12012TIP3   OH257450   4.905   3.447   5.676  0.0637  0.0871 -0.4314
12012TIP3    H157451   4.982   3.407   5.718  1.9440  1.2128 -2.5864
12012TIP3    H257452   4.907   3.538   5.704  0.0426  0.3204 -1.1746
12013TIP3   OH257453   4.142   5.637   5.459  0.1134  0.6301 -0.5686
12013TIP3    H157454   4.095   5.594   5.531  0.1816  0.2737 -0.7342
12013TIP3    H257455   4.234   5.617   5.475  0.0001 -1.0941 -1.7946
12014TIP3   OH257456   0.046   0.703  16.708  0.4752  0.7217 -0.4518
12014TIP3    H157457  -0.021   0.641  16.678 -0.2381  1.0869  0.3545
12014TIP3    H257458  -0.004   0.779  16.737  1.1216  0.4507  1.5009
12015TIP3   OH257459   2.682   0.957  12.593  0.7469 -0.3852  0.7645
12015TIP3    H157460   2.713   1.048  12.600 -0.1771  0.4208 -3.0848
12015TIP3    H257461   2.600   0.956  12.643  0.4594  1.1176  0.3872
12016TIP3   OH257462   5.873   2.147   4.269 -0.7517  0.0960  0.3524
12016TIP3    H157463   5.783   2.128   4.241 -0.0273 -0.0201 -2.1030
12016TIP3    H257464   5.894   2.231   4.227  0.0490  0.5383  1.5735
12017TIP3   OH257465   1.257   5.410  15.819  0.0554  0.0240  0.6539
12017TIP3    H157466   1.262   5.333  15.762  1.3158  0.1883  0.5179
12017TIP3    H257467   1.183   5.461  15.785 -2.6511 -2.4095  2.3944
12018TIP3   OH257468   6.474   0.649  10.230  0.3934 -0.1755 -0.0406
12018TIP3    H157469   6.569   0.637  10.221  0.7437 -1.4191  3.7017
12018TIP3    H257470   6.464   0.717  10.296 -1.2609 -1.3469  0.9814
12019TIP3   OH257471   2.179   5.241  10.060 -0.1496 -0.4729 -0.6076
12019TIP3    H157472   2.195   5.167  10.119 -0.4741 -0.2542 -0.2397
12019TIP3    H257473   2.265   5.280  10.046 -0.4181  1.8934  2.9241
12020TIP3   OH257474   6.640   1.211   1.425 -0.2230 -0.2988 -0.6465
12020TIP3    H157475   6.639   1.130   1.477 -1.6969  0.3054  0.3570
12020TIP3    H257476   6.622   1.182   1.336 -2.1095 -1.0162 -0.0962
12021TIP3   OH257477   1.251   4.102  11.987 -0.4851  0.4174  0.0787
12021TIP3    H157478   1.236   4.026  12.043 -1.5620  1.2256  0.9226
12021TIP3    H257479   1.188   4.167  12.017  0.6167  1.7650 -0.4294
12022TIP3   OH257480   0.119   0.439  13.977  0.2476 -0.2638  0.3372
12022TIP3    H157481   0.051   0.435  14.044 -0.5649  0.7437 -0.4003
12022TIP3    H257482   0.149   0.529  13.978  0.2806 -0.2520 -0.5994
12023TIP3   OH257483   5.762   6.145  13.507  0.3305 -0.1183 -0.0514
12023TIP3    H157484   5.726   6.097  13.432 -0.1928  0.1935 -0.0052
12023TIP3    H257485   5.685   6.182  13.550  0.8508  2.6219 -1.3176
12024TIP3   OH257486   3.048   2.549   0.831 -0.3131 -0.1738 -0.0129
12024TIP3    H157487   3.114   2.502   0.881 -0.7895 -1.0511 -0.1965
12024TIP3    H257488   3.076   2.641   0.834  0.5056 -0.4373  0.5269
12025TIP3   OH257489   4.334   0.974   1.275  0.4447 -0.5572 -0.2473
12025TIP3    H157490   4.269   1.043   1.264  0.0712 -1.0835 -1.6027
12025TIP3    H257491   4.403   0.994   1.211  0.1213 -1.6446 -0.9778
12026TIP3   OH257492   4.848   1.350  14.144 -0.7515 -0.3236 -0.1736
12026TIP3    H157493   4.791   1.295  14.198 -0.5885  0.1876  0.5356
12026TIP3    H257494   4.937   1.328  14.174 -0.7412  1.4521  1.2646
12027TIP3   OH257495   4.026   1.308  11.189  0.0134  0.1392 -0.5518
12027TIP3    H157496   4.099   1.336  11.133  0.2285 -1.0627 -0.8989
12027TIP3    H257497   4.020   1.213  11.175 -0.7499  0.0172  0.5027
12028TIP3   OH257498   1.498   3.561  13.167  0.9011  0.6409 -0.3276
12028TIP3    H157499   1.405   3.582  13.167  0.3458 -1.2201 -2.9768
12028TIP3    H257500   1.513   3.517  13.250 -1.4693 -2.0001 -1.1480
12029TIP3   OH257501   0.313   5.504  15.305 -0.5580 -0.2749 -0.0365
12029TIP3    H157502   0.377   5.570  15.332 -0.2266 -0.5525 -0.1469
12029TIP3    H257503   0.231   5.553  15.296 -0.4548  0.0085  0.5008
12030TIP3   OH257504   2.982   0.764  13.879 -0.2327 -0.3783 -0.0121
12030TIP3    H157505   3.075   0.743  13.866 -0.5429 -0.8957 -1.6924
12030TIP3    H257506   2.979   0.860  13.876  0.5210 -0.2132  2.4944
12031TIP3   OH257507   2.251   6.308   2.997  0.3400  0.1211  0.6616
12031TIP3    H157508   2.323   6.304   2.934  1.4290 -0.5143  1.8752
12031TIP3    H257509   2.199   6.384   2.970  1.1191  0.2277 -0.6172
12032TIP3   OH257510   2.061   4.578  13.621  0.0799 -0.0989 -0.3636
12032TIP3    H157511   2.108   4.660  13.631 -1.7252  0.9447  0.0635
12032TIP3    H257512   2.096   4.539  13.541 -1.6865  3.0110 -2.8643
12033TIP3   OH257513   0.047   4.667   1.049  0.1650  0.5944 -0.4019
12033TIP3    H157514   0.035   4.724   0.973  0.9683  0.6284 -0.5097
12033TIP3    H257515  -0.012   4.704   1.115 -1.1342  0.0829 -1.2518
12034TIP3   OH257516   4.534   3.772   4.727  0.0797 -0.1922  0.0555
12034TIP3    H157517   4.521   3.827   4.650  3.0411  1.1952  0.4235
12034TIP3    H257518   4.500   3.824   4.799  0.6492  0.1111  0.1089
12035TIP3   OH257519   4.960   2.831   1.376 -0.8744 -0.2753 -0.4152
12035TIP3    H157520   4.937   2.862   1.289  0.1682 -2.0951 -1.3861
12035TIP3    H257521   5.055   2.819   1.374 -0.8380 -0.4268  0.9499
12036TIP3   OH257522   1.970   2.268  10.495  0.6687 -0.1956  0.3458
12036TIP3    H157523   1.913   2.345  10.495  0.0461 -0.6418  0.7736
12036TIP3    H257524   2.013   2.270  10.410  0.3717  0.4151  0.2052
12037TIP3   OH257525   1.263   3.670   5.127 -0.1534  0.0620 -0.2212
12037TIP3    H157526   1.213   3.646   5.205 -0.7813 -0.3777 -0.7449
12037TIP3    H257527   1.336   3.722   5.160 -1.3399  1.3479  0.5151
12038TIP3   OH257528   4.070   3.633  13.950 -0.0322  0.3423 -0.0519
12038TIP3    H157529   4.014   3.581  14.007  0.0646 -2.5444 -2.3359
12038TIP3    H257530   4.147   3.578  13.935  1.4750  2.4056 -0.4018
12039TIP3   OH257531   6.309   4.868   4.996 -0.2845 -0.0941  0.6108
12039TIP3    H157532   6.325   4.929   5.067  0.8222 -0.2681  0.5251
12039TIP3    H257533   6.340   4.783   5.029 -2.0337 -0.6870  0.8270
12040TIP3   OH257534   1.000   5.584  10.695 -0.4023  0.0289  0.0383
12040TIP3    H157535   0.983   5.516  10.630 -0.6916 -0.4065  0.5583
12040TIP3    H257536   1.095   5.593  10.696 -0.2626 -1.2294  0.7983
12041TIP3   OH257537   2.044   5.665  11.067  0.2163  0.3985 -0.5340
12041TIP3    H157538   2.068   5.758  11.061  0.1003  0.4009 -1.0872
12041TIP3    H257539   1.993   5.649  10.987 -1.1495  0.2585  0.3391
12042TIP3   OH257540   0.053   0.210  15.185 -0.0662  0.0421  0.5842
12042TIP3    H157541   0.085   0.285  15.235  0.6290 -1.2693  2.2215
12042TIP3    H257542   0.131   0.172  15.146 -0.1572 -0.8603  1.2619
12043TIP3   OH257543   1.126   4.862   1.477 -0.5369 -0.0390  0.1081
12043TIP3    H157544   1.204   4.848   1.530 -0.5883 -2.5954 -0.3371
12043TIP3    H257545   1.158   4.868   1.387 -0.7691 -0.0710  0.0215
12044TIP3   OH257546   0.822   3.097  16.688 -0.4800  0.0285  0.5594
12044TIP3    H157547   0.748   3.110  16.748 -1.7187  0.3402 -0.9818
12044TIP3    H257548   0.782   3.069  16.606  1.2891 -2.1960  0.3514
12045TIP3   OH257549   3.527   6.796  17.070 -0.4205 -0.1691  0.5305
12045TIP3    H157550   3.548   6.784  17.162 -0.5184 -0.3497  0.5292
12045TIP3    H257551   3.544   6.889  17.053  0.1339 -0.2576  0.5914
12046TIP3   OH257552   0.812   4.450  15.822  0.2518  0.4730  0.0702
12046TIP3    H157553   0.833   4.544  15.823  0.1480  0.5003 -0.2213
12046TIP3    H257554   0.769   4.434  15.906 -0.1335  0.7812 -0.0667
12047TIP3   OH257555   4.195   3.816   1.019  0.3068  0.1540  0.1485
12047TIP3    H157556   4.233   3.903   1.012 -1.0766  0.7532 -0.1323
12047TIP3    H257557   4.166   3.795   0.930 -0.1345 -0.2330  0.3786
12048TIP3   OH257558   5.822   2.023  15.366 -0.3340  0.1828  1.1245
12048TIP3    H157559   5.771   2.019  15.285  0.0518 -0.2082  0.8995
12048TIP3    H257560   5.883   2.095  15.352 -0.2967  0.1432  1.0850
12049TIP3   OH257561   1.681   2.777   6.163 -0.1603 -0.2362  0.6179
12049TIP3    H157562   1.601   2.810   6.122 -0.0418 -1.4134 -0.6057
12049TIP3    H257563   1.751   2.831   6.126 -0.0845 -1.1185 -0.6023
12050TIP3   OH257564   6.772   2.392  12.892  0.4074 -0.3491 -0.7578
12050TIP3    H157565   6.727   2.447  12.956 -1.7335 -0.6658 -1.8970
12050TIP3    H257566   6.715   2.315  12.883  0.9113 -0.5357 -2.6320
12051TIP3   OH257567   5.570   1.180   1.700  0.0616  0.1952  0.4974
12051TIP3    H157568   5.532   1.265   1.676 -0.1118  0.1918  0.7539
12051TIP3    H257569   5.638   1.201   1.763  1.8483  0.3825 -1.3909
12052TIP3   OH257570   0.545   1.141   4.226 -0.0743 -0.3341  0.2755
12052TIP3    H157571   0.634   1.107   4.231 -0.3085 -0.7410  2.2976
12052TIP3    H257572   0.508   1.098   4.149  0.8927 -1.6137  0.4851
12053TIP3   OH257573   2.802   2.509   1.870 -0.9176  0.4644  0.0738
12053TIP3    H157574   2.781   2.565   1.795 -1.9595  1.0860  0.7942
12053TIP3    H257575   2.735   2.442   1.869 -0.3145 -0.1456 -0.1422
12054TIP3   OH257576   0.184   4.987   2.820 -0.6511 -0.7639  0.3696
12054TIP3    H157577   0.127   4.935   2.764 -0.7598 -0.1498 -0.1047
12054TIP3    H257578   0.204   5.065   2.768  2.3112 -1.8712 -0.3404
12055TIP3   OH257579   4.047   5.000  16.660 -0.2085 -0.6319  0.0260
12055TIP3    H157580   4.015   4.942  16.592  3.0690 -0.8921 -1.5097
12055TIP3    H257581   4.105   4.945  16.713 -0.5009  0.2508  1.3145
12056TIP3   OH257582   3.718   1.554   0.324  0.0451 -0.3095 -0.1684
12056TIP3    H157583   3.743   1.465   0.351  1.2762 -0.0464 -0.3986
12056TIP3    H257584   3.780   1.611   0.368 -0.1099  0.3717 -0.8115
12057TIP3   OH257585   6.012   0.170  15.369 -0.3527 -0.0562 -0.5961
12057TIP3    H157586   6.068   0.244  15.344 -0.4684 -0.0608 -0.8714
12057TIP3    H257587   6.069   0.094  15.360 -0.3707 -0.0499 -0.7767
12058TIP3   OH257588   1.258   5.322   4.543 -0.4518  0.3014 -1.1064
12058TIP3    H157589   1.230   5.407   4.578 -0.5188  0.1254 -0.7276
12058TIP3    H257590   1.177   5.274   4.528 -0.3789 -0.0124 -0.5093
12059TIP3   OH257591   5.116   0.656  15.597 -1.0514  0.1209 -0.7016
12059TIP3    H157592   5.172   0.584  15.569 -0.6238  1.9493 -5.3417
12059TIP3    H257593   5.029   0.616  15.609 -0.0637 -1.7215  0.8638
12060TIP3   OH257594   3.203   2.624  11.271 -0.0925  0.9661 -0.1272
12060TIP3    H157595   3.233   2.560  11.206 -0.1280  1.1710 -0.3459
12060TIP3    H257596   3.157   2.572  11.336 -0.6327  0.8317 -0.6108
12061TIP3   OH257597   5.681   1.355  15.044 -0.0810 -0.7215 -0.1678
12061TIP3    H157598   5.595   1.345  15.003 -1.4339  0.0044  2.2755
12061TIP3    H257599   5.662   1.356  15.138  2.3369  1.6016  0.4088
12062TIP3   OH257600   3.249   5.037  12.400 -0.1150 -0.0939  0.2576
12062TIP3    H157601   3.293   5.001  12.323 -0.5817  0.4149 -0.2489
12062TIP3    H257602   3.157   5.041  12.376 -0.0971  1.3418  0.3282
12063TIP3   OH257603   0.366   0.829   6.275  0.2146  0.3476 -0.0714
12063TIP3    H157604   0.386   0.905   6.331 -0.1180 -0.0109  0.5536
12063TIP3    H257605   0.276   0.844   6.246 -0.3594 -0.4708  1.1921
12064TIP3   OH257606   1.530   0.302  15.953 -0.4277 -0.3316  0.1965
12064TIP3    H157607   1.611   0.255  15.933 -0.3942 -1.2319  2.1650
12064TIP3    H257608   1.513   0.355  15.875  1.6387 -0.6851 -0.5735
12065TIP3   OH257609   6.705   0.124   4.504 -0.2703  0.0744 -0.4672
12065TIP3    H157610   6.611   0.119   4.519 -0.3711  2.4809  0.0521
12065TIP3    H257611   6.730   0.211   4.534  1.9020  0.0173 -1.8532
12066TIP3   OH257612   3.390   2.410  14.530  0.7350 -0.6126 -0.2677
12066TIP3    H157613   3.390   2.360  14.449  3.2132 -0.3189 -0.5065
12066TIP3    H257614   3.421   2.497  14.505  1.3677 -0.4604  0.9457
12067TIP3   OH257615   3.696   0.959   5.565  0.4615  0.2109 -0.1039
12067TIP3    H157616   3.782   0.976   5.527  1.5636 -0.1930  2.0567
12067TIP3    H257617   3.644   1.036   5.541  2.2505  1.7730  0.7655
12068TIP3   OH257618   2.691   0.492  13.107 -0.1488 -0.0478  0.4235
12068TIP3    H157619   2.660   0.542  13.031  1.4626  2.2095  1.1306
12068TIP3    H257620   2.755   0.431  13.070  0.5536  0.9646 -0.0944
12069TIP3   OH257621   1.174   6.378  10.566  0.2861 -0.3652  0.7451
12069TIP3    H157622   1.261   6.394  10.603  1.0492  0.2188 -1.2069
12069TIP3    H257623   1.134   6.316  10.626  2.6779 -1.9488  0.8200
12070TIP3   OH257624   1.679   4.030   3.146  0.5864  0.7413 -0.3941
12070TIP3    H157625   1.721   3.952   3.110 -0.5845 -0.1824  0.1835
12070TIP3    H257626   1.601   4.042   3.091 -0.1406  0.4875  0.5505
12071TIP3   OH257627   2.012   0.783   1.658  0.4597 -0.1704  0.1384
12071TIP3    H157628   1.966   0.831   1.589 -0.3295 -0.7501  0.2485
12071TIP3    H257629   2.015   0.845   1.731  0.8877  0.2791 -0.2491
12072TIP3   OH257630   2.089   6.381  15.595  0.0912 -0.5179  0.3020
12072TIP3    H157631   2.021   6.363  15.530 -0.6957 -0.7991  1.1871
12072TIP3    H257632   2.109   6.295  15.633 -0.5242 -0.1460  1.4718
12073TIP3   OH257633   5.502   3.279   5.827  0.7842  0.2214  0.3201
12073TIP3    H157634   5.570   3.331   5.870 -1.8950  2.8784  1.7086
12073TIP3    H257635   5.486   3.326   5.745 -0.5697  0.7187  0.8464
12074TIP3   OH257636   0.844   0.210   4.748  0.5741 -0.9050 -0.3378
12074TIP3    H157637   0.926   0.259   4.756  0.2366 -0.2936 -0.5560
12074TIP3    H257638   0.852   0.140   4.813 -0.0340  1.0331  1.9706
12075TIP3   OH257639   0.658   1.971  10.519 -0.0344  0.0206  0.5389
12075TIP3    H157640   0.605   2.037  10.475  1.0453  0.1380 -0.6383
12075TIP3    H257641   0.624   1.887  10.487 -0.0429  0.0714  0.4144
12076TIP3   OH257642   4.168   5.305   3.474 -0.3250  0.0191 -0.2063
12076TIP3    H157643   4.198   5.219   3.445  0.6689  0.3658 -0.2596
12076TIP3    H257644   4.192   5.308   3.567  0.7359  0.6730 -0.4798
12077TIP3   OH257645   6.792   2.724   3.178  0.0788  0.0768  0.1634
12077TIP3    H157646   6.784   2.800   3.235  0.0715  0.4263 -0.3028
12077TIP3    H257647   6.773   2.757   3.090  0.2389 -0.4248 -0.0650
12078TIP3   OH257648   4.011   2.842   4.226 -0.0649 -0.4323 -0.1937
12078TIP3    H157649   3.941   2.906   4.240  0.7784  0.4943 -0.0517
12078TIP3    H257650   4.090   2.895   4.218  0.4475 -1.3687 -1.6672
12079TIP3   OH257651   5.248   2.008   1.711 -0.1780 -0.6518 -0.0740
12079TIP3    H157652   5.184   2.067   1.751 -0.2459 -0.1685 -0.8807
12079TIP3    H257653   5.333   2.042   1.740 -0.1683  0.4694 -1.3327
12080TIP3   OH257654   4.811   2.660   3.150 -0.4369  0.3417  0.0371
12080TIP3    H157655   4.786   2.570   3.130  0.9926 -0.5631  2.0094
12080TIP3    H257656   4.889   2.675   3.096 -0.3368  0.1852  0.1361
12081TIP3   OH257657   5.176   5.496  12.173  0.5000 -0.4014 -0.6853
12081TIP3    H157658   5.252   5.523  12.224 -0.2562 -0.9807  0.8015
12081TIP3    H257659   5.179   5.400  12.173 -0.0772 -0.4258 -0.8480
12082TIP3   OH257660   3.825   3.752   5.174  0.0948 -0.4282 -0.2955
12082TIP3    H157661   3.760   3.691   5.139 -1.9787  1.1307  0.6071
12082TIP3    H257662   3.787   3.839   5.159  1.7122  0.5131  0.7703
12083TIP3   OH257663   3.616   5.964  12.656  0.5115 -0.0291 -0.3771
12083TIP3    H157664   3.548   6.000  12.598  1.8194  0.2010 -1.8413
12083TIP3    H257665   3.689   5.946  12.598  2.4559  1.5963  1.3977
12084TIP3   OH257666   2.028   1.125  13.900 -1.0747  0.5265 -0.1752
12084TIP3    H157667   2.039   1.176  13.819 -1.9216  1.5269  0.3146
12084TIP3    H257668   1.953   1.165  13.943 -1.3618 -0.7497  0.5526
12085TIP3   OH257669   5.299   2.991   2.320  0.1748  0.0338  0.0994
12085TIP3    H157670   5.331   2.902   2.338 -0.9683 -0.5066 -0.4324
12085TIP3    H257671   5.290   2.994   2.225 -2.1586 -0.1672  0.2581
12086TIP3   OH257672   1.046   1.371  15.170 -0.0016  0.6849 -0.5798
12086TIP3    H157673   0.971   1.327  15.132  1.0632 -0.7249 -1.1576
12086TIP3    H257674   1.038   1.462  15.143 -1.4496  0.5415 -0.6766
12087TIP3   OH257675   2.555   0.959   4.717 -0.3502  0.1634 -0.2404
12087TIP3    H157676   2.521   1.023   4.655 -1.1325 -0.1305 -0.1177
12087TIP3    H257677   2.486   0.949   4.783 -0.0052 -0.3902  0.0467
12088TIP3   OH257678   1.825   3.309  16.089  0.1689 -0.1269  0.2380
12088TIP3    H157679   1.853   3.400  16.079 -2.7627  0.7104 -1.8372
12088TIP3    H257680   1.873   3.261  16.022 -0.6434  0.5792 -0.8825
12089TIP3   OH257681   4.382   5.934  12.875 -0.0273  0.4633 -0.0610
12089TIP3    H157682   4.336   6.003  12.828  1.7875  1.3725 -0.5600
12089TIP3    H257683   4.423   5.978  12.950  2.2291  0.2514 -1.0918
12090TIP3   OH257684   4.174   3.552  11.469 -0.5948 -0.1548 -0.0680
12090TIP3    H157685   4.112   3.547  11.542  1.2360  1.7458  1.7676
12090TIP3    H257686   4.139   3.492  11.403 -3.6824 -0.0746  1.3361
12091TIP3   OH257687   0.922   1.395  12.896 -0.5747 -0.0937  0.0123
12091TIP3    H157688   0.872   1.451  12.954 -0.1867  0.1966  0.0672
12091TIP3    H257689   0.919   1.440  12.811 -3.3101 -1.7457 -0.9046
12092TIP3   OH257690   2.933   3.980   0.269 -0.4493 -0.2594  0.3315
12092TIP3    H157691   3.022   3.968   0.238 -0.8449 -1.6219 -0.4136
12092TIP3    H257692   2.939   3.973   0.364  0.3472  0.5771  0.3497
12093TIP3   OH257693   5.071   4.253   4.695 -0.2346  0.2383  0.7519
12093TIP3    H157694   5.124   4.232   4.772 -1.4470 -2.6681  0.9059
12093TIP3    H257695   4.982   4.226   4.719 -0.6441 -0.7617 -1.6500
12094TIP3   OH257696   6.280   0.379   0.300  0.2046 -0.7753 -0.2211
12094TIP3    H157697   6.366   0.384   0.342 -0.8816 -1.3935  2.3125
12094TIP3    H257698   6.295   0.333   0.218  2.5333  0.7440 -0.7373
12095TIP3   OH257699   1.357   3.236   2.802  0.3800  0.2251  0.4360
12095TIP3    H157700   1.417   3.183   2.855  1.3481  2.0125  1.2231
12095TIP3    H257701   1.337   3.312   2.857 -1.5104  0.3792 -0.3793
12096TIP3   OH257702   4.509   4.201   4.861  0.0478 -0.2749  0.6511
12096TIP3    H157703   4.453   4.243   4.796 -0.8829 -0.9239  1.0070
12096TIP3    H257704   4.472   4.113   4.870  1.0384 -0.6627  1.0157
12097TIP3   OH257705   4.498   1.677   0.628  0.4025 -0.0403  0.3442
12097TIP3    H157706   4.511   1.584   0.608 -2.7371 -0.3794 -0.6949
12097TIP3    H257707   4.495   1.680   0.723 -0.0139 -1.1363  0.3907
12098TIP3   OH257708   1.966   0.732  13.978  0.1669  0.2662  0.1991
12098TIP3    H157709   1.975   0.728  14.073 -0.7651  0.3742  0.3015
12098TIP3    H257710   2.056   0.734  13.945  0.4935  0.7773  1.1016
12099TIP3   OH257711   0.249   5.444   4.718 -0.4166 -0.1059 -0.3037
12099TIP3    H157712   0.161   5.417   4.742  0.0440 -0.8159  0.6542
12099TIP3    H257713   0.305   5.371   4.745  0.7882  1.4379  1.6265
12100TIP3   OH257714   3.952   4.193   3.448 -0.1571  0.3755 -0.3428
12100TIP3    H157715   3.878   4.183   3.387  0.5407  0.9185 -1.2911
12100TIP3    H257716   4.007   4.260   3.409  1.1531 -0.4316  0.0546
12101TIP3   OH257717   5.073   5.497  16.261 -0.1116  0.8154  0.0550
12101TIP3    H157718   5.139   5.472  16.325 -1.9819 -0.7318  1.5225
12101TIP3    H257719   4.993   5.453  16.290 -0.9765 -0.4850 -3.6624
12102TIP3   OH257720   3.069   1.697   1.024  0.3864  0.1641  0.2696
12102TIP3    H157721   3.140   1.760   1.039  0.9041 -0.1726 -0.6668
12102TIP3    H257722   3.115   1.614   1.008 -0.1273  0.2440 -1.8853
12103TIP3   OH257723   1.501   5.824   1.545 -0.1730 -0.3673 -0.2007
12103TIP3    H157724   1.508   5.735   1.509  0.7822 -1.3510  2.1582
12103TIP3    H257725   1.591   5.854   1.552 -0.3843  0.1249  0.5079
12104TIP3   OH257726   1.397   5.058   2.548  0.3354  0.1524 -0.1587
12104TIP3    H157727   1.302   5.060   2.534  0.2117 -0.4823  0.5107
12104TIP3    H257728   1.410   4.986   2.610  1.4508 -1.0691 -1.7572
12105TIP3   OH257729   6.795   3.443   2.965  0.0478 -0.9595 -0.1539
12105TIP3    H157730   6.757   3.506   2.904  1.1395  0.4528  0.5684
12105TIP3    H257731   6.839   3.379   2.910 -1.2171 -1.2243 -0.9078
12106TIP3   OH257732   5.915   2.610  12.873 -0.7368  0.2653  0.5723
12106TIP3    H157733   5.891   2.569  12.790  0.0476  1.0325 -0.0516
12106TIP3    H257734   5.840   2.594  12.930 -1.0275 -0.8097 -0.0837
12107TIP3   OH257735   1.504   3.756  11.996 -0.2324 -0.4520 -0.5657
12107TIP3    H157736   1.565   3.827  12.017  0.7401 -1.1255 -1.0140
12107TIP3    H257737   1.560   3.687  11.960 -1.2880 -1.0515 -1.0971
12108TIP3   OH257738   1.032   0.092   1.296 -0.3394  0.1953  0.1803
12108TIP3    H157739   1.042   0.177   1.253  1.1648 -0.6878 -1.3373
12108TIP3    H257740   0.938   0.080   1.304 -0.6660  0.8351 -2.0899
12109TIP3   OH257741   1.296   1.210  15.125  0.2075 -0.0925  0.5245
12109TIP3    H157742   1.271   1.302  15.115  1.6747  0.3313  0.5461
12109TIP3    H257743   1.331   1.185  15.040 -2.5580 -1.4552 -0.3247
12110TIP3   OH257744   5.570   3.631  15.483 -0.0650  0.0684  0.4025
12110TIP3    H157745   5.530   3.622  15.569 -3.0264  1.9153 -0.5919
12110TIP3    H257746   5.609   3.719  15.484 -0.1286  0.1055 -0.1128
12111TIP3   OH257747   3.897   6.313   0.688  0.0065  0.0642 -0.3363
12111TIP3    H157748   3.830   6.368   0.727  1.6720  1.7339  0.3118
12111TIP3    H257749   3.968   6.311   0.753  1.2269 -0.3362 -1.6230
12112TIP3   OH257750   6.364   3.982   0.670 -0.3765  0.1319  0.2185
12112TIP3    H157751   6.420   4.056   0.647 -0.4351 -0.3620 -1.6406
12112TIP3    H257752   6.406   3.942   0.746  0.9906  0.6236 -0.2561
12113TIP3   OH257753   6.408   2.619   5.133  0.0902 -0.5717  0.1457
12113TIP3    H157754   6.386   2.607   5.041 -0.3277 -1.6092  0.3691
12113TIP3    H257755   6.418   2.531   5.168  2.2195 -0.1777  0.6542
12114TIP3   OH257756   2.582   5.868   3.322  0.7400  0.2725  0.0568
12114TIP3    H157757   2.672   5.893   3.339  0.2734  1.8541  0.3920
12114TIP3    H257758   2.558   5.813   3.397  1.6527 -0.8446 -0.4482
12115TIP3   OH257759   2.117   1.823   4.704 -0.1251  0.3505  0.1908
12115TIP3    H157760   2.024   1.843   4.718  0.4997  3.5637  0.4803
12115TIP3    H257761   2.123   1.804   4.610 -1.0930 -0.2525  0.2308
12116TIP3   OH257762   0.070   0.239  11.877  0.4546  0.4167 -0.2300
12116TIP3    H157763   0.052   0.329  11.904 -0.1356  0.1254  0.3956
12116TIP3    H257764   0.156   0.219  11.914  0.6923  0.7962 -0.5714
12117TIP3   OH257765   5.232   2.016   4.409  0.4315 -0.2225 -0.6810
12117TIP3    H157766   5.149   1.995   4.364 -0.0383 -1.0666  0.5292
12117TIP3    H257767   5.268   1.931   4.434  0.9141  0.2103  0.1269
12118TIP3   OH257768   1.470   0.207  11.370 -0.1482 -0.0634  0.0604
12118TIP3    H157769   1.475   0.263  11.447 -1.0287  0.6067 -0.3410
12118TIP3    H257770   1.531   0.246  11.308  1.5387 -1.3430  0.8215
12119TIP3   OH257771   4.297   3.279  14.981 -0.2048 -0.2309 -0.0790
12119TIP3    H157772   4.390   3.266  15.001  0.2542  1.1061 -1.1722
12119TIP3    H257773   4.252   3.265  15.064  0.8151 -2.2750  0.1835
12120TIP3   OH257774   4.433   1.970   0.876 -0.6708 -0.0259 -0.0447
12120TIP3    H157775   4.400   1.962   0.787  1.7671  0.1002 -1.0466
12120TIP3    H257776   4.439   1.880   0.908  0.9439 -0.3161 -1.0526
12121TIP3   OH257777   4.113   0.461  16.513  0.0309  0.3017 -0.6331
12121TIP3    H157778   4.100   0.503  16.428 -0.8845 -0.5480 -0.9478
12121TIP3    H257779   4.170   0.386  16.495  0.9546  0.8914 -0.2363
12122TIP3   OH257780   3.021   4.150   1.276 -0.6187 -0.8570  0.0272
12122TIP3    H157781   2.931   4.162   1.247  0.0405 -0.4964 -2.0707
12122TIP3    H257782   3.038   4.225   1.332 -0.2156  2.0147 -3.5127
12123TIP3   OH257783   2.288   0.583   3.500 -0.0437  0.6741 -0.2887
12123TIP3    H157784   2.378   0.614   3.509 -0.4393  1.3485  2.6534
12123TIP3    H257785   2.283   0.507   3.559 -0.8265 -0.8865 -2.2592
12124TIP3   OH257786   2.350   5.764  10.534  0.0976  0.4968  0.3668
12124TIP3    H157787   2.444   5.751  10.539  0.3842  0.9579 -2.2979
12124TIP3    H257788   2.339   5.852  10.500 -1.2436  0.0791 -0.3896
12125TIP3   OH257789   1.677   0.352  11.213  0.2277 -0.2648 -0.6015
12125TIP3    H157790   1.755   0.347  11.157  1.1079  0.0043  0.5396
12125TIP3    H257791   1.662   0.446  11.223  1.2624 -0.2343  1.1172
12126TIP3   OH257792   4.033   4.665   5.348 -0.0401  0.3547 -0.0730
12126TIP3    H157793   4.043   4.602   5.420 -0.9007  0.9803  0.6094
12126TIP3    H257794   3.970   4.625   5.289  0.0816  0.1888 -0.0918
12127TIP3   OH257795   3.049   3.141   1.854 -0.1800 -0.0119  0.4940
12127TIP3    H157796   3.072   3.215   1.797  0.8068 -0.6891 -0.0197
12127TIP3    H257797   3.088   3.164   1.938  0.0267  0.1072  0.3686
12128TIP3   OH257798   5.288   1.795   0.456  0.5183 -0.0464  0.2155
12128TIP3    H157799   5.203   1.782   0.497  0.2208  0.6079 -0.1842
12128TIP3    H257800   5.268   1.826   0.368  1.1697  0.4424  0.2337
12129TIP3   OH257801   2.029   4.751   5.971 -0.1915  0.1880  0.4550
12129TIP3    H157802   2.089   4.769   6.043  1.7012  1.8410 -1.3731
12129TIP3    H257803   1.995   4.837   5.946 -1.8803 -0.5096  0.2081
12130TIP3   OH257804   1.854   3.607  12.203 -0.0678 -0.2021 -0.0775
12130TIP3    H157805   1.846   3.567  12.290  0.7313  0.1170  0.1503
12130TIP3    H257806   1.872   3.533  12.144 -1.4566 -0.5269 -0.1154
12131TIP3   OH257807   2.666   0.225  16.422  0.1101  0.0873 -0.0958
12131TIP3    H157808   2.614   0.199  16.346 -0.1658 -0.6611  0.3339
12131TIP3    H257809   2.644   0.317  16.436  0.1106  0.2107 -0.8778
12132TIP3   OH257810   4.079   5.421  16.143  0.3790 -0.2528  0.4987
12132TIP3    H157811   4.132   5.484  16.192  0.3979  0.3245 -0.2453
12132TIP3    H257812   4.039   5.472  16.073  1.3279 -1.2718 -0.8557
12133TIP3   OH257813   4.840   4.169  11.099  0.1649  0.0531 -0.2347
12133TIP3    H157814   4.822   4.077  11.117  0.8411  0.3098  2.2099
12133TIP3    H257815   4.853   4.173  11.004 -0.0114 -2.3325 -0.4277
12134TIP3   OH257816   5.881   1.523  14.497 -0.7083  0.2004 -0.7064
12134TIP3    H157817   5.822   1.517  14.422 -1.8527 -1.9811  0.2667
12134TIP3    H257818   5.929   1.440  14.497 -0.3594  0.3693  0.6609
12135TIP3   OH257819   4.650   0.655   2.633 -0.1080  0.3783 -0.5111
12135TIP3    H157820   4.610   0.741   2.620 -0.0470  0.5964  0.6844
12135TIP3    H257821   4.629   0.632   2.723 -1.5331 -1.6127 -1.2817
12136TIP3   OH257822   0.200   1.219   6.270 -0.2998 -0.0185  0.2362
12136TIP3    H157823   0.193   1.226   6.365  1.2873  0.8969  0.3292
12136TIP3    H257824   0.279   1.268   6.248 -0.9318  0.2578 -1.6265
12137TIP3   OH257825   1.654   5.070  16.629 -0.6643 -0.5392  0.4332
12137TIP3    H157826   1.731   5.127  16.621  0.4649 -2.0911 -0.4280
12137TIP3    H257827   1.680   4.989  16.585 -1.2345 -2.6831  3.7184
12138TIP3   OH257828   2.895   5.699  12.540  0.7162 -0.1983  0.0515
12138TIP3    H157829   2.859   5.682  12.453 -0.5373 -1.7782  0.8259
12138TIP3    H257830   2.818   5.718  12.594  0.9211 -3.3008  1.6768
12139TIP3   OH257831   0.507   6.585   1.792 -0.0827  0.8852  0.7640
12139TIP3    H157832   0.588   6.612   1.748 -0.2790  0.3625  0.0576
12139TIP3    H257833   0.497   6.647   1.864  2.2259 -0.4166  2.3539
12140TIP3   OH257834   6.725   2.489  16.155  0.0830  0.0263 -0.4607
12140TIP3    H157835   6.805   2.523  16.196  0.1787 -0.4700 -0.2181
12140TIP3    H257836   6.758   2.425  16.091 -0.1447 -1.3804  0.7537
12141TIP3   OH257837   1.835   4.735   2.666 -0.7108  0.1648  0.6730
12141TIP3    H157838   1.860   4.675   2.595  0.6852  0.1379  1.1639
12141TIP3    H257839   1.902   4.803   2.663  0.2945 -0.6387  2.9341
12142TIP3   OH257840   0.893   5.855   3.514 -0.2905 -0.1653  0.2781
12142TIP3    H157841   0.851   5.918   3.455 -0.4597 -0.0376  0.5337
12142TIP3    H257842   0.927   5.787   3.456  1.9871  1.3184 -0.2563
12143TIP3   OH257843   5.372   3.384  16.310 -0.1456 -0.1093  0.0564
12143TIP3    H157844   5.430   3.449  16.350 -2.6971  1.9661  0.6775
12143TIP3    H257845   5.365   3.314  16.376  0.7809  0.1079  0.4047
12144TIP3   OH257846   6.037   2.144   3.936  0.2203  0.1293  0.2122
12144TIP3    H157847   6.008   2.170   3.849 -0.6340 -0.5510  0.2865
12144TIP3    H257848   6.027   2.222   3.989  0.6817  0.5294 -0.2710
12145TIP3   OH257849   0.671   1.853  14.079 -0.3271  0.0320 -0.2164
12145TIP3    H157850   0.761   1.887  14.068 -0.3971  0.5800  0.7343
12145TIP3    H257851   0.670   1.771  14.030 -0.2290  1.5176 -2.9058
12146TIP3   OH257852   6.392   5.307  12.978  1.0709 -0.2495  0.1887
12146TIP3    H157853   6.436   5.256  12.910 -0.8713 -1.4598 -0.2607
12146TIP3    H257854   6.340   5.371  12.929  0.7427 -0.2080  0.5866
12147TIP3   OH257855   6.104   3.240   0.141  0.0532 -0.4297  0.1598
12147TIP3    H157856   6.095   3.149   0.170  0.6415 -0.7364 -0.5857
12147TIP3    H257857   6.194   3.264   0.164 -0.1008 -0.0357  0.3572
12148TIP3   OH257858   5.011   0.445  14.896  0.3866  0.0507 -0.0627
12148TIP3    H157859   5.033   0.370  14.952  2.1697  0.8088  0.3170
12148TIP3    H257860   4.925   0.473  14.928  1.9968  1.5051  3.5980
12149TIP3   OH257861   0.461   0.593   0.595  0.4441 -0.0069 -0.0257
12149TIP3    H157862   0.414   0.596   0.678 -1.6665  1.6484 -1.1716
12149TIP3    H257863   0.397   0.558   0.532  1.5266  0.0424 -1.1970
12150TIP3   OH257864   5.785   3.337  16.693 -0.8033 -0.0259  0.5269
12150TIP3    H157865   5.772   3.351  16.599 -0.2099 -1.5135  0.2012
12150TIP3    H257866   5.698   3.343  16.731 -1.1952 -0.4716 -0.2781
12151TIP3   OH257867   5.571   6.537  16.521  0.4279  0.0382  0.1354
12151TIP3    H157868   5.664   6.536  16.496  0.7611 -0.8290  1.2497
12151TIP3    H257869   5.538   6.620  16.489  1.8361  0.7777  0.5021
12152TIP3   OH257870   3.524   2.428  12.759 -0.0645  0.1157 -0.4472
12152TIP3    H157871   3.561   2.383  12.683 -0.9917  0.4673 -1.1264
12152TIP3    H257872   3.595   2.431  12.823  0.0239 -2.3267 -0.3608
12153TIP3   OH257873   5.921   0.566   1.280  0.0487  0.9862 -0.8595
12153TIP3    H157874   5.909   0.484   1.231  0.3933 -0.1032  0.7884
12153TIP3    H257875   6.008   0.596   1.254  0.1732  0.4995 -1.0277
12154TIP3   OH257876   4.367   5.117   0.227  0.5374 -0.3354 -0.0396
12154TIP3    H157877   4.439   5.084   0.281  0.6311 -0.1914 -0.0770
12154TIP3    H257878   4.395   5.204   0.200  0.4759 -0.3959 -0.2979
12155TIP3   OH257879   4.745   2.423   3.637 -0.5736 -0.0339 -0.0243
12155TIP3    H157880   4.760   2.332   3.611 -2.5721 -0.1367 -1.0360
12155TIP3    H257881   4.795   2.434   3.718  0.3018 -1.7986 -0.2821
12156TIP3   OH257882   0.488   5.023  12.700 -0.6513  0.0333  0.1224
12156TIP3    H157883   0.574   4.983  12.685  1.0319  3.3143 -0.0587
12156TIP3    H257884   0.451   5.033  12.613 -0.6994 -0.3693  0.0955
12157TIP3   OH257885   4.869   2.887  13.589  0.5596 -0.1830 -0.0535
12157TIP3    H157886   4.923   2.906  13.513  1.3320  3.5360  1.2017
12157TIP3    H257887   4.927   2.899  13.664 -0.5973 -2.0539  1.2339
12158TIP3   OH257888   4.837   0.779   0.213  0.1369  0.0479 -0.6048
12158TIP3    H157889   4.889   0.768   0.133 -1.2108 -1.8041 -1.3095
12158TIP3    H257890   4.757   0.822   0.184 -0.0536  0.0227 -0.1267
12159TIP3   OH257891   3.946   2.731  12.871 -0.3698  0.4371 -0.3174
12159TIP3    H157892   3.887   2.786  12.924  2.0416  1.8139  1.1258
12159TIP3    H257893   4.033   2.746  12.909  0.7498 -2.7122 -1.3187
12160TIP3   OH257894   3.350   6.024   3.500  0.3350  1.1340 -0.2870
12160TIP3    H157895   3.261   6.003   3.528  0.1640 -0.6765 -1.9761
12160TIP3    H257896   3.381   6.088   3.564 -1.7607  0.9599  0.9888
12161TIP3   OH257897   6.683   2.849   4.026 -0.2383 -0.3141 -0.3738
12161TIP3    H157898   6.771   2.827   3.995 -0.5368  0.1134 -1.5678
12161TIP3    H257899   6.664   2.934   3.987 -0.6147  0.3064  1.0819
12162TIP3   OH257900   2.687   2.092   4.696  0.4873  0.4687  0.2969
12162TIP3    H157901   2.687   2.096   4.600 -0.8583  0.8310  0.2966
12162TIP3    H257902   2.738   2.014   4.716  0.0888 -0.0870 -0.7476
12163TIP3   OH257903   5.919   2.677   0.433  0.2877 -0.1215 -0.1269
12163TIP3    H157904   5.999   2.728   0.423  0.1388 -0.0623 -1.0657
12163TIP3    H257905   5.949   2.587   0.442  0.5394  0.0797  1.2941
12164TIP3   OH257906   3.211   5.605  11.009  0.4025 -0.4806 -0.3017
12164TIP3    H157907   3.278   5.589  10.943  1.5555 -0.2867  0.7653
12164TIP3    H257908   3.152   5.669  10.970  1.9115  0.7823 -0.6087
12165TIP3   OH257909   4.315   4.476   3.169  0.0577 -0.3273  0.0834
12165TIP3    H157910   4.261   4.507   3.096 -0.6752 -0.6902  0.4586
12165TIP3    H257911   4.263   4.496   3.247 -0.9508 -3.3917  0.3119
12166TIP3   OH257912   3.977   2.908  12.632 -0.2636 -0.1001  0.6186
12166TIP3    H157913   3.892   2.905  12.588  0.6567 -1.2734 -1.2108
12166TIP3    H257914   3.966   2.852  12.708 -1.0125 -0.5823  0.1687
12167TIP3   OH257915   6.256   4.732   3.646 -0.2783  0.4592  0.1760
12167TIP3    H157916   6.213   4.812   3.614 -0.2162  0.4144 -0.0210
12167TIP3    H257917   6.331   4.764   3.696 -0.9144  0.5580  1.0891
12168TIP3   OH257918   2.968   2.035   1.688  0.3207 -0.2271 -0.0672
12168TIP3    H157919   3.038   2.013   1.627  0.5894  0.8941 -0.1781
12168TIP3    H257920   2.902   1.967   1.675 -0.8891  1.3822 -3.5747
12169TIP3   OH257921   3.324   4.835   0.030 -0.0106  0.0105  0.1521
12169TIP3    H157922   3.391   4.768   0.042  0.4635  0.4539 -0.0146
12169TIP3    H257923   3.266   4.799  -0.037  0.8781  0.2458 -0.7632
12170TIP3   OH257924   2.618   5.642   4.841 -0.7512  0.7384 -0.5650
12170TIP3    H157925   2.700   5.594   4.852 -0.7084  1.0880  0.7308
12170TIP3    H257926   2.567   5.588   4.780  0.2460  0.2910 -1.0321
12171TIP3   OH257927   6.229   4.605  11.599  0.7665 -0.1834 -0.3789
12171TIP3    H157928   6.177   4.577  11.674  0.0902 -1.8457 -1.4084
12171TIP3    H257929   6.313   4.632  11.636  0.8816 -2.1181  0.8964
12172TIP3   OH257930   0.871   3.101   1.129  0.4393 -0.4373 -0.1360
12172TIP3    H157931   0.833   3.120   1.044  0.8272 -2.0301 -0.7060
12172TIP3    H257932   0.887   3.007   1.128 -4.9176 -1.8968  3.8229
12173TIP3   OH257933   5.225   2.698  16.911  0.4179  0.1022 -0.6255
12173TIP3    H157934   5.204   2.658  16.996 -2.2744  1.7363 -0.4196
12173TIP3    H257935   5.290   2.766  16.932  2.5624 -1.8508 -0.5220
12174TIP3   OH257936   3.803   0.331   1.018  0.5095 -0.1820  0.0687
12174TIP3    H157937   3.764   0.348   0.932  0.5234  0.3677  0.1672
12174TIP3    H257938   3.877   0.391   1.024 -0.7353  1.3100  1.3073
12175TIP3   OH257939   3.950   3.385   2.269  0.1958 -0.1907 -0.1934
12175TIP3    H157940   3.930   3.312   2.211  0.1276 -0.9722  0.7956
12175TIP3    H257941   4.037   3.415   2.241 -1.7467  2.8162 -4.0864
12176TIP3   OH257942   2.425   0.472  11.168 -0.2362  0.3303  0.5703
12176TIP3    H157943   2.381   0.449  11.250  0.3803 -1.2528  0.4960
12176TIP3    H257944   2.503   0.519  11.194 -1.3259  2.1272  0.7499
12177TIP3   OH257945   2.201   0.753   4.729 -0.1282 -0.0800  0.0292
12177TIP3    H157946   2.196   0.660   4.753 -1.2550 -0.2768 -0.8943
12177TIP3    H257947   2.110   0.782   4.725  0.1136  0.5649 -1.5621
12178TIP3   OH257948   6.064   0.954   5.512  0.1864 -0.0654  0.5617
12178TIP3    H157949   6.075   0.896   5.436 -0.5485 -0.4533  0.7390
12178TIP3    H257950   6.146   0.947   5.560  0.9541  0.7501 -0.5741
12179TIP3   OH257951   0.816   3.044   0.330  0.1043 -0.1778 -0.0216
12179TIP3    H157952   0.865   3.089   0.261 -1.3114  2.2275  0.3853
12179TIP3    H257953   0.879   3.032   0.400  1.0926 -0.9250 -1.0046
12180TIP3   OH257954   0.893   5.426   5.203 -0.3083  0.3464  0.1527
12180TIP3    H157955   0.880   5.344   5.251 -0.4019  0.5839  0.5330
12180TIP3    H257956   0.979   5.416   5.161 -1.0010 -0.6044 -1.1197
12181TIP3   OH257957   0.927   1.030  12.301  0.1862  0.1051  0.3577
12181TIP3    H157958   0.952   1.076  12.220 -0.4156 -1.0390 -0.5129
12181TIP3    H257959   0.949   0.938  12.284 -0.5197 -0.2440  1.2531
12182TIP3   OH257960   2.175   1.382  13.514  1.0776  0.2857  0.4985
12182TIP3    H157961   2.250   1.327  13.535  2.0553  1.1537 -0.5463
12182TIP3    H257962   2.130   1.336  13.443  0.6051 -0.2354  1.1266
12183TIP3   OH257963   1.645   1.816   3.783  0.0214  0.2029 -0.4164
12183TIP3    H157964   1.663   1.866   3.863 -1.7701 -2.9834  2.2239
12183TIP3    H257965   1.698   1.737   3.793 -1.4961 -0.9983 -1.5135
12184TIP3   OH257966   5.120   1.615  13.481 -0.0083  0.0755  0.4087
12184TIP3    H157967   5.053   1.589  13.545  0.1250 -2.0141 -0.2206
12184TIP3    H257968   5.197   1.563  13.504  1.3151  2.0792  0.8113
12185TIP3   OH257969   0.789   5.079   4.134  0.5725 -0.7423  0.2427
12185TIP3    H157970   0.854   5.028   4.085  1.3487 -0.8555  1.3503
12185TIP3    H257971   0.822   5.080   4.223 -0.4131  0.1172  0.6181
12186TIP3   OH257972   4.061   0.359   0.011 -0.2488 -0.5682 -0.2187
12186TIP3    H157973   4.002   0.430   0.036 -0.3180 -0.6726 -0.0893
12186TIP3    H257974   4.098   0.388  -0.073  0.8110  0.3005  0.5078
12187TIP3   OH257975   4.608   3.072  12.547  0.1931 -0.1203 -0.0234
12187TIP3    H157976   4.512   3.077  12.547  0.2299  2.9140  0.4975
12187TIP3    H257977   4.630   3.024  12.626 -0.9520  1.9758  1.6767
12188TIP3   OH257978   0.518   0.385  13.730  0.3325 -0.4525 -0.0463
12188TIP3    H157979   0.532   0.368  13.823  3.3104 -2.3056 -0.6972
12188TIP3    H257980   0.562   0.469  13.714  1.2541 -0.9192 -0.0362
12189TIP3   OH257981   4.026   3.587   2.873 -0.0312 -0.2405  0.0511
12189TIP3    H157982   4.109   3.616   2.834  0.4195 -1.6165 -0.0733
12189TIP3    H257983   3.959   3.628   2.819  0.5843 -0.2316 -0.7342
12190TIP3   OH257984   3.284   3.151   0.434  0.5367  0.1099  0.7013
12190TIP3    H157985   3.329   3.093   0.372 -0.6729 -0.7226  0.5647
12190TIP3    H257986   3.291   3.238   0.395  1.0020 -0.1850  0.1064
12191TIP3   OH257987   3.617   6.530  12.106  1.2826  0.1136 -0.0273
12191TIP3    H157988   3.651   6.593  12.169  0.1616 -0.3237  1.0719
12191TIP3    H257989   3.618   6.576  12.023  2.8243  0.7019  0.2795
12192TIP3   OH257990   4.073   0.879   3.630  0.3936 -0.3946 -0.0611
12192TIP3    H157991   4.036   0.923   3.553  0.8970 -0.0461 -0.1049
12192TIP3    H257992   4.167   0.896   3.625  0.4197 -0.2548  0.7020
12193TIP3   OH257993   1.509   1.430   1.277 -0.4359  0.0677  0.0091
12193TIP3    H157994   1.469   1.379   1.347 -0.0601 -0.9637 -0.4973
12193TIP3    H257995   1.462   1.403   1.198  1.2861 -1.2655 -0.6134
12194TIP3   OH257996   2.575   2.378  16.432 -0.0594 -0.1184 -0.0812
12194TIP3    H157997   2.492   2.350  16.471 -0.2006 -0.7934 -0.8396
12194TIP3    H257998   2.598   2.459  16.478 -0.5798 -0.5202  0.8891
12195TIP3   OH257999   1.755   6.267  16.795 -0.1899 -0.5484  0.3358
12195TIP3    H158000   1.790   6.333  16.855 -0.1106 -0.5056  0.2424
12195TIP3    H258001   1.733   6.315  16.716  0.6035 -0.7656 -0.0229
12196TIP3   OH258002   0.978   0.696   6.357 -0.2248 -0.0526  0.1510
12196TIP3    H158003   0.982   0.769   6.419 -1.3560 -0.9754  1.3588
12196TIP3    H258004   0.893   0.704   6.315  0.0775 -0.0828 -0.4802
12197TIP3   OH258005   5.345   4.362   3.749  0.3093  0.1684 -1.0957
12197TIP3    H158006   5.353   4.293   3.815  0.3026 -0.5104 -1.7958
12197TIP3    H258007   5.426   4.412   3.758  1.2222 -1.1185 -1.9024
12198TIP3   OH258008   4.441   3.389   0.043  0.0627  0.2565 -0.3934
12198TIP3    H158009   4.504   3.322   0.017 -0.4550  0.0596 -1.1413
12198TIP3    H258010   4.480   3.471   0.015  0.3813  0.2150 -0.0832
12199TIP3   OH258011   2.245   0.472   2.971 -0.0038  0.1226  0.2856
12199TIP3    H158012   2.184   0.422   3.026 -1.0218  0.5999 -0.3792
12199TIP3    H258013   2.222   0.449   2.881  1.5190 -0.4957  0.0166
12200TIP3   OH258014   1.220   6.619   4.168  0.0258  0.7223  0.2075
12200TIP3    H158015   1.190   6.681   4.234 -2.0340 -0.7394  0.7287
12200TIP3    H258016   1.196   6.533   4.203  2.1841 -0.3876 -0.7944
12201TIP3   OH258017   6.300   3.719   6.728 -1.3221  0.3352  0.2288
12201TIP3    H158018   6.261   3.767   6.656 -0.8728 -1.4748 -1.3086
12201TIP3    H258019   6.395   3.726   6.714 -1.2349 -0.2584  0.4762
12202TIP3   OH258020   4.520   4.735  16.747 -0.0688  0.0971  0.6052
12202TIP3    H158021   4.481   4.791  16.814 -1.5678 -1.1098  0.8005
12202TIP3    H258022   4.481   4.765  16.665  0.8735  0.8146  0.4139
12203TIP3   OH258023   6.736   4.087  10.499  0.1433  0.1133  0.2364
12203TIP3    H158024   6.801   4.034  10.455  0.8475  1.0909  0.0638
12203TIP3    H258025   6.696   4.028  10.563  1.1235 -0.5287  0.2709
12204TIP3   OH258026   0.201   4.542  11.828  0.0036  0.0534  0.0984
12204TIP3    H158027   0.199   4.484  11.904  0.9495 -0.5482 -0.3083
12204TIP3    H258028   0.112   4.539  11.793  0.3106 -2.1912 -0.6444
12205TIP3   OH258029   5.982   4.813   3.061 -0.3657  0.2228 -0.4893
12205TIP3    H158030   5.934   4.805   3.143 -0.2641  2.0013 -0.2190
12205TIP3    H258031   5.936   4.881   3.013  1.0719  1.0060 -0.8123
12206TIP3   OH258032   0.696   4.795  13.740 -0.2724  0.2275  0.1004
12206TIP3    H158033   0.667   4.771  13.828 -0.1491  1.5210  0.5205
12206TIP3    H258034   0.615   4.811  13.691 -0.3286  0.0762  0.1430
12207TIP3   OH258035   5.794   2.545  16.945  0.3183  0.7372  0.3446
12207TIP3    H158036   5.842   2.578  17.021  0.1767  0.5926  0.4970
12207TIP3    H258037   5.707   2.584  16.952  0.6343  1.6076 -0.3416
12208TIP3   OH258038   4.623   6.099   2.254 -0.2547 -0.5601 -0.5278
12208TIP3    H158039   4.667   6.146   2.183  1.4439  1.5887  1.7552
12208TIP3    H258040   4.553   6.158   2.281 -0.1739 -0.8235  0.2823
12209TIP3   OH258041   5.525   5.712  12.563 -0.2559 -0.2754  0.2044
12209TIP3    H158042   5.434   5.736  12.581 -0.0452 -0.2912  1.3681
12209TIP3    H258043   5.572   5.795  12.566  0.1740 -0.5275  2.3489
12210TIP3   OH258044   2.051   3.053  10.956 -0.1777  0.4752 -0.3997
12210TIP3    H158045   2.141   3.061  10.924 -0.4184  0.5577 -1.0723
12210TIP3    H258046   2.016   2.977  10.910 -0.0646 -0.3445  0.8187
12211TIP3   OH258047   2.850   6.772   2.955  0.3055 -0.0318  0.9052
12211TIP3    H158048   2.759   6.760   2.927  0.7011 -0.0551 -0.4311
12211TIP3    H258049   2.877   6.855   2.916  0.8223  0.0522  1.4196
12212TIP3   OH258050   4.761   4.983  16.492  0.6823  0.2846  0.1920
12212TIP3    H158051   4.722   4.926  16.426 -0.0843 -0.4586  1.2526
12212TIP3    H258052   4.852   4.954  16.497  0.1591 -1.3362  1.1697
12213TIP3   OH258053   4.157   3.141  15.866 -0.1886 -0.3410 -0.1448
12213TIP3    H158054   4.065   3.114  15.861 -0.7201  1.4398 -1.0298
12213TIP3    H258055   4.190   3.129  15.778  0.5782 -1.3509  0.2617
12214TIP3   OH258056   1.202   5.403  16.462  0.1190 -0.1236  0.2621
12214TIP3    H158057   1.271   5.337  16.461  1.2304  0.9992 -0.0818
12214TIP3    H258058   1.136   5.371  16.400  0.9852 -0.5457 -0.4477
12215TIP3   OH258059   3.309   3.375   4.528  0.6022  0.6046 -0.2004
12215TIP3    H158060   3.372   3.442   4.502  0.5805  1.2551  1.3425
12215TIP3    H258061   3.342   3.342   4.611 -0.1344 -0.3429 -0.2679
12216TIP3   OH258062   5.494   3.630  13.666 -0.3043 -0.1443 -0.2263
12216TIP3    H158063   5.540   3.550  13.644 -1.4673 -0.6191 -1.0207
12216TIP3    H258064   5.426   3.639  13.599 -1.1718  0.6819  0.7129
12217TIP3   OH258065   2.438   6.097  14.974  0.1082  0.6830  0.0920
12217TIP3    H158066   2.390   6.084  14.892  2.0689  1.1025 -1.2041
12217TIP3    H258067   2.478   6.184  14.964 -0.0507  0.9756  1.7499
12218TIP3   OH258068   2.070   2.959   3.818  0.1654 -0.5576  0.2570
12218TIP3    H158069   2.084   3.051   3.794  0.6114 -0.8914 -0.8163
12218TIP3    H258070   1.990   2.934   3.771 -1.3435 -0.0801  2.4165
12219TIP3   OH258071   1.237   4.540  16.346 -0.3584  0.0067 -0.0178
12219TIP3    H158072   1.288   4.463  16.320 -1.2864 -0.1352 -1.5177
12219TIP3    H258073   1.165   4.543  16.284 -0.9788  1.4480  0.7306
12220TIP3   OH258074   3.999   2.294   1.533 -0.4736 -0.3935  0.3047
12220TIP3    H158075   3.937   2.293   1.606 -0.5282  0.4836  0.2820
12220TIP3    H258076   4.047   2.212   1.541 -2.1644 -1.4520 -0.1511
12221TIP3   OH258077   0.057   2.580  11.782 -0.3065  0.7424  0.0333
12221TIP3    H158078   0.060   2.638  11.858  1.4711 -0.2673  0.7795
12221TIP3    H258079  -0.025   2.603  11.738 -0.4875  2.6221  1.2273
12222TIP3   OH258080   3.882   3.384   0.631  0.2792 -0.2138  0.5178
12222TIP3    H158081   3.821   3.411   0.563  1.3522 -0.4204 -0.5696
12222TIP3    H258082   3.830   3.382   0.711 -1.4830 -1.6678 -0.5635
12223TIP3   OH258083   6.809   1.333   4.156 -0.6716 -0.3927 -0.2069
12223TIP3    H158084   6.721   1.303   4.135 -1.2571  0.7212  0.5427
12223TIP3    H258085   6.819   1.316   4.250 -0.7666  1.0694  0.0875
12224TIP3   OH258086   5.696   2.482   5.272 -0.1381  0.1658  0.4538
12224TIP3    H158087   5.656   2.536   5.204 -0.9244 -0.5040  0.3704
12224TIP3    H258088   5.728   2.545   5.337 -1.3858  0.7350  0.5576
12225TIP3   OH258089   0.529   2.613   5.179 -0.0183  0.2010  0.3010
12225TIP3    H158090   0.435   2.623   5.164  0.1712  0.3566 -0.8684
12225TIP3    H258091   0.557   2.548   5.114  0.3226 -1.4816  2.0316
12226TIP3   OH258092   2.918   4.027  10.867  0.2030  0.0090  0.3768
12226TIP3    H158093   2.906   4.000  10.777  0.3886  0.4689  0.2080
12226TIP3    H258094   2.863   4.105  10.877 -1.8332 -1.4774  1.4057
12227TIP3   OH258095   5.317   0.372  11.907 -0.2044  0.1106  0.0397
12227TIP3    H158096   5.375   0.428  11.958  0.5848 -1.3730  0.8508
12227TIP3    H258097   5.376   0.312  11.860 -1.0111 -0.1041 -0.7281
12228TIP3   OH258098   5.710   1.661  11.441 -0.1613 -0.1499  0.1953
12228TIP3    H158099   5.626   1.633  11.406  0.3156 -1.4916  0.0520
12228TIP3    H258100   5.749   1.714  11.371 -1.2377  1.2318  0.6106
12229TIP3   OH258101   4.111   1.142   1.812  0.0362  0.2903  0.0100
12229TIP3    H158102   4.135   1.111   1.724 -0.1328 -2.5711  0.8809
12229TIP3    H258103   4.015   1.136   1.813 -0.1341  2.2335 -0.1945
12230TIP3   OH258104   6.020   0.530  16.209 -0.1382  0.5229  0.6466
12230TIP3    H158105   5.944   0.576  16.171 -2.4087 -2.0774  1.7189
12230TIP3    H258106   6.069   0.599  16.254 -1.2492  2.4962 -0.9728
12231TIP3   OH258107   6.472   0.572   5.177 -0.2915 -0.3829  1.0438
12231TIP3    H158108   6.538   0.517   5.219 -1.1814 -0.8281  1.8923
12231TIP3    H258109   6.388   0.532   5.200 -0.8474 -0.6473 -1.1612
12232TIP3   OH258110   1.236   3.039   4.521  0.0031  0.2024  0.4642
12232TIP3    H158111   1.207   2.984   4.448 -0.4842 -0.0748  0.8611
12232TIP3    H258112   1.270   2.977   4.585  1.2793  0.5012  0.1165
12233TIP3   OH258113   5.558   0.483  12.578  0.1514 -0.1029  0.1899
12233TIP3    H158114   5.528   0.546  12.644 -0.8975  1.3012 -1.5154
12233TIP3    H258115   5.519   0.400  12.604 -1.0244  0.6230  0.8365
12234TIP3   OH258116   4.096   5.378  16.705  0.0783  0.0894  0.0333
12234TIP3    H158117   4.040   5.368  16.782  1.2419  0.4887  0.9631
12234TIP3    H258118   4.126   5.468  16.708  1.0817 -0.2253 -0.2313
12235TIP3   OH258119   5.872   3.504   3.194 -0.4149 -0.8309 -0.4566
12235TIP3    H158120   5.810   3.460   3.251  0.3783  0.3855  1.4353
12235TIP3    H258121   5.890   3.441   3.125 -1.6434 -2.2428  0.4541
12236TIP3   OH258122   6.726   1.926  13.059 -0.0659 -0.2984  0.4623
12236TIP3    H158123   6.812   1.960  13.084 -0.1098 -0.3429  0.6750
12236TIP3    H258124   6.746   1.846  13.010  0.0013 -0.5108  0.8367
12237TIP3   OH258125   6.684   0.431   5.303 -0.5502 -0.0312 -0.5813
12237TIP3    H158126   6.643   0.426   5.390 -0.5913  1.3506 -0.4999
12237TIP3    H258127   6.741   0.355   5.299 -0.6514 -0.1888  0.6103
12238TIP3   OH258128   6.320   0.936   1.355 -0.1213  0.1215  0.0439
12238TIP3    H158129   6.249   0.934   1.291 -0.7294  2.3211  0.5720
12238TIP3    H258130   6.397   0.909   1.306 -1.1268 -1.3401 -0.7905
12239TIP3   OH258131   0.663   0.886   5.269 -0.6864 -0.1122  0.0290
12239TIP3    H158132   0.723   0.953   5.301 -1.2016 -0.2583  1.3339
12239TIP3    H258133   0.583   0.899   5.319 -1.1172 -1.0971 -0.3781
12240TIP3   OH258134   4.841   2.288   2.245 -0.1830 -0.4945  0.0101
12240TIP3    H158135   4.852   2.295   2.150  0.6492 -0.6204  0.0916
12240TIP3    H258136   4.836   2.194   2.262 -1.2141 -0.4488  0.0025
12241TIP3   OH258137   2.139   2.427   0.346  0.0931 -0.3149 -0.5233
12241TIP3    H158138   2.146   2.363   0.416 -0.2662 -0.2393 -0.4161
12241TIP3    H258139   2.230   2.450   0.326  0.1882  1.1920  1.3241
12242TIP3   OH258140   4.970   4.482  16.169 -0.1138  0.1359 -0.6467
12242TIP3    H158141   5.037   4.524  16.223 -0.5578 -1.5869  1.3771
12242TIP3    H258142   4.895   4.541  16.175  0.6456  1.2166 -1.5032
12243TIP3   OH258143   5.507   1.799   2.732 -0.1836  0.2091  0.2767
12243TIP3    H158144   5.517   1.806   2.637 -1.2629  0.0900  0.1435
12243TIP3    H258145   5.596   1.781   2.764 -0.0826 -1.7283 -0.8998
12244TIP3   OH258146   6.426   6.245   5.385 -0.9157 -0.2298 -0.3089
12244TIP3    H158147   6.411   6.236   5.479 -1.1678 -0.2543 -0.3485
12244TIP3    H258148   6.521   6.248   5.375 -0.8975  0.3646  0.0024
12245TIP3   OH258149   4.777   4.346   1.949  0.0482  0.1428  0.4634
12245TIP3    H158150   4.696   4.351   1.999  0.0538  1.1280  0.3895
12245TIP3    H258151   4.846   4.368   2.011  0.2228 -0.2922  0.4276
12246TIP3   OH258152   3.096   2.828   0.084  0.6525  0.4283 -0.0957
12246TIP3    H158153   3.171   2.824   0.144 -0.7954  0.2452  1.7809
12246TIP3    H258154   3.061   2.916   0.096  0.2012  0.3091 -0.5285
12247TIP3   OH258155   1.179   3.006   2.372 -0.4204 -0.0785 -0.0245
12247TIP3    H158156   1.180   3.010   2.276 -0.1556  1.5174  0.0162
12247TIP3    H258157   1.253   3.061   2.399  0.4686 -1.7384  1.0918
12248TIP3   OH258158   1.918   5.267   3.679  0.0244 -0.1603 -0.3210
12248TIP3    H158159   1.844   5.210   3.699 -0.4495  0.8480  0.9281
12248TIP3    H258160   1.908   5.288   3.586  0.1937 -2.0347 -0.8080
12249TIP3   OH258161   3.385   5.424   5.173 -0.0665  0.3676 -0.4514
12249TIP3    H158162   3.475   5.433   5.204 -0.5271 -1.1351  1.4695
12249TIP3    H258163   3.360   5.513   5.145  1.1934  1.3139  1.2767
12250TIP3   OH258164   1.582   3.975  15.284  0.0533  0.0864 -0.1587
12250TIP3    H158165   1.657   3.916  15.287  1.0048  1.2162 -0.7456
12250TIP3    H258166   1.562   3.993  15.375  0.6153 -0.0923  0.0054
12251TIP3   OH258167   4.451   5.080  16.563 -0.3324  0.6028 -0.0646
12251TIP3    H158168   4.428   4.987  16.552 -0.5243  0.8899 -2.4968
12251TIP3    H258169   4.422   5.101  16.652 -0.8019 -1.5154  0.3391
12252TIP3   OH258170   0.610   2.855   5.088  0.1071 -0.1877 -0.3171
12252TIP3    H158171   0.586   2.773   5.132  0.9051  0.2160  0.9273
12252TIP3    H258172   0.608   2.833   4.995 -0.1608 -1.4941 -0.0332
12253TIP3   OH258173   6.626   6.599   5.890  0.6122  0.5255 -0.0960
12253TIP3    H158174   6.574   6.578   5.967  0.1997 -0.3048 -0.5817
12253TIP3    H258175   6.703   6.643   5.924  1.4875 -1.6917  1.0200
12254TIP3   OH258176   6.394   2.288  11.192 -1.0598  0.4350 -0.4337
12254TIP3    H158177   6.479   2.278  11.235 -0.9315  2.0355 -0.2762
12254TIP3    H258178   6.369   2.198  11.170 -0.2782 -0.2699  1.3039
12255TIP3   OH258179   3.958   1.605  15.629 -0.4999 -0.3170 -0.1868
12255TIP3    H158180   3.993   1.593  15.717  1.6826  0.5107 -0.8776
12255TIP3    H258181   3.871   1.643  15.642 -0.0598  0.1448  1.5845
12256TIP3   OH258182   0.514   0.954   2.856  0.2317  0.4078  0.3157
12256TIP3    H158183   0.602   0.940   2.892 -0.6642  2.4421  3.6711
12256TIP3    H258184   0.519   1.040   2.815 -0.3091  0.7821  1.0190
12257TIP3   OH258185   4.336   2.429  16.558 -0.1476 -0.0329  0.3723
12257TIP3    H158186   4.306   2.356  16.612 -0.1504 -0.1607  0.1996
12257TIP3    H258187   4.396   2.388  16.495 -0.0673  0.1303  0.3421
12258TIP3   OH258188   2.600   2.456   0.004 -0.4881 -0.2744  0.0799
12258TIP3    H158189   2.682   2.450   0.053 -0.0692 -1.7322 -0.7261
12258TIP3    H258190   2.571   2.546   0.015  0.6579 -0.0301  1.2821
12259TIP3   OH258191   1.985   4.809   4.549  0.3798  0.0727 -0.3054
12259TIP3    H158192   1.946   4.896   4.551  1.1355  0.4142  0.4109
12259TIP3    H258193   2.004   4.789   4.641  0.3614 -0.7844 -0.4754
12260TIP3   OH258194   2.758   1.258  15.295 -0.1095 -0.7089 -0.7981
12260TIP3    H158195   2.767   1.346  15.331  0.2025 -0.5380 -1.2859
12260TIP3    H258196   2.665   1.237  15.308 -0.0220 -0.6342  0.0456
12261TIP3   OH258197   3.147   1.814   3.150  0.1667 -0.1589 -0.1370
12261TIP3    H158198   3.114   1.728   3.122  1.2241 -0.7387  0.3262
12261TIP3    H258199   3.203   1.794   3.225  0.3040  0.9643  0.0681
12262TIP3   OH258200   6.323   5.956   2.756 -0.1840 -0.1888  0.3123
12262TIP3    H158201   6.339   6.038   2.709 -0.1982  0.1768  0.9185
12262TIP3    H258202   6.250   5.977   2.815 -0.8334 -0.9265 -0.2228
12263TIP3   OH258203   2.452   6.020  16.743  0.7848  0.1369  0.1942
12263TIP3    H158204   2.373   5.995  16.696  0.6042 -1.0906  1.1054
12263TIP3    H258205   2.421   6.049  16.829  1.2391  0.7824  0.1496
12264TIP3   OH258206   1.120   6.169   5.845  0.1046 -0.3190  0.8811
12264TIP3    H158207   1.168   6.222   5.780  0.2880 -0.1903  1.1209
12264TIP3    H258208   1.044   6.223   5.867 -0.7724 -1.0004 -0.3351
12265TIP3   OH258209   3.573   3.106   4.491 -0.7064 -0.2467 -0.0651
12265TIP3    H158210   3.538   3.066   4.411 -0.3060  1.0942 -0.9325
12265TIP3    H258211   3.553   3.199   4.483  1.3161  0.2776  0.3224
12266TIP3   OH258212   0.794   2.584  12.809 -0.1283 -0.3221  0.1873
12266TIP3    H158213   0.819   2.668  12.847 -2.9197  1.0088 -0.6627
12266TIP3    H258214   0.774   2.528  12.884 -1.5683  0.9266  0.7755
12267TIP3   OH258215   3.811   3.892  14.776 -0.3870  0.0096 -0.1409
12267TIP3    H158216   3.794   3.981  14.806  0.9397 -0.7901  3.4712
12267TIP3    H258217   3.905   3.890  14.761 -0.0633 -1.1662  1.6822
12268TIP3   OH258218   6.526   4.479   2.024 -0.1508 -0.4891 -0.0411
12268TIP3    H158219   6.551   4.386   2.026  0.8024 -0.2308  1.2943
12268TIP3    H258220   6.489   4.495   2.111  2.0621  0.9771  0.6943
12269TIP3   OH258221   4.649   0.916   2.863 -0.3459  0.4646 -0.0343
12269TIP3    H158222   4.638   0.825   2.891 -0.3999  0.2178 -0.8233
12269TIP3    H258223   4.560   0.951   2.857 -0.2838  0.8640  1.1755
12270TIP3   OH258224   0.642   5.123  15.526  0.2198  0.0648 -0.4947
12270TIP3    H158225   0.635   5.092  15.616 -0.9798 -0.4872 -0.7535
12270TIP3    H258226   0.578   5.194  15.520  1.9509  1.7041 -0.3019
12271TIP3   OH258227   4.004   4.158  13.687 -0.7114 -0.0836 -0.1590
12271TIP3    H158228   4.063   4.089  13.718 -0.9516 -0.0101  0.4628
12271TIP3    H258229   3.928   4.153  13.745 -0.5977  0.9068  0.0902
12272TIP3   OH258230   3.327   6.058   2.603  0.6941 -0.2237 -0.1939
12272TIP3    H158231   3.276   6.127   2.563 -1.3969 -0.4916  1.8078
12272TIP3    H258232   3.418   6.084   2.589 -0.0068  3.0341  0.6045
12273TIP3   OH258233   5.273   6.295   4.221 -0.0678 -0.0500 -0.0510
12273TIP3    H158234   5.219   6.284   4.142 -0.3058 -1.0526  0.2343
12273TIP3    H258235   5.331   6.368   4.201 -1.5660  1.1183 -0.3611
12274TIP3   OH258236   2.018   4.455   1.069  0.0833 -0.2927  0.1474
12274TIP3    H158237   1.980   4.532   1.026  1.9894  2.1239  2.5032
12274TIP3    H258238   1.946   4.418   1.119 -0.3791  1.3104  0.7348
12275TIP3   OH258239   2.930   5.911  11.926  0.4106  1.2206 -0.5202
12275TIP3    H158240   2.991   5.941  11.993  1.2887  0.5497 -0.9984
12275TIP3    H258241   2.932   5.815  11.933  0.7562  1.1293 -1.7056
12276TIP3   OH258242   3.681   1.178   3.056 -0.1957  0.4796  0.5654
12276TIP3    H158243   3.592   1.145   3.043 -0.0495  0.3918 -0.2919
12276TIP3    H258244   3.698   1.230   2.978  1.0340 -0.6949  0.0239
12277TIP3   OH258245   1.245   6.797  16.328 -0.2916 -0.0513  0.7059
12277TIP3    H158246   1.289   6.805  16.413 -2.0101 -2.4826  1.9461
12277TIP3    H258247   1.307   6.748  16.274 -0.4665 -1.3938  1.6743
12278TIP3   OH258248   2.658   6.531  11.537  0.6077  0.4498 -0.0327
12278TIP3    H158249   2.746   6.536  11.498  0.5601  0.7218 -0.1041
12278TIP3    H258250   2.628   6.443  11.516  0.3978  0.7411 -1.0123
12279TIP3   OH258251   1.525   1.192   2.032 -0.4358 -0.5606  0.4317
12279TIP3    H158252   1.617   1.169   2.049 -0.3801 -0.5151  0.2049
12279TIP3    H258253   1.530   1.261   1.965 -0.6286 -0.4071  0.5770
12280TIP3   OH258254   0.544   3.382  15.783 -0.2370  0.2533  0.0746
12280TIP3    H158255   0.612   3.449  15.777  0.6801 -0.6674 -0.0726
12280TIP3    H258256   0.496   3.390  15.700 -1.2966  1.8991  0.7958
12281TIP3   OH258257   3.325   4.401   4.172  0.1211  0.1655 -0.5406
12281TIP3    H158258   3.390   4.457   4.212 -1.1471  1.1663  0.1716
12281TIP3    H258259   3.323   4.323   4.227 -0.8336  1.0699  0.7542
12282TIP3   OH258260   3.415   4.650  10.623 -0.0843  0.2774  0.4480
12282TIP3    H158261   3.338   4.706  10.628 -0.1153  0.5562 -1.9712
12282TIP3    H258262   3.480   4.691  10.679 -0.7558  1.6559  0.2381
12283TIP3   OH258263   4.450   0.331  15.093 -0.6464  0.5045 -0.7438
12283TIP3    H158264   4.474   0.363  15.180 -2.0527  2.7316 -1.0873
12283TIP3    H258265   4.410   0.245  15.110 -0.6667  0.7743  0.7786
12284TIP3   OH258266   2.541   6.342   6.251 -0.1641 -0.5437 -1.0152
12284TIP3    H158267   2.502   6.264   6.213 -2.9088  1.3452 -2.3844
12284TIP3    H258268   2.636   6.330   6.240 -0.4445 -3.7973 -0.7353
12285TIP3   OH258269   3.451   1.411  10.730  0.1117  0.1640 -0.4680
12285TIP3    H158270   3.509   1.487  10.730 -0.0313  0.3746 -3.1927
12285TIP3    H258271   3.407   1.414  10.815  0.0674  3.1669 -0.4828
12286TIP3   OH258272   1.286   0.239  16.067  0.1351  0.6451  0.0568
12286TIP3    H158273   1.255   0.164  16.016 -0.0486  0.8225 -0.0941
12286TIP3    H258274   1.379   0.246  16.044  0.0326  0.7828 -0.3389
12287TIP3   OH258275   5.949   4.716  13.800 -0.4773 -0.2622  0.0240
12287TIP3    H158276   5.890   4.734  13.873 -1.1937 -0.3360 -0.5257
12287TIP3    H258277   5.954   4.621  13.796  1.5341 -0.2988  1.5125
12288TIP3   OH258278   1.456   4.145  12.143  0.1212  0.7946  0.4791
12288TIP3    H158279   1.418   4.176  12.225 -0.5185 -0.3644  0.6423
12288TIP3    H258280   1.381   4.138  12.083  0.3029 -0.0472  0.3392
12289TIP3   OH258281   3.640   5.038  15.732 -0.2801  0.1262  0.8471
12289TIP3    H158282   3.716   4.986  15.757 -0.5094 -0.8003 -0.2816
12289TIP3    H258283   3.658   5.065  15.642 -1.0210  0.3753  0.7653
12290TIP3   OH258284   5.883   5.771   3.944 -0.2347  0.1169 -0.1387
12290TIP3    H158285   5.862   5.782   4.037 -0.2097  0.6594 -0.1929
12290TIP3    H258286   5.934   5.849   3.922  1.2634 -0.8320 -0.1804
12291TIP3   OH258287   0.443   5.822  11.579  0.2047 -0.0430  0.2840
12291TIP3    H158288   0.414   5.912  11.563  0.5032  0.1066  0.5908
12291TIP3    H258289   0.364   5.769  11.567  0.1375  0.2003 -0.4130
12292TIP3   OH258290   4.936   3.734   2.537  0.4534  0.3033  0.2515
12292TIP3    H158291   4.958   3.686   2.457 -2.3921 -1.0875  0.1617
12292TIP3    H258292   4.842   3.752   2.528 -0.1611 -0.5899  3.5689
12293TIP3   OH258293   2.813   0.940  14.811 -0.2386  0.4247  0.2512
12293TIP3    H158294   2.849   1.026  14.790 -0.3478  0.3428 -0.2902
12293TIP3    H258295   2.776   0.909  14.728 -1.3116  0.3873  0.7301
12294TIP3   OH258296   5.912   5.547  11.934  0.2042  0.3816 -0.3466
12294TIP3    H158297   5.919   5.560  12.028 -0.8979 -0.6478 -0.0928
12294TIP3    H258298   5.834   5.596  11.908  0.1698  0.1825 -0.6239
12295TIP3   OH258299   1.960   5.476  14.809  0.4888 -0.4266  0.5644
12295TIP3    H158300   1.883   5.502  14.860  0.6899  0.5062  0.4096
12295TIP3    H258301   1.946   5.383  14.791 -0.7534 -0.2100  0.2929
12296TIP3   OH258302   3.360   6.371   0.802  0.6469 -0.0456 -0.1407
12296TIP3    H158303   3.372   6.286   0.759  0.4352 -0.5676  0.8089
12296TIP3    H258304   3.265   6.378   0.813  0.7195 -0.0337  0.4782
12297TIP3   OH258305   3.453   3.290   0.065  0.3168 -0.2855  0.5362
12297TIP3    H158306   3.441   3.358  -0.001 -0.3240 -0.3435  0.5900
12297TIP3    H258307   3.431   3.332   0.148  1.0263 -0.2395  0.7051
12298TIP3   OH258308   4.671   0.869   0.706  0.3383  0.3871  0.2633
12298TIP3    H158309   4.701   0.819   0.630 -1.0211  2.1687 -1.5469
12298TIP3    H258310   4.748   0.919   0.734  0.3371  1.3333 -1.3303
12299TIP3   OH258311   3.207   5.414   1.893 -0.6383  0.0215 -0.3240
12299TIP3    H158312   3.269   5.352   1.932  0.0818  0.2321 -1.1158
12299TIP3    H258313   3.184   5.375   1.809 -0.5656  0.5948 -0.6071
12300TIP3   OH258314   5.791   5.188  12.887 -0.8653 -0.1039  0.5808
12300TIP3    H158315   5.871   5.165  12.839 -0.1909  0.3897  1.4271
12300TIP3    H258316   5.723   5.192  12.820 -0.0093  0.2598 -0.2910
12301TIP3   OH258317   4.997   3.763   4.723  0.2582 -0.2729 -0.7454
12301TIP3    H158318   4.973   3.671   4.723 -1.4404  0.1036  1.2169
12301TIP3    H258319   4.938   3.804   4.659 -0.3953 -0.2352 -0.1195
12302TIP3   OH258320   1.281   1.543  11.985  0.2539  0.3646 -0.2462
12302TIP3    H158321   1.345   1.612  11.967  0.2853  0.2427 -0.6082
12302TIP3    H258322   1.307   1.471  11.927  1.4860 -0.7601  1.5799
12303TIP3   OH258323   5.831   0.660   3.490 -0.3100 -0.1309  0.6041
12303TIP3    H158324   5.889   0.683   3.417 -0.5197 -1.0586  0.1302
12303TIP3    H258325   5.873   0.583   3.529  0.3510  0.9594  2.1134
12304TIP3   OH258326   0.117   1.859   3.001 -0.2808 -0.3606  0.3717
12304TIP3    H158327   0.070   1.850   3.084 -0.0855 -0.3457  0.4871
12304TIP3    H258328   0.203   1.819   3.018 -0.0893  0.0146  0.3065
12305TIP3   OH258329   3.699   2.707  13.374 -0.1319  0.3297 -0.0039
12305TIP3    H158330   3.751   2.738  13.448  0.7857 -0.4212 -0.3225
12305TIP3    H258331   3.763   2.672  13.312 -1.1201 -2.9527  0.6485
12306TIP3   OH258332   2.540   3.011  15.636  0.1221  0.6581  0.2699
12306TIP3    H158333   2.482   2.991  15.562  0.4419 -0.8214  0.3847
12306TIP3    H258334   2.576   3.097  15.615  0.5685  0.0890 -1.5802
12307TIP3   OH258335   6.157   5.256  11.352  0.7001 -0.5858  0.4474
12307TIP3    H158336   6.074   5.215  11.379  0.8755  0.4425  2.7043
12307TIP3    H258337   6.145   5.273  11.258 -1.2385 -1.3922  0.4967
12308TIP3   OH258338   6.582   3.568  13.937  0.0214  0.0891  0.3401
12308TIP3    H158339   6.599   3.476  13.915  1.0406 -0.0321  1.5137
12308TIP3    H258340   6.596   3.615  13.854  0.5622 -0.6943 -0.0304
12309TIP3   OH258341   3.176   1.499   1.555  0.3726 -0.2369 -0.1695
12309TIP3    H158342   3.237   1.436   1.516 -0.1302  0.7016 -2.6086
12309TIP3    H258343   3.233   1.564   1.597  0.9830 -0.6478 -0.3446
12310TIP3   OH258344   1.827   5.615  12.655  0.0013 -0.0277  0.1578
12310TIP3    H158345   1.835   5.553  12.583 -0.5785  0.7692 -0.6179
12310TIP3    H258346   1.902   5.597  12.712  1.7954  0.8053 -1.8050
12311TIP3   OH258347   3.150   0.548   5.486 -0.0539  0.6340 -0.5512
12311TIP3    H158348   3.132   0.640   5.464  1.0960  1.0377  0.0632
12311TIP3    H258349   3.205   0.554   5.565  0.7756 -0.5449 -1.0205
12312TIP3   OH258350   4.773   2.626   3.428  0.0740 -0.2840 -0.1066
12312TIP3    H158351   4.796   2.614   3.336  2.0693  0.9926  0.1842
12312TIP3    H258352   4.784   2.539   3.467 -0.3094 -0.7233 -0.9476
12313TIP3   OH258353   6.691   5.036  13.859  0.2787  0.0664 -0.2808
12313TIP3    H158354   6.618   5.078  13.905  0.3739  0.8949 -0.8575
12313TIP3    H258355   6.703   5.089  13.780 -1.1501 -2.3997 -2.3130
12314TIP3   OH258356   5.319   4.241  16.102 -0.0474  0.0458  0.0483
12314TIP3    H158357   5.306   4.309  16.036 -0.4443 -0.8857 -0.8573
12314TIP3    H258358   5.323   4.289  16.185 -2.5008  1.0308 -0.3115
12315TIP3   OH258359   5.617   3.012  11.932 -0.1612 -0.2159 -0.1907
12315TIP3    H158360   5.698   3.053  11.900  0.3004 -0.5196  0.5395
12315TIP3    H258361   5.635   2.994  12.024 -1.1134 -0.1920  0.0096
12316TIP3   OH258362   5.769   2.708  16.666 -0.1702 -0.1620  0.3098
12316TIP3    H158363   5.851   2.659  16.652 -0.1407  0.1134 -0.5788
12316TIP3    H258364   5.703   2.640  16.683 -0.3486 -0.6440 -1.9570
12317TIP3   OH258365   2.920   4.856   5.198 -0.0470 -0.0434  0.1170
12317TIP3    H158366   2.913   4.761   5.188 -0.5699 -0.0160  0.2094
12317TIP3    H258367   3.007   4.877   5.164  0.9239 -0.8015  1.9957
12318TIP3   OH258368   2.629   3.142   4.464  0.3360  0.3497  0.1431
12318TIP3    H158369   2.618   3.233   4.491  1.2183  0.2294  1.0068
12318TIP3    H258370   2.713   3.116   4.503 -1.3918 -1.8257  2.8315
12319TIP3   OH258371   1.177   6.302  15.887 -0.1256 -0.5097  0.5225
12319TIP3    H158372   1.173   6.358  15.964  1.6811 -0.4397  0.5958
12319TIP3    H258373   1.207   6.359  15.816  2.5151 -1.4740  0.7705
12320TIP3   OH258374   2.541   4.988  12.032 -0.0196  0.4443  0.1374
12320TIP3    H158375   2.538   5.013  12.125 -0.3275  0.9624 -0.0091
12320TIP3    H258376   2.610   4.922  12.028  1.4690  1.9056  0.3893
12321TIP3   OH258377   0.392   5.087   2.978 -0.0911  1.2107 -0.0478
12321TIP3    H158378   0.327   5.031   2.936 -0.6491  1.0820  0.9695
12321TIP3    H258379   0.346   5.170   2.990 -0.1042  1.0861  0.7655
12322TIP3   OH258380   5.191   0.479  12.408 -0.2541 -0.1129 -0.0556
12322TIP3    H158381   5.228   0.567  12.398 -1.1956  0.3718  0.5042
12322TIP3    H258382   5.261   0.420  12.380 -0.9384  0.8770 -4.7314
12323TIP3   OH258383   5.185   5.854   4.170  0.0037  0.2420 -0.2900
12323TIP3    H158384   5.210   5.864   4.262 -1.0416 -0.3866  0.0806
12323TIP3    H258385   5.121   5.783   4.170 -0.8414  0.9731 -1.3549
12324TIP3   OH258386   6.669   2.817  10.787 -0.0733  0.1526 -0.3867
12324TIP3    H158387   6.604   2.814  10.718 -0.1852 -0.0511 -0.2741
12324TIP3    H258388   6.724   2.740  10.773 -0.5759 -0.3183  0.2148
12325TIP3   OH258389   6.797   3.811  14.747  0.1960  0.6278 -0.3554
12325TIP3    H158390   6.796   3.897  14.790 -1.2662  0.4250  0.0811
12325TIP3    H258391   6.794   3.830  14.654  1.3417  1.0484 -0.3270
12326TIP3   OH258392   0.945   5.144  13.008 -0.1288 -0.4292  0.2153
12326TIP3    H158393   1.022   5.202  13.003 -0.2015 -0.0768  2.2122
12326TIP3    H258394   0.871   5.204  13.008 -0.3094 -0.6548  0.3131
12327TIP3   OH258395   3.975   6.696   0.530 -0.0319 -0.1578 -0.0745
12327TIP3    H158396   3.994   6.786   0.501  0.1991 -0.2485 -0.2113
12327TIP3    H258397   4.021   6.688   0.613  1.0049 -0.5535 -0.6668
12328TIP3   OH258398   0.456   3.569   5.213  0.6031 -0.5096 -0.0336
12328TIP3    H158399   0.547   3.557   5.187  1.0423  0.2534  1.1039
12328TIP3    H258400   0.459   3.629   5.287 -0.9747  0.9675 -1.0901
12329TIP3   OH258401   0.490   0.420   1.278 -0.4211 -0.0429 -0.1183
12329TIP3    H158402   0.532   0.484   1.336 -0.7724  0.1046 -0.0287
12329TIP3    H258403   0.512   0.450   1.190  1.2471 -0.9956 -0.0871
12330TIP3   OH258404   5.584   0.479   1.432  0.5662 -0.0543  0.7129
12330TIP3    H158405   5.496   0.453   1.407  0.8314  0.1998 -0.5649
12330TIP3    H258406   5.638   0.404   1.409  0.7421 -0.0537  1.1148
12331TIP3   OH258407   2.636   1.069   3.866 -0.2088  0.0563  0.4973
12331TIP3    H158408   2.549   1.073   3.905 -0.4339 -0.5465  0.0713
12331TIP3    H258409   2.673   1.156   3.881 -0.4036 -0.0693  1.7644
12332TIP3   OH258410   2.309   0.772   6.292 -0.2394  0.1855 -0.3553
12332TIP3    H158411   2.239   0.739   6.236 -0.5939  0.5751 -0.1463
12332TIP3    H258412   2.342   0.849   6.245 -0.1467  0.1729 -0.3109
12333TIP3   OH258413   0.398   6.196   3.174  0.1350 -0.7044  0.3717
12333TIP3    H158414   0.403   6.286   3.207  3.2018 -1.0478  1.2268
12333TIP3    H258415   0.392   6.206   3.079 -1.9112  0.3478  0.5643
12334TIP3   OH258416   5.584   5.974   0.844 -0.3880  0.3546  0.2859
12334TIP3    H158417   5.665   5.969   0.894 -0.6517  0.7629  0.7688
12334TIP3    H258418   5.533   6.042   0.888 -1.1948 -0.2322  0.2749
12335TIP3   OH258419   2.346   0.181   2.976  0.4534 -0.5027  0.1102
12335TIP3    H158420   2.302   0.257   2.937  0.3011 -0.4931  0.3013
12335TIP3    H258421   2.332   0.190   3.070  1.4700 -0.1268  0.2321
12336TIP3   OH258422   3.051   0.714   1.029 -0.1281 -0.2263  0.3562
12336TIP3    H158423   3.069   0.620   1.025  0.8078 -0.0370 -0.3564
12336TIP3    H258424   2.956   0.720   1.033 -0.2620 -1.1943 -0.7202
12337TIP3   OH258425   5.305   5.448   5.608  0.2204  0.6045 -0.3663
12337TIP3    H158426   5.275   5.387   5.676  0.5864  0.3419 -0.4351
12337TIP3    H258427   5.383   5.489   5.646  0.5444  0.3083 -0.7007
12338TIP3   OH258428   1.651   2.771   0.945  0.7055 -0.7774  0.4571
12338TIP3    H158429   1.575   2.816   0.982  1.1474  0.4511 -0.0620
12338TIP3    H258430   1.658   2.690   0.996  0.4517  0.1935  2.1208
12339TIP3   OH258431   1.054   5.504  11.835 -0.0476 -0.5476 -0.2543
12339TIP3    H158432   1.117   5.499  11.764 -0.0959 -1.6516 -0.2360
12339TIP3    H258433   1.040   5.598  11.848 -0.5745 -0.3131 -2.1788
12340TIP3   OH258434   1.928   2.872   5.732 -0.1092 -0.0078 -0.0151
12340TIP3    H158435   1.840   2.883   5.769  0.3489  0.6394  0.9361
12340TIP3    H258436   1.985   2.917   5.794  1.1342 -2.0729  0.4173
12341TIP3   OH258437   2.509   1.434  11.896 -0.1341  1.1288 -0.1650
12341TIP3    H158438   2.455   1.495  11.946  0.1340  2.5208 -1.5139
12341TIP3    H258439   2.598   1.467  11.905  0.3329 -0.2770  0.7717
12342TIP3   OH258440   0.532   5.001  12.993  0.0181  0.5009  0.5279
12342TIP3    H158441   0.442   5.012  13.024 -0.4736  1.6008 -1.1920
12342TIP3    H258442   0.526   5.004  12.898  1.5441 -2.2900  0.2544
12343TIP3   OH258443   2.465   3.967   3.380 -0.2810  0.1447  0.0291
12343TIP3    H158444   2.464   4.063   3.383  1.3041  0.1874  0.0375
12343TIP3    H258445   2.516   3.941   3.457 -2.3640 -0.8166  1.1616
12344TIP3   OH258446   6.742   6.118  11.778 -0.5110 -0.4222  0.5353
12344TIP3    H158447   6.718   6.091  11.866  0.8099 -0.0369  1.0455
12344TIP3    H258448   6.838   6.121  11.779 -0.5071  1.3955 -0.3447
12345TIP3   OH258449   0.529   2.816   5.973 -0.2192 -0.0010  0.3420
12345TIP3    H158450   0.593   2.804   6.044  1.1699  1.4101 -0.5926
12345TIP3    H258451   0.444   2.809   6.016  0.5740 -0.0043  1.9971
12346TIP3   OH258452   6.602   5.440   3.553  0.0306  0.4571  0.0799
12346TIP3    H158453   6.650   5.430   3.470  0.1416  0.0747  0.1890
12346TIP3    H258454   6.522   5.388   3.540  0.1802  0.1690  0.3155
12347TIP3   OH258455   4.784   2.722   6.242  0.4746 -0.3070 -0.1353
12347TIP3    H158456   4.872   2.729   6.280  0.7553  0.5297 -0.8903
12347TIP3    H258457   4.732   2.786   6.290  0.4449 -0.3207 -0.1495
12348TIP3   OH258458   5.575   0.418   2.909  0.5204  0.5315 -0.6465
12348TIP3    H158459   5.649   0.371   2.871  1.9154  2.7503 -0.8570
12348TIP3    H258460   5.589   0.412   3.004  0.6297  0.4664 -0.6668
12349TIP3   OH258461   3.920   0.841   0.364 -0.0529  0.9472 -0.6023
12349TIP3    H158462   3.847   0.902   0.371 -0.4893  0.2932  1.1890
12349TIP3    H258463   3.927   0.823   0.271 -2.5019  0.6717 -0.8091
12350TIP3   OH258464   5.771   0.704   5.607 -0.3238 -0.3299 -0.1584
12350TIP3    H158465   5.844   0.643   5.621 -0.2116  0.3945  3.3275
12350TIP3    H258466   5.750   0.737   5.694 -2.6945  2.0047 -1.4555
12351TIP3   OH258467   4.807   5.111   6.443  0.2107  0.0765  0.0335
12351TIP3    H158468   4.878   5.169   6.414 -0.4580  0.9097  0.0417
12351TIP3    H258469   4.846   5.060   6.514  1.0034  0.0330 -0.4149
12352TIP3   OH258470   6.503   0.811   2.656 -0.2981  0.1583  0.2897
12352TIP3    H158471   6.416   0.840   2.683 -0.7488  0.1870 -1.1420
12352TIP3    H258472   6.511   0.838   2.565  1.4523  0.6916  0.5578
12353TIP3   OH258473   2.553   4.230  15.653 -0.4046 -0.3460  0.0597
12353TIP3    H158474   2.519   4.252  15.739 -0.7868 -1.8851  0.3272
12353TIP3    H258475   2.612   4.156  15.669  1.7668  1.1325 -0.6260
12354TIP3   OH258476   1.851   0.663   6.096  0.5913 -0.3349  0.0240
12354TIP3    H158477   1.871   0.671   6.189  1.4526  0.6437 -0.2292
12354TIP3    H258478   1.919   0.715   6.052 -0.3665  0.0066 -1.0931
12355TIP3   OH258479   0.755   6.747   2.354 -0.5182  0.0243  0.0586
12355TIP3    H158480   0.766   6.714   2.444  1.2847 -1.0828 -0.5098
12355TIP3    H258481   0.791   6.677   2.299  0.7944  1.7630 -1.3925
12356TIP3   OH258482   4.876   4.801   3.580 -0.1068  0.0264  0.1786
12356TIP3    H158483   4.860   4.719   3.534 -0.5649 -1.0309  2.0837
12356TIP3    H258484   4.789   4.830   3.608 -0.0263  1.5683 -1.0526
12357TIP3   OH258485   3.747   6.458  11.160  0.0831  0.3224  0.2010
12357TIP3    H158486   3.741   6.401  11.237 -0.0198  2.0985  1.5589
12357TIP3    H258487   3.656   6.479  11.139  0.0041 -1.4547 -1.4703
12358TIP3   OH258488   1.071   1.451   1.083 -0.6115  0.9498  0.5672
12358TIP3    H158489   1.024   1.378   1.124 -1.5564  1.2977  0.1288
12358TIP3    H258490   1.012   1.526   1.094  0.0457  1.4925  0.4021
12359TIP3   OH258491   2.106   4.329   1.345  0.4341 -0.0607 -0.4467
12359TIP3    H158492   2.030   4.349   1.290 -1.2151 -1.2769  1.2558
12359TIP3    H258493   2.182   4.351   1.290 -1.0745  3.3938 -1.4214
12360TIP3   OH258494   4.035   2.159   5.672  0.3300 -0.4359  0.5529
12360TIP3    H158495   3.944   2.170   5.700  0.0127  0.8899 -0.8754
12360TIP3    H258496   4.031   2.093   5.603  0.3882 -0.1047  0.2288
12361TIP3   OH258497   4.646   2.657   6.021 -0.2221  1.2215 -0.4300
12361TIP3    H158498   4.685   2.671   6.107 -0.5969  0.4174 -0.1250
12361TIP3    H258499   4.591   2.580   6.031 -0.5372  1.3163 -1.3058
12362TIP3   OH258500   1.832   4.373  16.183 -0.3482  0.3609  0.4794
12362TIP3    H158501   1.835   4.432  16.258  0.1285  0.2494  0.5515
12362TIP3    H258502   1.800   4.427  16.111 -2.8946 -0.0474  1.2229
12363TIP3   OH258503   3.199   3.742   6.123  0.9365 -0.3117  0.0931
12363TIP3    H158504   3.134   3.810   6.140  2.1913  0.3626  2.7112
12363TIP3    H258505   3.217   3.704   6.208  1.9314 -2.4261 -0.9837
12364TIP3   OH258506   5.206   0.842  13.254 -0.1871 -0.9078 -0.3748
12364TIP3    H158507   5.214   0.927  13.211  0.1253 -0.3518  0.7267
12364TIP3    H258508   5.223   0.778  13.185 -0.6802 -0.0886 -1.2802
12365TIP3   OH258509   3.863   0.045   1.008  0.3211  0.0170  0.2712
12365TIP3    H158510   3.772   0.053   0.978  0.6253 -0.8412 -0.9398
12365TIP3    H258511   3.889   0.135   1.027 -0.5620  0.3514 -0.0197
12366TIP3   OH258512   5.149   4.326   5.733 -0.4478 -0.1118  0.2217
12366TIP3    H158513   5.095   4.288   5.802  0.3698  1.2927  1.7160
12366TIP3    H258514   5.093   4.392   5.692 -0.4573  0.1079  0.5829
12367TIP3   OH258515   3.253   1.745   3.792 -0.0851  0.3095 -0.3210
12367TIP3    H158516   3.198   1.705   3.860 -0.3662 -0.8187 -1.1772
12367TIP3    H258517   3.332   1.772   3.838 -0.3943 -0.1582  0.5125
12368TIP3   OH258518   5.632   5.749  15.972 -0.3065 -0.0451 -0.1499
12368TIP3    H158519   5.727   5.744  15.975 -0.0796  2.8197  0.1036
12368TIP3    H258520   5.611   5.780  15.884 -0.9806 -0.1066 -0.0208
12369TIP3   OH258521   5.079   3.274  15.273  0.3968 -0.0477 -0.2670
12369TIP3    H158522   5.129   3.213  15.218 -0.6124 -0.8586 -0.3234
12369TIP3    H258523   5.124   3.272  15.358  0.7430 -0.3896 -0.4561
12370TIP3   OH258524   5.220   2.950   5.840 -0.3728  0.1194  0.1155
12370TIP3    H158525   5.257   3.008   5.905 -1.2591  0.6203  0.1945
12370TIP3    H258526   5.295   2.919   5.789  0.2531  0.2287  0.9566
12371TIP3   OH258527   0.387   1.931   4.366  0.0963 -0.1107  0.4310
12371TIP3    H158528   0.326   1.936   4.439  1.3828 -0.1474  1.5400
12371TIP3    H258529   0.362   1.852   4.319 -1.2632  0.3435  0.3212
12372TIP3   OH258530   3.375   4.045  13.344 -0.3681 -0.0715 -0.5897
12372TIP3    H158531   3.389   4.049  13.250 -0.5479 -1.1812 -0.6773
12372TIP3    H258532   3.462   4.028  13.381 -0.4239 -0.4855 -0.6354
12373TIP3   OH258533   2.679   2.437   2.259  0.2726  0.4293  0.2185
12373TIP3    H158534   2.696   2.523   2.221  0.0708  0.0797 -0.7003
12373TIP3    H258535   2.756   2.385   2.236 -0.3895 -0.1314 -0.8107
12374TIP3   OH258536   3.091   2.825   0.771  0.0626 -1.0051 -0.4156
12374TIP3    H158537   3.006   2.839   0.729 -0.1249 -0.1629  0.2291
12374TIP3    H258538   3.118   2.912   0.801  1.3602 -1.1694 -0.9862
12375TIP3   OH258539   3.038   5.869   0.539 -0.5295 -0.1292  0.5455
12375TIP3    H158540   2.958   5.916   0.512 -1.7922  0.1679  4.2002
12375TIP3    H258541   3.064   5.912   0.620 -0.0150 -3.7827  2.5304
12376TIP3   OH258542   5.064   0.019   2.918 -0.6079  0.1461 -0.2533
12376TIP3    H158543   5.133  -0.019   2.971  0.9426  1.1917 -1.4393
12376TIP3    H258544   5.039  -0.051   2.857  0.6108  0.2728 -0.9193
12377TIP3   OH258545   4.091   6.364   5.824  0.5152 -0.7041  0.0542
12377TIP3    H158546   4.038   6.371   5.745 -0.9516 -0.3282  1.0251
12377TIP3    H258547   4.118   6.454   5.842  0.1486 -0.6635  0.4228
12378TIP3   OH258548   4.087   1.296  13.815  0.5265 -0.0771 -0.3469
12378TIP3    H158549   3.995   1.295  13.842  0.5729 -1.2870 -0.1717
12378TIP3    H258550   4.126   1.367  13.865 -0.1736  0.0076  0.0921
12379TIP3   OH258551   6.177   5.524  11.025  0.2571 -0.1942 -0.8026
12379TIP3    H158552   6.256   5.540  11.076 -1.1585  1.3193  1.0624
12379TIP3    H258553   6.148   5.437  11.052  0.2595  0.0449 -0.0126
12380TIP3   OH258554   4.721   4.424  10.486 -0.5168  0.0252  0.6826
12380TIP3    H158555   4.632   4.410  10.453 -0.0755 -1.7840  0.1390
12380TIP3    H258556   4.772   4.351  10.450  1.2120  1.0507  0.9276
12381TIP3   OH258557   6.594   5.242   5.787  0.6130 -0.1607 -0.4624
12381TIP3    H158558   6.646   5.207   5.860  0.1346  0.6526  0.2878
12381TIP3    H258559   6.612   5.336   5.787 -1.2298  0.2436  0.1670
12382TIP3   OH258560   3.305   5.346  12.758  0.9560 -0.0533 -0.2576
12382TIP3    H158561   3.360   5.407  12.707  0.5159  0.0820 -0.5782
12382TIP3    H258562   3.238   5.318  12.696 -0.6445  1.4624  0.7032
12383TIP3   OH258563   6.321   3.204   4.573  0.1936  0.5438 -0.4120
12383TIP3    H158564   6.304   3.297   4.584 -0.4191  0.3364  0.5459
12383TIP3    H258565   6.406   3.190   4.616 -0.8764  0.2463  1.7269
12384TIP3   OH258566   5.905   1.713   1.375 -0.0384 -0.1220 -0.2267
12384TIP3    H158567   5.828   1.668   1.409 -0.4322  0.5696 -0.1709
12384TIP3    H258568   5.942   1.653   1.310 -1.2252 -0.0302 -1.0108
12385TIP3   OH258569   2.375   6.019  10.438  0.1956  0.4043 -0.9733
12385TIP3    H158570   2.428   6.098  10.426  2.1847 -0.4509  1.3806
12385TIP3    H258571   2.290   6.041  10.399  1.5295  2.6469 -2.9149
12386TIP3   OH258572   2.265   6.253   2.336 -0.1503  0.4950 -0.3675
12386TIP3    H158573   2.346   6.243   2.286 -0.3304 -2.6524 -0.2537
12386TIP3    H258574   2.294   6.259   2.427  0.0058 -0.1740 -0.3654
12387TIP3   OH258575   4.284   3.746   2.867  0.2506  0.3189  0.3807
12387TIP3    H158576   4.355   3.799   2.902  0.4631  0.4214 -0.2058
12387TIP3    H258577   4.208   3.804   2.867  0.3388  0.4328  0.3228
12388TIP3   OH258578   3.138   0.500  16.086  0.6327 -0.2093  0.1612
12388TIP3    H158579   3.150   0.576  16.142  0.6698  0.1239 -0.2960
12388TIP3    H258580   3.225   0.462  16.078  0.5412 -0.5615  0.7486
12389TIP3   OH258581   2.789   3.531   4.624 -0.5348 -0.0743  0.5059
12389TIP3    H158582   2.881   3.521   4.598 -0.7077  0.8250 -0.5151
12389TIP3    H258583   2.755   3.600   4.567 -1.6768  0.0724  1.3259
12390TIP3   OH258584   6.034   3.523   5.976  0.3548  0.2666  0.2034
12390TIP3    H158585   6.066   3.609   6.004  1.1769  0.0396 -0.0085
12390TIP3    H258586   5.962   3.504   6.036 -1.2244  2.0011 -1.0308
12391TIP3   OH258587   4.778   2.359   2.521 -0.2496  0.1408 -0.1911
12391TIP3    H158588   4.776   2.330   2.430  0.3013 -0.6213  0.0312
12391TIP3    H258589   4.806   2.450   2.517 -1.3683  0.4808 -0.8567
12392TIP3   OH258590   4.062   6.549   4.705  0.8107  0.5852 -1.1564
12392TIP3    H158591   4.018   6.540   4.621  0.1135 -1.9871 -0.6085
12392TIP3    H258592   4.138   6.491   4.699  0.1194 -0.5597  0.3174
12393TIP3   OH258593   0.334   4.909  13.172  0.7646  0.2132  0.0008
12393TIP3    H158594   0.287   4.955  13.242  1.5657 -0.4109  0.9699
12393TIP3    H258595   0.395   4.851  13.218  0.6924 -0.8596 -1.2104
12394TIP3   OH258596   6.656   1.236  12.718 -0.1370 -0.2480 -0.2765
12394TIP3    H158597   6.562   1.236  12.736 -0.4530 -3.5249 -1.3101
12394TIP3    H258598   6.671   1.318  12.671 -2.0345  1.3246  1.6679
12395TIP3   OH258599   5.297   6.570  12.436  0.1923  0.0796 -0.0132
12395TIP3    H158600   5.345   6.653  12.440 -0.2837  0.3183  1.6678
12395TIP3    H258601   5.211   6.594  12.402 -0.0248  0.3448  0.6920
12396TIP3   OH258602   2.756   6.276  11.915 -0.4300 -0.1837 -0.6088
12396TIP3    H158603   2.784   6.226  11.839  0.7022 -0.3091 -0.1421
12396TIP3    H258604   2.819   6.348  11.921 -0.1270 -0.5111  0.5334
12397TIP3   OH258605   0.939   0.316  11.851 -0.0027  1.0219 -0.5679
12397TIP3    H158606   0.851   0.326  11.815  0.0083  1.6131 -0.4378
12397TIP3    H258607   0.981   0.252  11.794 -0.9334 -0.2688  0.1421
12398TIP3   OH258608   6.204   3.035   2.755  0.3437  0.1238  0.1941
12398TIP3    H158609   6.150   3.104   2.717 -0.6130 -0.3186  0.7114
12398TIP3    H258610   6.173   2.954   2.714  1.8542  0.0369 -0.8467
12399TIP3   OH258611   4.883   1.828   4.696 -0.2284 -0.2964 -0.1568
12399TIP3    H158612   4.840   1.852   4.614 -1.4633  2.3757  1.1407
12399TIP3    H258613   4.828   1.759   4.733 -0.8986  0.0124 -0.5643
12400TIP3   OH258614   2.785   1.321   2.727  0.1006  0.2559  0.1673
12400TIP3    H158615   2.805   1.414   2.735  0.6124  0.1077  0.7412
12400TIP3    H258616   2.693   1.318   2.699  0.0541  0.9278  0.2356
12401TIP3   OH258617   4.418   5.634   3.974 -1.0059  0.2300  0.1858
12401TIP3    H158618   4.488   5.593   3.923 -0.6785  0.5277  0.3904
12401TIP3    H258619   4.374   5.692   3.912  2.1374  4.0572  1.1275
12402TIP3   OH258620   4.584   0.930   4.782 -0.1123  0.0571 -0.0700
12402TIP3    H158621   4.584   1.013   4.735  2.3051 -0.0820 -0.4081
12402TIP3    H258622   4.633   0.947   4.862 -1.3121 -0.5666  0.8280
12403TIP3   OH258623   1.308   5.448   3.676  0.1725  0.4478  0.2552
12403TIP3    H158624   1.294   5.354   3.665  0.0666  0.2555  1.8881
12403TIP3    H258625   1.366   5.472   3.603 -2.2046 -0.2509 -2.0194
12404TIP3   OH258626   0.709   1.371  12.305  0.2709  0.6047  0.0713
12404TIP3    H158627   0.786   1.398  12.355 -0.7145  1.7521  1.0283
12404TIP3    H258628   0.637   1.424  12.341 -1.4567 -2.0683  0.8884
12405TIP3   OH258629   2.540   4.261   3.417  0.0935 -0.1218  0.1016
12405TIP3    H158630   2.623   4.240   3.374  0.5150  1.6289 -0.0087
12405TIP3    H258631   2.522   4.352   3.392 -1.1407 -0.0183  1.2581
12406TIP3   OH258632   2.040   1.153   2.887  0.5237  0.0367  0.4040
12406TIP3    H158633   2.007   1.231   2.932  0.3098 -0.5396  1.2723
12406TIP3    H258634   1.984   1.143   2.810  0.0424  0.2781  0.7222
12407TIP3   OH258635   5.317   4.834  14.125 -0.3285  0.0655  0.4242
12407TIP3    H158636   5.305   4.833  14.030  1.5833 -0.7801  0.1604
12407TIP3    H258637   5.281   4.919  14.152 -1.2098  0.1855 -0.9810
12408TIP3   OH258638   3.157   5.918   3.286 -0.1195 -0.0916 -0.0503
12408TIP3    H158639   3.244   5.879   3.289  0.0229  0.2745  1.3604
12408TIP3    H258640   3.167   6.004   3.327 -1.3264 -0.4785  1.1565
12409TIP3   OH258641   5.613   4.368   6.326  0.2188 -0.3291 -0.0579
12409TIP3    H158642   5.560   4.298   6.289 -0.0542  0.1196 -0.5310
12409TIP3    H258643   5.647   4.332   6.408  1.2958 -1.5489 -0.9901
12410TIP3   OH258644   3.801   2.402  16.925 -0.1552 -0.1740  0.3828
12410TIP3    H158645   3.746   2.382  16.849  0.3961 -2.4018  0.5064
12410TIP3    H258646   3.874   2.453  16.889 -1.4498  1.4867 -0.0247
12411TIP3   OH258647   2.648   4.741   0.127 -0.2405  0.2942  0.3824
12411TIP3    H158648   2.592   4.698   0.192  0.0821 -0.6583  0.0497
12411TIP3    H258649   2.698   4.805   0.177  0.8867 -1.2464  1.3211
12412TIP3   OH258650   2.698   2.084   5.856 -0.6564  0.2359  0.0200
12412TIP3    H158651   2.769   2.020   5.861 -1.0830 -0.3812 -1.3213
12412TIP3    H258652   2.712   2.141   5.931 -0.3959 -1.5610  1.3971
12413TIP3   OH258653   6.358   5.425  13.952  0.4678 -0.3872 -0.2825
12413TIP3    H158654   6.396   5.338  13.965  0.2126 -0.2285  1.8352
12413TIP3    H258655   6.273   5.420  13.996  1.2734  1.4687  1.6439
12414TIP3   OH258656   3.905   5.670   4.462  0.1966  0.1847  0.5380
12414TIP3    H158657   3.974   5.648   4.525  1.3259  1.9581 -0.0060
12414TIP3    H258658   3.857   5.741   4.504 -1.1086 -0.7772  0.7380
12415TIP3   OH258659   6.554   2.257  16.495  0.4866 -0.6933  0.4370
12415TIP3    H158660   6.459   2.262  16.486  0.4348  0.3367  1.3355
12415TIP3    H258661   6.586   2.338  16.454  0.8738 -0.3993  1.3064
12416TIP3   OH258662   6.769   1.120  11.470  0.0980  0.3529  1.0889
12416TIP3    H158663   6.808   1.078  11.394 -1.0554  1.2075 -0.0112
12416TIP3    H258664   6.690   1.162  11.437 -0.3569  0.8839  2.7321
12417TIP3   OH258665   0.722   3.742   1.391  0.6520  0.1324 -0.2151
12417TIP3    H158666   0.718   3.658   1.438  1.7136  0.3906  0.3743
12417TIP3    H258667   0.665   3.800   1.441 -0.1570 -0.2534 -0.6760
12418TIP3   OH258668   2.871   1.757   1.962  0.5236 -0.5803 -0.8315
12418TIP3    H158669   2.945   1.818   1.955  1.1545 -0.8904  1.9292
12418TIP3    H258670   2.902   1.677   1.920  0.3413  0.3753 -2.9175
12419TIP3   OH258671   5.101   3.108   5.675 -0.2967 -0.1032 -0.2237
12419TIP3    H158672   5.161   3.118   5.601 -1.6240  0.3461 -1.2839
12419TIP3    H258673   5.146   3.048   5.734  0.9940 -0.1313 -1.1828
12420TIP3   OH258674   4.850   5.533   5.507  1.1592 -0.1957 -0.0609
12420TIP3    H158675   4.856   5.562   5.598  0.8879 -0.8554  0.1718
12420TIP3    H258676   4.923   5.577   5.463  2.5624 -1.4568  0.9142
12421TIP3   OH258677   3.304   1.317  16.185  0.3231  0.0264  0.2676
12421TIP3    H158678   3.328   1.276  16.102  2.0090 -2.7559  1.9476
12421TIP3    H258679   3.375   1.293  16.245 -1.0881  1.4157  2.6574
12422TIP3   OH258680   4.840   6.065  12.161  0.4985  0.0667 -0.2113
12422TIP3    H158681   4.848   6.136  12.226  1.7778  0.1146 -0.3984
12422TIP3    H258682   4.822   6.110  12.078  1.2313  0.1771 -0.3149
12423TIP3   OH258683   1.619   4.438   1.801  0.4782 -0.2601 -0.0544
12423TIP3    H158684   1.623   4.415   1.708 -0.0810 -2.0681  0.3210
12423TIP3    H258685   1.594   4.530   1.802 -0.6484 -0.4943 -1.6945
12424TIP3   OH258686   6.387   4.823   2.386  0.1906 -0.4519  0.1172
12424TIP3    H158687   6.414   4.855   2.300 -0.6536 -3.2269 -1.3085
12424TIP3    H258688   6.292   4.835   2.387  0.4033  1.5981  1.6552
12425TIP3   OH258689   0.893   4.980   4.738  0.2425  0.2953  0.1418
12425TIP3    H158690   0.943   4.933   4.672 -0.1422 -1.8168  1.2515
12425TIP3    H258691   0.827   5.029   4.688  0.8850 -0.0666 -1.0973
12426TIP3   OH258692   5.678   4.829   6.095 -0.3674 -0.6542 -0.4369
12426TIP3    H158693   5.669   4.896   6.164 -1.6808 -0.7531 -0.4882
12426TIP3    H258694   5.697   4.748   6.143  2.1615 -0.1299 -0.4259
12427TIP3   OH258695   5.487   2.227  14.808 -0.0129  0.4671  0.0016
12427TIP3    H158696   5.408   2.183  14.840  0.7240 -1.6490 -0.8562
12427TIP3    H258697   5.505   2.184  14.724  2.7185 -0.0261  0.7333
12428TIP3   OH258698   0.427   0.522   0.091  0.2943  0.4605  0.1680
12428TIP3    H158699   0.460   0.539   0.002  1.2207 -1.6732  0.0272
12428TIP3    H258700   0.481   0.449   0.122 -0.3228  0.8724  2.3362
12429TIP3   OH258701   5.588   2.208  10.940 -0.1328 -0.2682 -0.1802
12429TIP3    H158702   5.535   2.252  10.874  0.6537 -0.3259 -0.8681
12429TIP3    H258703   5.524   2.169  11.000 -0.8739 -0.4710 -1.0758
12430TIP3   OH258704   5.650   2.066  14.299 -0.2726 -0.8506 -0.4277
12430TIP3    H158705   5.674   2.014  14.223 -1.0523  0.4306 -1.5878
12430TIP3    H258706   5.616   2.148  14.263 -0.8191 -0.2712  1.2923
12431TIP3   OH258707   3.963   5.377  16.398  0.3973  0.5002  0.0197
12431TIP3    H158708   4.013   5.390  16.318  1.1466 -0.9574  0.2044
12431TIP3    H258709   4.006   5.433  16.463  0.0642  1.3418 -0.4686
12432TIP3   OH258710   0.304   6.125  15.863 -0.2399 -0.5681 -0.5778
12432TIP3    H158711   0.349   6.090  15.940  0.7817  0.8570 -0.4994
12432TIP3    H258712   0.236   6.060  15.844  0.9797 -2.1080  0.1083
12433TIP3   OH258713   1.630   4.562  12.098 -0.5725 -0.4942  0.7050
12433TIP3    H158714   1.641   4.646  12.142 -0.6275 -0.7636  1.2409
12433TIP3    H258715   1.648   4.497  12.166 -1.3281 -0.9205  0.5122
12434TIP3   OH258716   4.439   6.062   5.653 -0.2793  0.2009 -0.2359
12434TIP3    H158717   4.400   6.079   5.739 -0.2366 -1.0222  0.0425
12434TIP3    H258718   4.476   6.146   5.626 -1.7033  1.0048  0.2093
12435TIP3   OH258719   4.654   6.474   3.601  0.0666 -0.2089  0.3171
12435TIP3    H158720   4.615   6.560   3.616  0.7136  0.3703 -1.1728
12435TIP3    H258721   4.614   6.444   3.520  0.5233 -0.9245  0.3495
12436TIP3   OH258722   1.205   6.398  16.396  0.1089 -0.7203 -0.3333
12436TIP3    H158723   1.239   6.402  16.485  1.4145  0.5710 -0.8520
12436TIP3    H258724   1.279   6.369  16.343 -0.7923 -1.9714 -0.9532
12437TIP3   OH258725   4.707   6.032   2.907  0.3060  0.5186  0.0536
12437TIP3    H158726   4.756   6.061   2.830  0.8938 -1.2540 -0.2956
12437TIP3    H258727   4.742   5.945   2.926 -1.3972 -0.0145  0.9587
12438TIP3   OH258728   3.654   5.209  16.420 -0.4986  0.1736 -0.3886
12438TIP3    H158729   3.647   5.133  16.362 -0.7572 -1.6260  1.8430
12438TIP3    H258730   3.722   5.184  16.483 -1.5317  1.2049  1.1917
12439TIP3   OH258731   5.072   0.740   1.619 -0.1959  0.1957  0.7931
12439TIP3    H158732   5.009   0.669   1.609 -0.1418  0.4086 -1.4417
12439TIP3    H258733   5.155   0.696   1.637 -0.5617 -0.1703  1.6716
12440TIP3   OH258734   5.880   5.882   5.250  0.2793 -0.2564  0.3638
12440TIP3    H158735   5.862   5.874   5.156 -1.0478  0.1128  0.5647
12440TIP3    H258736   5.877   5.792   5.283 -0.2486 -0.3009  0.2082
12441TIP3   OH258737   0.598   2.902  14.016 -0.2018  0.5565 -0.7379
12441TIP3    H158738   0.627   2.820  13.976  0.1533  0.3796 -0.1436
12441TIP3    H258739   0.550   2.947  13.947 -2.2414 -1.0787 -0.4682
12442TIP3   OH258740   4.598   5.174  15.877 -0.6132  0.0875 -0.1347
12442TIP3    H158741   4.604   5.202  15.968  0.5041  2.0220 -0.7623
12442TIP3    H258742   4.516   5.123  15.873 -0.0003 -1.2059  2.2009
12443TIP3   OH258743   5.362   4.224   0.651  0.0647 -0.1808  0.0295
12443TIP3    H158744   5.268   4.243   0.660 -0.3678 -1.5479 -1.2089
12443TIP3    H258745   5.391   4.205   0.740 -1.1746 -1.1423  0.2546
12444TIP3   OH258746   5.681   5.902  11.693  0.4304  0.5273  0.5996
12444TIP3    H158747   5.672   5.843  11.768 -0.8605  1.1041  0.9190
12444TIP3    H258748   5.696   5.988  11.732 -3.8451  1.5601  0.4691
12445TIP3   OH258749   3.303   0.939   5.996 -0.1201  0.2365 -0.6113
12445TIP3    H158750   3.317   0.980   6.082 -1.5608  3.4487 -1.7638
12445TIP3    H258751   3.220   0.892   6.006  1.0561 -1.7589  0.4398
12446TIP3   OH258752   2.947   4.007   3.192 -0.3194  0.1392 -0.6598
12446TIP3    H158753   2.895   3.931   3.219 -0.5318  0.3138 -0.5721
12446TIP3    H258754   3.035   3.989   3.226 -0.4805  0.1548 -0.2263
12447TIP3   OH258755   1.304   4.680  13.584 -0.4939  0.1183  0.5455
12447TIP3    H158756   1.288   4.588  13.566  0.2249  0.0075  0.4681
12447TIP3    H258757   1.304   4.722  13.498  0.7112 -0.0573  0.4508
12448TIP3   OH258758   6.672   6.085  15.359  0.7700  0.8110  0.3990
12448TIP3    H158759   6.662   6.069  15.452 -1.3022  0.3948  0.1424
12448TIP3    H258760   6.742   6.025  15.332  0.5493  0.0478  1.4661
12449TIP3   OH258761   5.143   4.290   4.218  0.4430 -0.1239  0.4650
12449TIP3    H158762   5.196   4.354   4.169 -0.5901  2.0235  1.9949
12449TIP3    H258763   5.172   4.299   4.309  0.0644 -1.6626  0.7604
12450TIP3   OH258764   4.415   5.704  10.683  0.8640  0.5437 -0.1682
12450TIP3    H158765   4.325   5.730  10.703  0.7748  0.0697  0.0725
12450TIP3    H258766   4.469   5.775  10.718  0.7105 -0.2229  1.7264
12451TIP3   OH258767   0.613   4.265   3.375  0.3353 -0.2632 -0.0298
12451TIP3    H158768   0.702   4.281   3.406  1.3882 -3.2489 -1.2347
12451TIP3    H258769   0.598   4.333   3.308  1.5471  0.4543  0.4019
12452TIP3   OH258770   5.524   4.861   3.075  0.0597 -0.4098  0.2684
12452TIP3    H158771   5.512   4.871   3.169 -0.5523  1.1423  0.0626
12452TIP3    H258772   5.436   4.867   3.038  0.4769  1.8003 -0.5699
12453TIP3   OH258773   0.322   5.431  12.320  1.0295 -0.1345 -0.3221
12453TIP3    H158774   0.350   5.356  12.267  2.0606  0.8228 -1.1606
12453TIP3    H258775   0.237   5.455  12.283  1.3768  0.0243 -1.0340
12454TIP3   OH258776   0.120   3.442  12.059  0.1463 -0.4203  0.0178
12454TIP3    H158777   0.198   3.411  12.014 -0.5108 -1.2883 -0.5378
12454TIP3    H258778   0.146   3.449  12.151  0.7508 -1.1302 -0.0947
12455TIP3   OH258779   0.195   0.575   3.104  0.3506 -0.0222 -0.4209
12455TIP3    H158780   0.119   0.596   3.159  0.8601  0.6693  0.0271
12455TIP3    H258781   0.271   0.592   3.160  0.8349 -1.4718 -0.5898
12456TIP3   OH258782   2.761   2.679   2.156  0.0038 -0.3537 -0.1890
12456TIP3    H158783   2.787   2.621   2.084  1.8326  0.9808 -0.6650
12456TIP3    H258784   2.721   2.754   2.113 -0.4076 -0.2824  0.3070
12457TIP3   OH258785   4.812   0.806   5.360  0.1827  0.3450  0.8104
12457TIP3    H158786   4.857   0.780   5.280  1.0020  0.9299  1.0708
12457TIP3    H258787   4.745   0.738   5.373 -0.2267  0.4574 -0.5708
12458TIP3   OH258788   5.695   4.975   3.918  0.0030 -0.8912  0.6790
12458TIP3    H158789   5.732   5.015   3.997 -0.1641 -0.7832  0.7021
12458TIP3    H258790   5.627   5.036   3.889  0.0642 -0.9294  0.4509
12459TIP3   OH258791   3.554   5.416   2.263  0.2343 -0.0008  0.1307
12459TIP3    H158792   3.586   5.479   2.199  0.7847 -0.4718 -0.0686
12459TIP3    H258793   3.632   5.368   2.290 -0.2702 -1.0515 -0.2276
12460TIP3   OH258794   1.671   3.223   4.772  0.1306 -0.2336  0.1043
12460TIP3    H158795   1.731   3.238   4.845 -0.9182  2.8128  0.4657
12460TIP3    H258796   1.592   3.186   4.812 -0.0195  0.3521  0.3505
12461TIP3   OH258797   5.173   3.779   1.917  0.2523  0.4802 -0.2440
12461TIP3    H158798   5.134   3.711   1.861  0.8114 -0.8631  0.9201
12461TIP3    H258799   5.267   3.773   1.900  0.2665  1.2736 -0.4512
12462TIP3   OH258800   3.301   3.512   2.249  0.5328 -1.4976  0.2256
12462TIP3    H158801   3.254   3.482   2.327 -0.4652 -0.7658 -0.0742
12462TIP3    H258802   3.392   3.519   2.277  0.1020 -0.7266  1.4830
12463TIP3   OH258803   3.708   5.708   5.625  0.1214  0.1031 -0.3865
12463TIP3    H158804   3.782   5.676   5.677  0.6195 -0.6080 -1.5005
12463TIP3    H258805   3.646   5.741   5.690  1.9539  1.9477  0.5292
12464TIP3   OH258806   0.662   0.883  10.712  0.0468  0.3834 -0.2541
12464TIP3    H158807   0.643   0.932  10.632  1.3544  2.1293  0.4407
12464TIP3    H258808   0.758   0.883  10.719 -0.0406  0.8968  1.6582
12465TIP3   OH258809   6.631   5.799  12.266 -0.0628  0.5430 -0.2354
12465TIP3    H158810   6.713   5.830  12.303 -0.4785 -0.2651  1.4455
12465TIP3    H258811   6.658   5.740  12.195  0.8550 -0.3969  0.8536
12466TIP3   OH258812   3.827   5.105   2.618  0.6954  0.7965 -0.2183
12466TIP3    H158813   3.787   5.181   2.661  0.1104  0.7613 -0.6776
12466TIP3    H258814   3.758   5.039   2.618  1.5501 -0.1301  1.1400
12467TIP3   OH258815   5.398   5.115  11.444 -0.5923 -0.0971  0.2612
12467TIP3    H158816   5.433   5.137  11.531 -4.4964  2.5828  1.4608
12467TIP3    H258817   5.429   5.186  11.388  1.0113 -1.2284 -0.3455
12468TIP3   OH258818   3.755   3.114  14.333 -0.0662  0.5328  0.2665
12468TIP3    H158819   3.712   3.194  14.302 -1.0734 -0.2345 -0.3772
12468TIP3    H258820   3.823   3.145  14.393 -1.2097  1.8135  0.9607
12469TIP3   OH258821   0.328   2.846  14.493 -0.0100  0.1689  0.5101
12469TIP3    H158822   0.284   2.900  14.428 -1.5369 -0.4092  1.0174
12469TIP3    H258823   0.310   2.756  14.465  0.3555 -0.0732  1.0487
12470TIP3   OH258824   4.241   0.756   1.910 -0.2960  0.2839 -0.0525
12470TIP3    H158825   4.159   0.711   1.929  0.3679 -1.8635 -1.9099
12470TIP3    H258826   4.308   0.706   1.957  0.4221 -0.6362 -1.9440
12471TIP3   OH258827   1.531   1.604  10.447  0.2932 -0.1269 -0.4158
12471TIP3    H158828   1.505   1.516  10.421 -0.5032  0.4260 -1.5733
12471TIP3    H258829   1.571   1.642  10.369  0.1488  0.7220 -0.0926
12472TIP3   OH258830   4.016   2.333  13.996  0.7420  0.3348  0.7099
12472TIP3    H158831   3.994   2.351  14.087 -1.4052 -1.5688  0.6678
12472TIP3    H258832   3.934   2.303  13.957  1.8580  0.0182 -1.5657
12473TIP3   OH258833   0.896   2.326   4.598  0.6379 -0.2019 -0.0920
12473TIP3    H158834   0.971   2.319   4.658  0.7821 -0.6007 -0.3162
12473TIP3    H258835   0.843   2.249   4.618  1.2249 -0.9148 -1.2067
12474TIP3   OH258836   4.312   4.805   1.851  0.8812  0.5221 -0.6162
12474TIP3    H158837   4.379   4.870   1.875  0.5012  1.2469 -1.4696
12474TIP3    H258838   4.247   4.855   1.802 -1.4799  0.3240  2.0854
12475TIP3   OH258839   0.916   4.199  15.727 -0.2734  0.1023  0.0604
12475TIP3    H158840   0.896   4.224  15.637  0.8466  3.1141  0.5413
12475TIP3    H258841   0.887   4.274  15.780 -1.4137 -1.8051  2.3204
12476TIP3   OH258842   3.589   1.771   0.494  0.6863  0.0333 -0.0082
12476TIP3    H158843   3.681   1.748   0.496  0.4526 -1.4443 -2.2146
12476TIP3    H258844   3.543   1.692   0.521  0.0454 -0.2615 -1.7776
12477TIP3   OH258845   2.000   3.309  13.463  0.0207  0.3713 -0.6915
12477TIP3    H158846   2.030   3.292  13.374  0.8062 -0.1024 -0.3506
12477TIP3    H258847   1.958   3.395  13.459 -0.4184  0.1167 -1.6215
12478TIP3   OH258848   5.073   4.176  13.019  0.0802  0.3680  0.0997
12478TIP3    H158849   5.078   4.086  12.988 -0.0550 -0.0371  1.1919
12478TIP3    H258850   5.149   4.186  13.078  1.7199  1.8457 -2.0740
12479TIP3   OH258851   5.625   5.445   0.552 -0.2888 -0.2339 -0.1235
12479TIP3    H158852   5.639   5.435   0.458 -0.4541  0.2515 -0.2006
12479TIP3    H258853   5.660   5.531   0.573 -1.9659  0.4812 -0.0956
12480TIP3   OH258854   4.361   1.885  15.167 -0.0338 -0.0898 -0.6043
12480TIP3    H158855   4.358   1.960  15.107 -1.6805  0.3880  0.0126
12480TIP3    H258856   4.381   1.923  15.253  1.9907 -0.7317 -0.7434
12481TIP3   OH258857   6.227   6.623   4.965  0.1436  0.6909  0.2901
12481TIP3    H158858   6.225   6.655   5.056 -0.0723 -1.1351  0.9686
12481TIP3    H258859   6.276   6.690   4.917  1.2198  1.1841  1.9783
12482TIP3   OH258860   2.795   5.720  11.716  0.0709  0.0834 -0.1590
12482TIP3    H158861   2.878   5.677  11.696  0.5432  1.3953 -1.1715
12482TIP3    H258862   2.809   5.812  11.694 -1.3234  0.5386  0.6667
12483TIP3   OH258863   4.851   0.727  14.196  0.1351  0.6049  0.0753
12483TIP3    H158864   4.844   0.651  14.139 -0.5632  1.6562 -1.3079
12483TIP3    H258865   4.840   0.802  14.138  0.7315  1.7755  1.4039
12484TIP3   OH258866   1.851   5.847  14.383  0.3316  0.0334 -0.0084
12484TIP3    H158867   1.831   5.859  14.475 -0.0338 -1.5225  0.1431
12484TIP3    H258868   1.790   5.905  14.337 -0.1476  0.0831  0.6819
12485TIP3   OH258869   3.780   6.552   1.221  0.0579 -1.0068  0.2515
12485TIP3    H158870   3.779   6.585   1.131 -2.8537 -1.7586 -0.1050
12485TIP3    H258871   3.836   6.475   1.218  2.9424  0.9467 -0.0063
12486TIP3   OH258872   6.702   2.819  16.885  0.3037 -0.6804  0.1287
12486TIP3    H158873   6.719   2.901  16.933 -2.4765  0.4979 -0.6713
12486TIP3    H258874   6.606   2.817  16.876  0.5246 -2.0206 -3.3012
12487TIP3   OH258875   0.311   4.696   3.701 -0.0333 -0.6358  0.1324
12487TIP3    H158876   0.289   4.677   3.792 -0.2021 -0.6811  0.0815
12487TIP3    H258877   0.363   4.777   3.705 -2.5350  1.1053  0.0206
12488TIP3   OH258878   3.506   0.828  12.479 -0.3395 -0.4955 -0.4349
12488TIP3    H158879   3.551   0.755  12.522  3.0074  0.8816 -1.3267
12488TIP3    H258880   3.427   0.788  12.442  0.3600 -3.2264  0.7174
12489TIP3   OH258881   3.780   2.884   1.338 -0.0219  0.1700  0.7233
12489TIP3    H158882   3.811   2.969   1.306  1.4279 -0.5211  0.2131
12489TIP3    H258883   3.711   2.859   1.276 -0.5673  1.0314  0.9685
12490TIP3   OH258884   1.897   6.732   1.973  0.3814  0.5586  0.1941
12490TIP3    H158885   1.899   6.827   1.968  0.5860  0.5316 -0.3705
12490TIP3    H258886   1.921   6.703   1.885  2.6695 -0.0288  0.9299
12491TIP3   OH258887   5.915   6.369  16.540 -0.5019  0.4692 -0.3348
12491TIP3    H158888   5.895   6.450  16.492 -0.9556  0.4608 -0.1645
12491TIP3    H258889   5.861   6.302  16.497  2.0305 -0.4061 -2.4319
12492TIP3   OH258890   0.686   4.403  13.877 -0.5088  0.3340 -0.2767
12492TIP3    H158891   0.630   4.340  13.924 -1.1009  0.8829 -0.2300
12492TIP3    H258892   0.731   4.450  13.947 -0.4312  0.2906 -0.2976
12493TIP3   OH258893   6.483   2.400  17.016 -0.7418  0.8471  0.0473
12493TIP3    H158894   6.443   2.467  16.961  0.8749  1.0585 -0.8958
12493TIP3    H258895   6.495   2.443  17.101  0.2101  1.7472 -0.5247
12494TIP3   OH258896   2.129   4.956   4.275 -0.1693 -0.3567  0.1578
12494TIP3    H158897   2.041   4.960   4.313 -0.6742  0.8981 -1.0627
12494TIP3    H258898   2.144   5.043   4.239  1.8449 -0.3499  0.8598
12495TIP3   OH258899   5.783   1.867  17.032 -0.5847 -0.3080 -0.8583
12495TIP3    H158900   5.746   1.834  16.950 -0.1196 -0.0710 -1.1719
12495TIP3    H258901   5.710   1.867  17.093 -0.9847 -0.2972 -1.3300
12496TIP3   OH258902   4.275   4.783   5.492  0.2764 -0.4122 -0.5327
12496TIP3    H158903   4.332   4.827   5.555  0.4098  0.4405 -1.2283
12496TIP3    H258904   4.294   4.690   5.503  3.0176 -0.1125 -1.8531
12497TIP3   OH258905   2.894   2.869   1.444 -0.4171 -0.1230  0.2172
12497TIP3    H158906   2.934   2.820   1.373  1.1408 -0.0658  1.0089
12497TIP3    H258907   2.959   2.867   1.515 -0.5432  2.4789  0.5278
12498TIP3   OH258908   1.948   3.228   3.305  0.2960 -0.0862 -0.0070
12498TIP3    H158909   1.925   3.257   3.393  1.2188 -2.8608  1.2817
12498TIP3    H258910   1.888   3.275   3.248 -2.2423 -0.1912  2.3471
12499TIP3   OH258911   3.500   0.749   5.935  0.1388  0.3643  0.1702
12499TIP3    H158912   3.573   0.780   5.989 -1.1830  2.9964  0.6224
12499TIP3    H258913   3.430   0.813   5.950 -2.1790 -1.8499 -0.5124
12500TIP3   OH258914   6.021   5.558  12.193  0.0108 -0.2425 -0.0870
12500TIP3    H158915   6.091   5.526  12.136 -0.2267 -0.0234 -0.5139
12500TIP3    H258916   6.058   5.633  12.239  0.5453 -1.0649  0.8576
12501TIP3   OH258917   5.863   4.437   2.114  0.0598  0.2977 -0.9505
12501TIP3    H158918   5.956   4.419   2.128  0.5216  2.5125 -0.7176
12501TIP3    H258919   5.817   4.373   2.168  1.5265  0.7223  0.8784
12502TIP3   OH258920   1.052   1.147   0.012 -0.3480 -0.3256 -0.3703
12502TIP3    H158921   1.002   1.196   0.077 -1.1863 -0.1847 -1.1078
12502TIP3    H258922   1.144   1.163   0.035 -0.6195 -0.7437  1.1207
12503TIP3   OH258923   2.673   0.899   1.785 -0.8469 -0.2778 -0.2228
12503TIP3    H158924   2.640   0.880   1.698 -2.6574  1.0451  0.1209
12503TIP3    H258925   2.769   0.894   1.776 -1.0071 -0.4587 -2.1903
12504TIP3   OH258926   0.722   1.022   1.991  1.1530  0.0278  0.0863
12504TIP3    H158927   0.734   0.975   2.074 -0.8427 -0.4809  0.1570
12504TIP3    H258928   0.693   1.110   2.018  0.9313 -0.0024 -0.0474
12505TIP3   OH258929   1.469   0.477   0.471  0.2778  0.2669  0.4296
12505TIP3    H158930   1.410   0.497   0.398  0.9367  0.5124 -0.0440
12505TIP3    H258931   1.552   0.518   0.447  0.5743  0.1430  1.2080
12506TIP3   OH258932   6.455   2.449   2.677 -0.1105 -0.0900 -0.5376
12506TIP3    H158933   6.490   2.534   2.651 -0.2754  0.6635  1.5216
12506TIP3    H258934   6.533   2.396   2.697 -0.0392  0.0257 -0.5082
12507TIP3   OH258935   2.190   4.793   5.187 -0.1781 -0.0516 -0.4586
12507TIP3    H158936   2.103   4.829   5.173 -0.6143 -1.2627 -1.0177
12507TIP3    H258937   2.187   4.755   5.275 -0.8331 -1.6891 -1.1446
12508TIP3   OH258938   3.177   3.598  12.818  0.5471 -0.7482  0.1334
12508TIP3    H158939   3.155   3.506  12.833 -0.1477 -0.9524 -1.8632
12508TIP3    H258940   3.236   3.596  12.743 -0.3218  0.4792 -0.6127
12509TIP3   OH258941   3.976   1.617   5.266  0.2128  0.4370 -0.3184
12509TIP3    H158942   3.921   1.643   5.340  1.5912  0.5608  0.7089
12509TIP3    H258943   4.002   1.527   5.285 -0.4750  0.0127 -1.3282
12510TIP3   OH258944   0.964   0.895  11.917  0.0622 -0.1026  0.1970
12510TIP3    H158945   0.981   0.878  11.824 -0.3836 -0.1127  0.1161
12510TIP3    H258946   0.967   0.809  11.958  2.3833  0.0844  0.5645
12511TIP3   OH258947   0.594   2.874  16.572 -0.4221 -0.5141  0.2138
12511TIP3    H158948   0.658   2.902  16.507  0.1677 -1.5207  0.3404
12511TIP3    H258949   0.537   2.950  16.584  0.3740  0.1925 -0.3571
12512TIP3   OH258950   4.449   1.552  16.795  0.3616  0.2309  0.3862
12512TIP3    H158951   4.488   1.629  16.837  0.7083  0.1187  0.2733
12512TIP3    H258952   4.489   1.550  16.708  1.1579 -0.6743  0.7475
12513TIP3   OH258953   3.080   2.695  13.987 -0.4356 -0.2502 -0.1083
12513TIP3    H158954   3.047   2.704  14.077  1.6722  0.4165  0.6749
12513TIP3    H258955   3.048   2.610  13.957 -3.0415  0.4554  0.4032
12514TIP3   OH258956   2.922   5.184  15.006 -0.3419 -0.3682 -0.1914
12514TIP3    H158957   2.894   5.240  15.078 -0.1773  0.4054 -0.7196
12514TIP3    H258958   3.015   5.204  14.995 -0.5048 -0.0145 -1.0198
12515TIP3   OH258959   6.264   0.697  12.665 -0.5647 -0.1848 -0.0486
12515TIP3    H158960   6.267   0.635  12.737  1.1141  0.6333  0.6548
12515TIP3    H258961   6.196   0.664  12.607 -1.0635 -1.5725  1.2684
12516TIP3   OH258962   6.768   4.842  16.349 -0.5615  0.5356  0.4756
12516TIP3    H158963   6.685   4.798  16.330 -0.4655  1.1577 -1.6652
12516TIP3    H258964   6.776   4.909  16.281  2.1394 -0.1386 -0.0103
12517TIP3   OH258965   3.336   0.039   4.393 -0.1397 -0.0158  0.8015
12517TIP3    H158966   3.333   0.066   4.485 -1.1638 -0.9039  1.0433
12517TIP3    H258967   3.247   0.050   4.362  0.5790  2.3230 -0.7472
12518TIP3   OH258968   0.910   5.651  15.100 -0.3710  0.0040  0.8259
12518TIP3    H158969   0.837   5.703  15.135 -1.1154 -0.9198  0.6766
12518TIP3    H258970   0.905   5.662  15.005  1.6814  2.5524  0.8922
12519TIP3   OH258971   4.208   0.489  13.652  0.4507 -0.3104  0.4000
12519TIP3    H158972   4.288   0.532  13.684 -0.0033 -0.7734  2.2427
12519TIP3    H258973   4.154   0.478  13.730 -1.2146 -0.4820 -0.7395
12520TIP3   OH258974   2.623   6.415   4.004 -0.8655 -0.1366 -0.3623
12520TIP3    H158975   2.652   6.395   4.093 -2.3717  0.2083  0.2507
12520TIP3    H258976   2.646   6.338   3.953  0.5203 -0.1117  0.1972
12521TIP3   OH258977   4.227   4.552  15.754 -0.2263 -0.2620  0.4603
12521TIP3    H158978   4.319   4.579  15.748 -0.4753  0.7292  0.9382
12521TIP3    H258979   4.215   4.529  15.847 -0.7629  0.7503  0.6502
12522TIP3   OH258980   0.670   0.581  12.508 -0.5995  0.3814  0.3611
12522TIP3    H158981   0.575   0.593  12.511 -0.8190 -1.1952  2.5683
12522TIP3    H258982   0.706   0.658  12.552 -0.7061  1.5860 -1.5441
12523TIP3   OH258983   4.627   0.335   3.756 -0.0960  0.3474 -0.0717
12523TIP3    H158984   4.568   0.285   3.812 -0.0757 -0.0908 -0.4363
12523TIP3    H258985   4.701   0.357   3.813  0.8311 -1.7236 -0.3893
12524TIP3   OH258986   6.785   6.256   0.270 -0.0314  0.3183  0.5002
12524TIP3    H158987   6.763   6.193   0.339  2.3869  0.3641  1.4128
12524TIP3    H258988   6.805   6.337   0.317 -0.8092  1.1023 -0.4828
12525TIP3   OH258989   5.015   5.948   1.585 -0.2140 -1.0968  0.2105
12525TIP3    H158990   4.958   5.926   1.511 -1.7367 -0.0300  1.0149
12525TIP3    H258991   5.088   5.996   1.546  0.7835 -3.3957 -0.9777
12526TIP3   OH258992   0.333   4.559   0.884 -0.0883 -0.3823  0.2169
12526TIP3    H158993   0.302   4.468   0.879  1.4984 -0.9245 -3.6154
12526TIP3    H258994   0.284   4.604   0.815 -0.3526  1.5681  1.6150
12527TIP3   OH258995   4.723   5.124   5.257 -0.2674  0.0537 -0.5982
12527TIP3    H158996   4.691   5.156   5.173 -2.9189 -2.0111 -0.5341
12527TIP3    H258997   4.679   5.179   5.322  1.6068  1.5039 -0.4955
12528TIP3   OH258998   2.887   6.695   5.090 -0.1217 -0.0025  0.0255
12528TIP3    H158999   2.793   6.710   5.092 -0.1406  0.3137 -1.6306
12528TIP3    H259000   2.908   6.658   5.176 -1.5419  1.0491  0.8691
12529TIP3   OH259001   6.264   0.127  11.069 -0.3139 -0.6477  0.1063
12529TIP3    H159002   6.185   0.180  11.063 -0.5135 -0.6318  2.0685
12529TIP3    H259003   6.249   0.055  11.007 -1.6310 -0.3559  0.0474
12530TIP3   OH259004   4.705   4.025   3.058 -0.3365  0.4558  0.0897
12530TIP3    H159005   4.742   3.979   3.133 -2.4865 -1.5653  0.0290
12530TIP3    H259006   4.682   4.112   3.091 -1.3629 -0.4304  1.8763
12531TIP3   OH259007   3.935   2.095  16.420 -0.2453  0.3311 -0.3522
12531TIP3    H159008   3.944   2.107  16.514 -0.9120 -0.9801 -0.1011
12531TIP3    H259009   3.842   2.105  16.403  0.1789  3.6677 -1.3831
12532TIP3   OH259010   5.371   6.355   3.342 -0.6203 -1.0293  0.2990
12532TIP3    H159011   5.384   6.339   3.248  0.2508 -1.2843  0.4624
12532TIP3    H259012   5.306   6.426   3.344 -1.0202 -1.3534 -0.4888
12533TIP3   OH259013   3.406   1.807   1.979 -0.2849 -0.5056 -0.8585
12533TIP3    H159014   3.439   1.838   1.895 -0.9778 -0.0697 -0.9770
12533TIP3    H259015   3.395   1.886   2.032 -1.8261 -0.5490 -1.0778
12534TIP3   OH259016   5.635   6.565  13.050 -0.2170 -0.5841  0.0916
12534TIP3    H159017   5.543   6.547  13.071 -1.3023  2.7915 -1.0581
12534TIP3    H259018   5.655   6.645  13.099  1.1764  0.2999 -1.8033
12535TIP3   OH259019   4.015   5.170  11.592 -0.6244 -0.2887 -0.7793
12535TIP3    H159020   3.941   5.122  11.628  0.3146 -1.8816 -0.8453
12535TIP3    H259021   4.031   5.130  11.506  1.0782 -0.9048 -0.2280
12536TIP3   OH259022   3.246   0.509  16.498  0.6097 -0.1730  0.4529
12536TIP3    H159023   3.177   0.446  16.476  0.6421 -0.0190 -0.1115
12536TIP3    H259024   3.316   0.455  16.536  1.3293 -0.7504 -1.5300
12537TIP3   OH259025   5.971   3.079  12.164 -0.3295  0.1683  0.1928
12537TIP3    H159026   6.021   3.133  12.224  1.5140 -1.8320  0.5896
12537TIP3    H259027   5.906   3.138  12.126  0.5549  2.2286  1.7257
12538TIP3   OH259028   3.530   4.876  12.570  0.4766 -0.3874 -0.3943
12538TIP3    H159029   3.542   4.971  12.570 -1.7354 -0.0603 -0.1779
12538TIP3    H259030   3.440   4.863  12.541  0.7478 -2.4435 -0.4662
12539TIP3   OH259031   0.247   1.553   5.461 -1.2918 -0.0828 -0.6414
12539TIP3    H159032   0.247   1.590   5.549  1.1783 -0.2803 -0.4908
12539TIP3    H259033   0.247   1.459   5.475  1.6853 -0.1737 -0.6825
12540TIP3   OH259034   4.272   0.422   4.457 -0.3464 -0.1467  0.4864
12540TIP3    H159035   4.301   0.380   4.538 -0.9227  0.0877  0.8195
12540TIP3    H259036   4.179   0.400   4.451 -0.6402  0.9805  0.6168
12541TIP3   OH259037   3.652   6.792  10.341  0.0695 -0.8362  0.4158
12541TIP3    H159038   3.718   6.862  10.344 -0.6691 -0.0353 -0.7095
12541TIP3    H259039   3.586   6.818  10.406  0.1221 -0.8284  0.4656
12542TIP3   OH259040   4.130   4.058  12.290 -0.5772 -0.3828  0.3286
12542TIP3    H159041   4.167   4.051  12.202 -0.5771 -4.0779  0.4710
12542TIP3    H259042   4.206   4.053  12.348 -0.6822  0.7841  0.5880
12543TIP3   OH259043   4.101   5.055   3.141  0.2542 -0.0187  0.3472
12543TIP3    H159044   4.102   5.001   3.062  1.1619  0.2144  0.1860
12543TIP3    H259045   4.055   5.002   3.205 -0.7526 -0.0936 -0.4139
12544TIP3   OH259046   3.633   3.185   1.504  0.0388  0.6449  0.3893
12544TIP3    H159047   3.724   3.154   1.510 -0.1112  0.0023 -0.4206
12544TIP3    H259048   3.632   3.266   1.556  1.0662  0.6412  0.4456
12545TIP3   OH259049   6.770   3.748   1.185 -0.1654 -0.5573 -0.5456
12545TIP3    H159050   6.760   3.652   1.185  2.1055 -0.8819 -2.0661
12545TIP3    H259051   6.753   3.773   1.276  0.3017 -2.5725  0.1730
12546TIP3   OH259052   1.502   3.622  12.514  0.7545  0.2840  0.6976
12546TIP3    H159053   1.588   3.587  12.537  1.7752  2.6198  0.7171
12546TIP3    H259054   1.521   3.699  12.461 -1.3169  1.1306  1.0773
12547TIP3   OH259055   2.669   1.676  10.728  0.5603  0.2628  0.0604
12547TIP3    H159056   2.657   1.770  10.718 -1.3048  0.2031  1.2478
12547TIP3    H259057   2.601   1.637  10.673  1.9728 -0.4491 -1.2388
12548TIP3   OH259058   2.261   1.244   2.509  0.0017  0.4123 -0.0445
12548TIP3    H159059   2.274   1.154   2.537 -1.5843 -0.1240 -0.9140
12548TIP3    H259060   2.304   1.249   2.423  0.8386  0.7487  0.3819
12549TIP3   OH259061   5.274   6.707  14.949  0.3749  0.3215  0.2378
12549TIP3    H159062   5.283   6.731  15.041  1.7686  1.6756 -0.2211
12549TIP3    H259063   5.252   6.614  14.951  0.7988  0.2247  1.9277
12550TIP3   OH259064   5.679   3.732  16.730 -0.3020  0.4096 -0.0248
12550TIP3    H159065   5.724   3.695  16.655 -0.7996  1.4042 -0.8353
12550TIP3    H259066   5.739   3.798  16.765  0.3851 -0.7864  1.1312
12551TIP3   OH259067   0.693   5.567   4.580  0.4375  0.3337  0.2551
12551TIP3    H159068   0.766   5.525   4.535 -0.3486  1.8334 -2.7234
12551TIP3    H259069   0.617   5.513   4.558  0.4856 -0.9308  2.9034
12552TIP3   OH259070   6.148   5.782  11.751  0.3111 -0.0976  0.5639
12552TIP3    H159071   6.091   5.837  11.806 -1.5060 -0.3581 -0.9432
12552TIP3    H259072   6.221   5.840  11.727 -0.0363  0.7135  1.4072
12553TIP3   OH259073   3.798   0.738   3.558 -0.4062 -0.6265  0.0730
12553TIP3    H159074   3.822   0.830   3.565 -0.2881 -0.5820 -0.7635
12553TIP3    H259075   3.729   0.736   3.492 -1.2890 -1.0030  0.9833
12554TIP3   OH259076   1.367   1.374  13.198 -0.0182 -0.0876  0.6097
12554TIP3    H159077   1.336   1.375  13.107  0.3395 -0.2698  0.4823
12554TIP3    H259078   1.308   1.314  13.243  0.6072 -1.0344  0.1978
12555TIP3   OH259079   1.254   0.970  11.104  0.1985  0.7529 -0.1071
12555TIP3    H159080   1.170   0.978  11.057  0.4429  2.3871 -0.3441
12555TIP3    H259081   1.320   0.978  11.035  0.5650 -0.7963  0.0458
12556TIP3   OH259082   1.846   3.346   3.543  0.0368  0.4402  0.3965
12556TIP3    H159083   1.910   3.294   3.591  2.4225  1.0278 -1.8953
12556TIP3    H259084   1.863   3.436   3.569 -1.7060  0.4539  1.6981
12557TIP3   OH259085   1.625   1.850  14.675 -0.2036 -0.3457 -0.5660
12557TIP3    H159086   1.715   1.878  14.691  0.3747 -1.9064 -0.9390
12557TIP3    H259087   1.623   1.826  14.583 -1.4505  1.1799 -0.9725
12558TIP3   OH259088   3.920   4.170  13.329 -0.1079 -0.0515  0.1396
12558TIP3    H159089   3.985   4.232  13.363  1.6834 -0.9928 -1.3391
12558TIP3    H259090   3.945   4.087  13.369  1.5053 -1.0008 -2.5890
12559TIP3   OH259091   0.340   4.944  13.539  0.7734  0.0707  0.2347
12559TIP3    H159092   0.341   4.952  13.634 -2.3216 -0.3949  0.3828
12559TIP3    H259093   0.375   5.028  13.507  0.1573  0.9539  1.7842
12560TIP3   OH259094   1.637   3.832   4.032  0.0111  0.0761 -0.6110
12560TIP3    H159095   1.604   3.840   4.122 -0.7026  0.5854 -0.9066
12560TIP3    H259096   1.727   3.864   4.037  0.8516 -2.2056  0.3976
12561TIP3   OH259097   5.509   2.295   1.468 -1.0544  0.3579 -0.1183
12561TIP3    H159098   5.493   2.333   1.554  0.6577  1.7827 -0.3564
12561TIP3    H259099   5.514   2.371   1.409  1.1123 -0.2840 -0.8720
12562TIP3   OH259100   1.606   5.150  10.853  0.4549 -0.4428 -0.1230
12562TIP3    H159101   1.552   5.071  10.846  1.0048 -0.9403  0.9907
12562TIP3    H259102   1.677   5.136  10.791 -0.2529 -0.1233 -1.0399
12563TIP3   OH259103   6.217   1.311  11.582  0.3623 -0.5651 -0.6353
12563TIP3    H159104   6.198   1.404  11.571  0.6281 -0.5609 -1.0907
12563TIP3    H259105   6.302   1.309  11.626 -0.5085 -0.5862  1.1221
12564TIP3   OH259106   0.582   1.494   2.953  0.0850 -0.3888 -0.2718
12564TIP3    H159107   0.668   1.474   2.990  0.6658 -1.0169 -1.8443
12564TIP3    H259108   0.533   1.412   2.961  0.0229 -0.3614 -0.3752
12565TIP3   OH259109   2.256   2.824   4.911  0.3312  0.6616  0.2283
12565TIP3    H159110   2.257   2.882   4.834 -1.1457 -0.3588 -0.6033
12565TIP3    H259111   2.236   2.737   4.875 -2.4368  0.4931  1.9303
12566TIP3   OH259112   5.007   2.031  15.881  0.0133  0.3745  0.2262
12566TIP3    H159113   5.042   2.112  15.916 -1.4076  1.3902 -0.5981
12566TIP3    H259114   5.084   1.981  15.854  1.0135  0.6194  2.4067
12567TIP3   OH259115   3.083   3.302  11.260  0.3767 -0.1063  0.1919
12567TIP3    H159116   3.078   3.381  11.314 -0.3609 -0.9756  1.4380
12567TIP3    H259117   3.016   3.314  11.193 -0.2483 -0.0097  0.8307
12568TIP3   OH259118   2.715   0.868  10.805 -0.1741 -0.4884  0.6762
12568TIP3    H159119   2.653   0.806  10.767 -0.1962  0.3486 -0.7028
12568TIP3    H259120   2.674   0.895  10.888 -0.6525 -1.4985  0.7812
12569TIP3   OH259121   2.624   1.219   2.396 -0.1774  0.7261  0.3550
12569TIP3    H159122   2.634   1.308   2.430 -0.1237  1.1757 -0.7819
12569TIP3    H259123   2.713   1.191   2.375 -0.3048  0.9574 -0.5788
12570TIP3   OH259124   0.558   5.362   0.925  0.2545  0.6484  0.4664
12570TIP3    H159125   0.647   5.330   0.944  0.6226  1.2770 -0.1598
12570TIP3    H259126   0.571   5.449   0.888 -0.6846  1.1026  1.1735
12571TIP3   OH259127   1.516   4.245   6.033 -0.4822  0.0218  0.4025
12571TIP3    H159128   1.471   4.327   6.050  0.8197  1.1862 -1.5206
12571TIP3    H259129   1.583   4.240   6.102  0.6375  1.5348 -0.5173
12572TIP3   OH259130   4.082   2.151   0.824 -0.2596  0.3613 -0.4364
12572TIP3    H159131   4.121   2.133   0.738  0.8192  3.3017 -0.6555
12572TIP3    H259132   3.996   2.188   0.804 -1.9831 -3.0094 -0.0191
12573TIP3   OH259133   4.900   6.694  12.740 -1.0241 -0.2524  0.6882
12573TIP3    H159134   4.882   6.778  12.783 -2.9537 -0.8509  1.1336
12573TIP3    H259135   4.989   6.673  12.768 -1.1800  0.7555  2.0889
12574TIP3   OH259136   5.652   0.001  12.209  0.4098  0.1944 -0.3575
12574TIP3    H159137   5.731   0.049  12.232 -0.6580  1.7867  0.1661
12574TIP3    H259138   5.650   0.003  12.113  2.7991 -3.0121 -0.6277
12575TIP3   OH259139   3.577   3.650  14.434 -0.1766 -0.1566 -0.2241
12575TIP3    H159140   3.482   3.650  14.433 -0.2791  2.6553 -1.0584
12575TIP3    H259141   3.603   3.605  14.354 -0.9010  0.5458 -0.8749
12576TIP3   OH259142   1.161   2.112   2.598 -0.5447 -0.4498  0.4118
12576TIP3    H159143   1.229   2.180   2.602 -0.2328 -0.4929 -2.5031
12576TIP3    H259144   1.209   2.031   2.584 -1.0920 -0.7534  0.2621
12577TIP3   OH259145   1.823   5.153   2.820  0.8211  0.6624  0.0897
12577TIP3    H159146   1.746   5.123   2.869 -0.0302  2.2292 -0.2518
12577TIP3    H259147   1.788   5.189   2.739  1.9820  0.7964 -0.3758
12578TIP3   OH259148   4.062   0.706  13.808  0.2383  0.0499  0.0526
12578TIP3    H159149   3.970   0.720  13.788  0.2971 -0.7297 -0.7939
12578TIP3    H259150   4.078   0.760  13.886 -0.2641  2.3365 -1.3280
12579TIP3   OH259151   3.731   6.685   5.721  0.1737 -0.0389  0.1804
12579TIP3    H159152   3.808   6.734   5.693  0.3456  0.6566  1.7560
12579TIP3    H259153   3.690   6.656   5.640  1.1924  0.9743 -0.7290
12580TIP3   OH259154   4.457   2.271   5.212 -0.1300  0.4402 -0.1216
12580TIP3    H159155   4.456   2.196   5.270  3.0220  0.3429 -0.0062
12580TIP3    H259156   4.476   2.346   5.269 -3.6528  1.5577 -0.1543
12581TIP3   OH259157   4.005   6.152  16.447 -0.3539 -0.2905  0.2767
12581TIP3    H159158   3.951   6.098  16.505  1.2280  0.0205  2.1394
12581TIP3    H259159   4.094   6.145  16.483  1.0776 -1.3399 -3.0356
12582TIP3   OH259160   0.139   3.809  16.418  0.1753  0.1414  0.1092
12582TIP3    H159161   0.133   3.898  16.453 -0.4346 -0.0053  0.3783
12582TIP3    H259162   0.049   3.783  16.401  0.3542 -0.4089 -0.0257
12583TIP3   OH259163   1.997   1.107  12.648  0.0308  0.1364 -0.4748
12583TIP3    H159164   2.020   1.118  12.556 -1.4843 -0.2465 -0.9206
12583TIP3    H259165   1.989   1.012  12.660  0.6059  0.1596  0.1589
12584TIP3   OH259166   2.549   6.535  14.031 -0.1366 -0.2332  0.3792
12584TIP3    H159167   2.541   6.529  13.936 -1.2696 -0.3393  0.4703
12584TIP3    H259168   2.580   6.624  14.047 -0.3999 -0.0585 -0.0685
12585TIP3   OH259169   1.559   2.117  12.009 -0.0087 -0.1584 -0.1545
12585TIP3    H159170   1.618   2.188  12.035 -0.4799 -0.2084  1.1343
12585TIP3    H259171   1.472   2.157  12.009 -0.0543 -0.1749 -1.6995
12586TIP3   OH259172   3.319   2.551   0.909  0.3269  0.2092  0.5392
12586TIP3    H159173   3.283   2.532   0.995  0.0765 -0.3436  0.3198
12586TIP3    H259174   3.414   2.556   0.923  0.5678 -2.3661  0.4621
12587TIP3   OH259175   0.694   5.638   2.333  0.1014 -0.7326 -0.5447
12587TIP3    H159176   0.616   5.666   2.382  0.6527  0.0098 -0.0746
12587TIP3    H259177   0.728   5.564   2.383 -1.5420 -2.5679 -1.9644
12588TIP3   OH259178   3.421   4.061   5.840 -0.1557 -0.2889  0.2945
12588TIP3    H159179   3.471   4.097   5.767  2.3344 -0.5372  1.7436
12588TIP3    H259180   3.392   3.975   5.809 -2.1541  0.9424 -1.5344
12589TIP3   OH259181   0.977   0.141  12.087 -0.0353  0.1297 -0.4412
12589TIP3    H159182   1.031   0.150  12.165 -0.7667  0.1675  0.0725
12589TIP3    H259183   0.942   0.229  12.072 -2.0069 -0.3864  0.7681
12590TIP3   OH259184   5.501   3.070  13.139  0.1231  0.2087 -0.5004
12590TIP3    H159185   5.568   3.008  13.166  0.8002  0.1617 -2.1777
12590TIP3    H259186   5.550   3.146  13.108 -0.6692  1.1019  0.3534
12591TIP3   OH259187   3.130   5.194  15.256 -0.1992 -0.0719 -0.1249
12591TIP3    H159188   3.213   5.153  15.280  1.2864  2.7044 -0.0839
12591TIP3    H259189   3.098   5.142  15.182  2.0199 -0.7535 -0.6866
12592TIP3   OH259190   6.287   4.891  12.003  0.5324  0.2737  0.4018
12592TIP3    H159191   6.211   4.865  11.950 -0.0728  0.4300  1.1671
12592TIP3    H259192   6.353   4.918  11.939 -1.6552  4.8245 -0.3594
12593TIP3   OH259193   5.865   0.095  10.992 -0.2103 -0.0603  0.1633
12593TIP3    H159194   5.872   0.038  11.068 -0.4625 -0.7835 -0.3487
12593TIP3    H259195   5.863   0.036  10.917 -2.2018  0.5000 -0.3015
12594TIP3   OH259196   2.471   1.610  11.237 -0.3140 -0.4263  0.5947
12594TIP3    H159197   2.521   1.671  11.183 -0.0349  0.0196  1.3424
12594TIP3    H259198   2.437   1.664  11.309 -2.5407 -0.5168 -0.2914
12595TIP3   OH259199   2.994   5.099   1.814  0.1230 -0.1585 -0.2744
12595TIP3    H159200   2.980   5.093   1.909  2.2554 -0.8986  0.0359
12595TIP3    H259201   3.087   5.080   1.802 -0.1567 -0.3331 -2.5571
12596TIP3   OH259202   2.287   2.388  13.528  0.0535 -0.4303 -0.2227
12596TIP3    H159203   2.376   2.422  13.517  0.4596 -1.1851  0.5400
12596TIP3    H259204   2.262   2.416  13.616 -0.5308 -0.0934 -0.4921
12597TIP3   OH259205   5.495   5.836  14.236 -0.3687  0.1072  0.1601
12597TIP3    H159206   5.527   5.885  14.311 -0.4122  0.3460  0.0252
12597TIP3    H259207   5.409   5.804  14.263 -0.5841  0.5826  0.0489
12598TIP3   OH259208   2.782   6.551  14.528  0.6681 -0.0851 -0.1642
12598TIP3    H159209   2.769   6.645  14.512  2.4629  0.4024  0.9405
12598TIP3    H259210   2.706   6.524  14.578  0.1003  0.7686 -0.5453
12599TIP3   OH259211   4.532   3.805   1.399 -0.4631 -0.2401 -0.0291
12599TIP3    H159212   4.559   3.887   1.440  0.7285 -0.6070 -0.0509
12599TIP3    H259213   4.581   3.738   1.446 -0.4109 -0.8190 -0.9045
12600TIP3   OH259214   0.134   5.789  13.258 -0.0348 -0.1191 -0.2329
12600TIP3    H159215   0.194   5.790  13.183 -0.6084  1.6740 -0.7181
12600TIP3    H259216   0.047   5.789  13.218 -0.3932 -1.7545  0.4696
12601TIP3   OH259217   6.032   0.973  14.687 -0.1701 -0.2966  0.4443
12601TIP3    H159218   5.980   1.018  14.754 -0.4686 -0.0402  0.0390
12601TIP3    H259219   6.111   0.945  14.734  0.5672  1.6310  0.4400
12602TIP3   OH259220   3.305   4.419  15.860  0.3662 -0.2823 -0.3589
12602TIP3    H159221   3.322   4.329  15.886 -1.1891 -0.2161  1.0719
12602TIP3    H259222   3.379   4.469  15.898 -0.0408 -0.6640  1.0072
12603TIP3   OH259223   4.408   3.575   1.733 -0.8068 -0.3961  0.2820
12603TIP3    H159224   4.338   3.595   1.795 -0.5474  0.4694  0.3041
12603TIP3    H259225   4.405   3.480   1.724 -2.6977 -0.2912 -0.5699
12604TIP3   OH259226   5.094   4.653  12.058  0.0520 -0.1388  0.3620
12604TIP3    H159227   5.010   4.698  12.062 -0.0433 -0.3506  0.8041
12604TIP3    H259228   5.092   4.592  12.131 -0.6536 -2.3230 -1.3843
12605TIP3   OH259229   0.978   2.783  14.750  0.0785 -0.0365  0.1255
12605TIP3    H159230   1.037   2.839  14.700  2.0868  0.2120  2.5376
12605TIP3    H259231   0.892   2.796  14.710  1.4088  0.4882 -2.8405
12606TIP3   OH259232   5.444   1.636  11.413 -0.1341  0.5018  0.1419
12606TIP3    H159233   5.391   1.589  11.478  1.7771  0.2837  1.6394
12606TIP3    H259234   5.435   1.728  11.438  1.3571  0.3507  1.4054
12607TIP3   OH259235   5.738   0.258  13.895 -0.6267 -0.0083 -0.6377
12607TIP3    H159236   5.746   0.192  13.827  1.8656 -0.0905 -0.3456
12607TIP3    H259237   5.688   0.215  13.964 -1.6160 -0.5387 -1.6600
12608TIP3   OH259238   2.459   1.849  13.086 -0.1697  0.1152  0.9779
12608TIP3    H159239   2.544   1.815  13.115 -0.2781 -0.1751  0.9545
12608TIP3    H259240   2.426   1.783  13.025  0.0549  0.7170  0.1775
12609TIP3   OH259241   4.330   0.608   5.190  0.1150 -0.6260 -0.0815
12609TIP3    H159242   4.327   0.653   5.105 -1.3354  1.3553  0.9647
12609TIP3    H259243   4.409   0.642   5.233 -0.9081  0.8839  0.6542
12610TIP3   OH259244   4.941   2.621  15.187  0.0174 -0.2352 -0.1104
12610TIP3    H159245   4.995   2.677  15.131 -0.0180 -0.1912 -0.1007
12610TIP3    H259246   4.925   2.675  15.265 -0.9569  0.1613 -0.5753
12611TIP3   OH259247   2.130   4.383  12.048  0.0419  0.3286  0.1762
12611TIP3    H159248   2.164   4.330  12.120  2.2560 -0.4098 -1.2953
12611TIP3    H259249   2.085   4.320  11.991 -0.1723  0.6095  0.0320
12612TIP3   OH259250   3.645   3.281   3.535  0.2760 -0.3335 -0.3631
12612TIP3    H159251   3.602   3.255   3.454 -0.3903 -0.6030  0.0721
12612TIP3    H259252   3.605   3.227   3.603  0.4066  0.3028  0.2378
12613TIP3   OH259253   6.759   3.045  12.866 -0.0497  0.2343  0.5787
12613TIP3    H159254   6.836   3.101  12.872  0.5272 -0.4718 -0.1686
12613TIP3    H259255   6.741   3.037  12.773  0.0057 -0.9958  0.6609
12614TIP3   OH259256   4.420   3.497  16.665  0.3265  0.0731  0.3806
12614TIP3    H159257   4.424   3.470  16.573  0.5162 -0.0064  0.4113
12614TIP3    H259258   4.410   3.416  16.713 -2.4416  0.2813  0.2840
12615TIP3   OH259259   6.488   4.731   5.468 -0.3558 -0.0708 -0.2790
12615TIP3    H159260   6.422   4.662   5.480  1.6003 -2.5025 -2.2800
12615TIP3    H259261   6.560   4.705   5.526  0.0923  0.7634 -0.4465
12616TIP3   OH259262   4.497   3.621   1.143  0.0024 -0.2143  0.0452
12616TIP3    H159263   4.462   3.710   1.146  3.1580  1.1632  1.3024
12616TIP3    H259264   4.541   3.615   1.058 -3.9564 -2.3879 -2.1112
12617TIP3   OH259265   1.433   2.644   3.335 -0.5540  0.0273  0.4688
12617TIP3    H159266   1.504   2.586   3.306 -0.1152  1.3517 -1.2754
12617TIP3    H259267   1.411   2.695   3.257 -2.4981  0.6149  1.3464
12618TIP3   OH259268   0.735   3.752   4.772 -0.4246 -0.0705 -0.3265
12618TIP3    H159269   0.666   3.806   4.811  0.1727  0.3257  0.2066
12618TIP3    H259270   0.796   3.737   4.843 -1.1897 -2.5384 -0.1187
12619TIP3   OH259271   0.992   5.798  16.811 -0.0270 -0.1952  0.1011
12619TIP3    H159272   1.044   5.843  16.745  0.3290 -1.8009 -0.7740
12619TIP3    H259273   1.056   5.746  16.860 -0.4900 -0.2355  0.6734
12620TIP3   OH259274   2.006   4.106  15.473  0.1211  0.9574 -0.3168
12620TIP3    H159275   2.020   4.096  15.379  0.7661 -0.6251 -0.0708
12620TIP3    H259276   2.003   4.017  15.507 -1.6396  1.4461  0.9641
12621TIP3   OH259277   5.682   0.199  16.007  0.1608  0.5514  0.4392
12621TIP3    H159278   5.723   0.204  15.921  0.1355  0.8705  0.4450
12621TIP3    H259279   5.622   0.274  16.009 -0.4109  0.1075  0.4332
12622TIP3   OH259280   1.308   1.708   0.548  0.1355  0.1998  0.2396
12622TIP3    H159281   1.379   1.715   0.485  0.4009  0.2409  0.5461
12622TIP3    H259282   1.350   1.706   0.633 -0.2205  0.0815  0.4180
12623TIP3   OH259283   1.063   1.949   4.725  0.5727  0.4176  0.6618
12623TIP3    H159284   1.110   1.961   4.808 -0.5634 -1.2456  1.6064
12623TIP3    H259285   1.072   1.855   4.706 -3.0545 -0.2288  1.4118
12624TIP3   OH259286   3.706   1.007   0.499 -0.5624  0.4278 -0.5571
12624TIP3    H159287   3.639   1.074   0.485 -0.3664  0.4638 -1.3464
12624TIP3    H259288   3.658   0.924   0.494 -1.0358  0.5027  1.6757
12625TIP3   OH259289   0.863   4.186  11.543 -0.2165  0.6099  0.0591
12625TIP3    H159290   0.885   4.167  11.634  1.1022 -0.0632 -0.3699
12625TIP3    H259291   0.874   4.281  11.535 -1.0551  0.7736  0.7737
12626TIP3   OH259292   6.184   0.452  11.530 -0.0467 -0.2471  0.0058
12626TIP3    H159293   6.093   0.478  11.520  0.2720  0.5090 -1.1109
12626TIP3    H259294   6.181   0.356  11.533 -0.9533 -0.2005  0.9680
12627TIP3   OH259295   4.218   0.826   0.385 -0.8485  0.2834  0.0240
12627TIP3    H159296   4.123   0.820   0.389 -0.8375  0.5939  1.6221
12627TIP3    H259297   4.244   0.758   0.323 -2.0829 -0.0536 -0.1463
12628TIP3   OH259298   0.815   4.500  12.491  0.2454  0.3672  0.1351
12628TIP3    H159299   0.743   4.539  12.541  1.8719  3.7752  0.0912
12628TIP3    H259300   0.848   4.429  12.547 -2.3061 -0.4915  0.6647
12629TIP3   OH259301   1.581   5.054   2.347  0.7994  0.3426 -0.2192
12629TIP3    H159302   1.587   4.967   2.307  0.2286 -0.7173  1.8441
12629TIP3    H259303   1.500   5.051   2.398  1.0569  1.9111  0.3349
12630TIP3   OH259304   2.186   3.191   3.193  0.3963  0.3191  0.5277
12630TIP3    H159305   2.102   3.195   3.241 -0.2586 -0.1360 -0.5523
12630TIP3    H259306   2.182   3.266   3.133  1.7543  1.6391  1.9745
12631TIP3   OH259307   2.179   1.153  16.331 -0.0151  0.2642 -0.2894
12631TIP3    H159308   2.098   1.202  16.345  0.4471  0.1635  4.2091
12631TIP3    H259309   2.160   1.096  16.256 -3.8928  0.6390  0.1969
12632TIP3   OH259310   1.635   4.929  17.065  0.0821 -0.1424 -0.1109
12632TIP3    H159311   1.611   4.879  17.144 -0.5501  0.5458  0.1429
12632TIP3    H259312   1.635   4.863  16.995  0.3048 -0.6994  0.4006
12633TIP3   OH259313   3.537   4.188  11.563 -0.1958 -0.1378 -0.2807
12633TIP3    H159314   3.529   4.093  11.556  1.2087 -0.2440 -0.7130
12633TIP3    H259315   3.590   4.213  11.488  0.2903  0.8735  0.3802
12634TIP3   OH259316   0.685   4.606  12.698  0.1154  0.3748 -0.4136
12634TIP3    H159317   0.760   4.572  12.747  0.0055  0.0320 -0.4810
12634TIP3    H259318   0.623   4.533  12.694 -0.1816  0.6235 -0.4446
12635TIP3   OH259319   5.275   3.532   2.544  0.1095  0.1397 -0.2143
12635TIP3    H159320   5.223   3.468   2.495  0.3263  0.8219 -1.3712
12635TIP3    H259321   5.236   3.533   2.631  0.1804 -1.6579 -0.1205
12636TIP3   OH259322   5.183   6.534   1.772 -0.5802  0.5621  0.0318
12636TIP3    H159323   5.242   6.610   1.778  0.1724 -0.0661  0.7595
12636TIP3    H259324   5.198   6.500   1.684  2.1564 -1.1384  1.0161
12637TIP3   OH259325   3.166   1.236  14.895 -0.4212  0.4169  0.2942
12637TIP3    H159326   3.233   1.228  14.827  1.3867 -0.9512  2.1182
12637TIP3    H259327   3.084   1.213  14.851  0.7874 -1.1353 -1.2732
12638TIP3   OH259328   3.603   4.379   2.087  0.0275  0.3055 -0.2840
12638TIP3    H159329   3.686   4.339   2.113 -0.6148 -0.4689  0.6107
12638TIP3    H259330   3.546   4.368   2.163 -0.8394  1.0210 -0.8101
12639TIP3   OH259331   5.501   4.117   1.597 -0.1144 -0.6376 -0.0337
12639TIP3    H159332   5.571   4.166   1.639  0.4160 -2.0759  0.8665
12639TIP3    H259333   5.481   4.047   1.659 -0.4887 -1.8394 -1.4456
12640TIP3   OH259334   2.405   2.232  17.083 -0.5814  0.4869 -0.4958
12640TIP3    H159335   2.466   2.162  17.106  0.1012  0.9245 -0.9519
12640TIP3    H259336   2.455   2.313  17.096 -1.3918  0.9005  0.1109
12641TIP3   OH259337   3.957   4.856   3.992 -0.1846  0.5059  0.2338
12641TIP3    H159338   3.873   4.896   4.016 -0.1500  0.7562 -0.0585
12641TIP3    H259339   3.933   4.768   3.961 -0.3442  0.5915  0.1104
12642TIP3   OH259340   3.989   5.452  14.142 -0.5664  0.1847 -0.1567
12642TIP3    H159341   3.916   5.513  14.126  0.9360  2.5213  1.2320
12642TIP3    H259342   3.961   5.402  14.219 -1.4390 -0.2947 -0.7588
12643TIP3   OH259343   1.565   1.642  15.688  0.3330  0.1290 -1.0062
12643TIP3    H159344   1.623   1.611  15.618  0.7494 -1.0926 -0.1661
12643TIP3    H259345   1.494   1.578  15.690  0.0818  0.4162 -0.6207
12644TIP3   OH259346   4.510   4.271   3.101  0.6128 -0.7751  0.3660
12644TIP3    H159347   4.464   4.351   3.125  1.9512  0.2505 -0.3457
12644TIP3    H259348   4.468   4.242   3.020  0.1085 -0.8181  0.6398
12645TIP3   OH259349   5.183   2.334   1.547 -0.4171  0.0194 -0.1564
12645TIP3    H159350   5.277   2.349   1.551 -0.4467 -0.0329  1.7851
12645TIP3    H259351   5.144   2.421   1.551 -0.4708  0.0799 -1.5637
12646TIP3   OH259352   3.731   6.520  14.392 -0.4779 -0.3207 -0.1647
12646TIP3    H159353   3.737   6.615  14.386  2.6104 -0.3816  0.2535
12646TIP3    H259354   3.740   6.489  14.302  0.7721 -0.2106 -0.1020
12647TIP3   OH259355   2.550   4.532   2.118  0.5513  0.0930  0.6340
12647TIP3    H159356   2.549   4.479   2.197  2.1493  1.3568  1.5682
12647TIP3    H259357   2.636   4.574   2.118  0.0281  1.2790 -1.0005
12648TIP3   OH259358   0.777   3.383   6.186  0.5041  0.5475 -0.4172
12648TIP3    H159359   0.688   3.409   6.210  0.5037 -1.5127  2.3798
12648TIP3    H259360   0.766   3.296   6.146  1.2334  0.3869 -0.2793
12649TIP3   OH259361   4.731   2.283  10.542  0.6543 -0.0455 -0.0998
12649TIP3    H159362   4.667   2.354  10.554  0.5143  0.9718 -4.8126
12649TIP3    H259363   4.816   2.326  10.553  0.5421  0.6273 -1.5591
12650TIP3   OH259364   4.772   1.207   4.813 -0.5310 -0.0788  0.1342
12650TIP3    H159365   4.837   1.277   4.824  0.7821 -0.8146 -2.2130
12650TIP3    H259366   4.688   1.251   4.821  0.2434  1.9476 -1.7588
12651TIP3   OH259367   1.085   1.489  11.550  0.3519  0.3490 -0.1898
12651TIP3    H159368   1.131   1.572  11.542 -0.2486  0.5958 -1.3257
12651TIP3    H259369   1.037   1.480  11.468 -1.6897  0.1654  0.9338
12652TIP3   OH259370   1.120   0.293  15.538 -0.0592  0.0081  0.0032
12652TIP3    H159371   1.127   0.243  15.619  1.3523 -0.9653 -0.6776
12652TIP3    H259372   1.210   0.309  15.512 -0.4936  0.3951 -1.3272
12653TIP3   OH259373   6.709   2.894  11.933 -0.5733 -0.2114  0.3716
12653TIP3    H159374   6.773   2.940  11.987  0.5304 -0.1514 -0.9280
12653TIP3    H259375   6.733   2.915  11.843 -2.9757  0.5155 -0.1775
12654TIP3   OH259376   3.148   1.495   2.613 -0.6452 -0.0945 -0.1226
12654TIP3    H159377   3.200   1.416   2.595 -1.2850 -0.5965  0.1987
12654TIP3    H259378   3.066   1.481   2.565  0.0948  1.4130 -1.9547
12655TIP3   OH259379   4.800   2.253  15.908  0.2307 -0.1081  0.1446
12655TIP3    H159380   4.879   2.290  15.868  0.2982 -0.2542  0.1410
12655TIP3    H259381   4.811   2.158  15.899  0.1019 -0.1321  0.2346
12656TIP3   OH259382   3.128   6.757  13.756 -0.1694  0.0888  0.4099
12656TIP3    H159383   3.061   6.692  13.738  0.6875  0.0426 -3.5597
12656TIP3    H259384   3.086   6.841  13.738  0.2317  0.2098  0.0172
12657TIP3   OH259385   5.837   1.097   3.015 -0.1065  0.8411  0.0698
12657TIP3    H159386   5.773   1.136   2.955 -0.9354  0.0674  0.4383
12657TIP3    H259387   5.784   1.061   3.086  0.5911 -1.3154 -0.4474
12658TIP3   OH259388   3.328   0.919   4.783  0.1472  0.3676  0.0295
12658TIP3    H159389   3.331   0.863   4.860 -0.1838 -0.0289 -0.2449
12658TIP3    H259390   3.245   0.898   4.741  1.6435 -1.6830 -2.1307
12659TIP3   OH259391   3.445   6.495  16.417 -0.5364  0.1911  0.3154
12659TIP3    H159392   3.426   6.404  16.440 -0.9056  0.0508 -0.5170
12659TIP3    H259393   3.391   6.512  16.340 -0.0457  0.9488  0.1287
12660TIP3   OH259394   6.749   0.874   5.107  0.1756 -0.0970 -0.0601
12660TIP3    H159395   6.747   0.852   5.014  0.3164 -0.7766  0.0925
12660TIP3    H259396   6.734   0.790   5.151  0.1468  0.2167  0.5277
12661TIP3   OH259397   6.199   1.360   5.487  0.7955 -0.1539  0.2475
12661TIP3    H159398   6.278   1.317   5.456  0.2926 -0.0596 -1.2280
12661TIP3    H259399   6.173   1.418   5.415 -1.3795 -1.2156  0.1155
12662TIP3   OH259400   4.068   3.814  14.422 -0.9669 -0.2170 -0.2031
12662TIP3    H159401   4.046   3.789  14.512 -0.4037 -0.6613 -0.1852
12662TIP3    H259402   4.138   3.754  14.397 -0.3301  0.6538 -0.5470
12663TIP3   OH259403   0.549   1.143   5.016  0.2888 -0.0769 -0.0721
12663TIP3    H159404   0.506   1.107   4.938  2.2905  0.6957 -1.6355
12663TIP3    H259405   0.642   1.125   5.002  0.8785  1.6240  1.3128
12664TIP3   OH259406   0.272   5.770  10.674  0.0094  0.4491 -0.3351
12664TIP3    H159407   0.267   5.807  10.586  0.3171 -0.1277 -0.5961
12664TIP3    H259408   0.247   5.678  10.664  0.8060  0.1761  0.0446
12665TIP3   OH259409   6.477   0.021   2.746 -0.1285 -0.0024  0.1793
12665TIP3    H159410   6.562   0.063   2.737  0.1636 -0.4708  0.7083
12665TIP3    H259411   6.430   0.075   2.809 -1.0543  1.5243 -1.7222
12666TIP3   OH259412   5.031   1.658   0.537 -0.1788  0.4046 -0.2754
12666TIP3    H159413   4.984   1.651   0.621  0.5899  2.0517  0.3235
12666TIP3    H259414   4.981   1.602   0.478 -1.7539  0.5579  0.8402
12667TIP3   OH259415   6.053   5.840  11.204 -0.4621 -0.2782 -0.4016
12667TIP3    H159416   6.033   5.858  11.296 -0.7690  0.3532 -0.5854
12667TIP3    H259417   6.139   5.881  11.190  0.0086 -1.1598 -0.1665
12668TIP3   OH259418   3.119   3.183  13.780  0.1483 -0.4628  0.0882
12668TIP3    H159419   3.188   3.229  13.733 -1.2181  2.4067  0.6604
12668TIP3    H259420   3.053   3.164  13.713  0.4820 -1.1135 -0.0570
12669TIP3   OH259421   4.148   0.745  16.631  0.8303 -0.1095 -0.2975
12669TIP3    H159422   4.202   0.780  16.560 -0.1112  0.2941 -0.8321
12669TIP3    H259423   4.126   0.656  16.601 -1.2748  0.7619 -1.5343
12670TIP3   OH259424   4.142   6.207   2.840  0.1219 -0.0945  0.4385
12670TIP3    H159425   4.164   6.179   2.751 -0.3350  1.4064 -0.1761
12670TIP3    H259426   4.181   6.140   2.896  0.9694 -0.7371 -0.8625
12671TIP3   OH259427   5.776   6.387   1.192  0.5834 -0.6315 -0.5415
12671TIP3    H159428   5.736   6.339   1.265  3.1205 -0.5531  0.9984
12671TIP3    H259429   5.863   6.350   1.183  0.6727 -0.0077 -3.0095
12672TIP3   OH259430   5.169   4.717   2.163  0.6323  1.0784  0.7241
12672TIP3    H159431   5.192   4.633   2.203  1.8838  1.0440 -0.0534
12672TIP3    H259432   5.108   4.694   2.092  1.2928  0.7794  0.2472
12673TIP3   OH259433   0.918   0.672  15.133  0.4643  0.1377  0.4523
12673TIP3    H159434   0.953   0.760  15.138  1.3305 -0.2526  1.9085
12673TIP3    H259435   0.994   0.617  15.109 -0.2912 -0.1217 -1.6114
12674TIP3   OH259436   6.342   3.496   2.639  0.1462 -0.2935 -0.3189
12674TIP3    H159437   6.291   3.442   2.579 -2.3321 -0.0034  1.4110
12674TIP3    H259438   6.433   3.469   2.623 -0.6710 -2.3104 -2.0828
12675TIP3   OH259439   6.745   6.483   3.750  0.1406  0.7168 -0.0891
12675TIP3    H159440   6.705   6.479   3.837  0.9604 -1.1119  0.2439
12675TIP3    H259441   6.702   6.414   3.701  0.7947  0.6901 -0.6385
12676TIP3   OH259442   5.052   5.703  15.605  0.0333  0.0934 -0.3697
12676TIP3    H159443   5.001   5.728  15.682 -1.0245 -1.1967 -0.6055
12676TIP3    H259444   5.006   5.742  15.531  0.5884  0.6502 -0.4340
12677TIP3   OH259445   1.721   2.385  13.031 -0.1262  0.2016 -0.4478
12677TIP3    H159446   1.811   2.390  13.063 -0.0757 -0.1890 -0.5148
12677TIP3    H259447   1.701   2.473  13.002  0.3139  0.2457 -0.6303
12678TIP3   OH259448   3.642   3.428  15.281  0.6294  0.4094  0.9784
12678TIP3    H159449   3.663   3.436  15.374  1.8119  2.1191  0.6127
12678TIP3    H259450   3.698   3.492  15.238  0.3188 -0.5487 -0.9675
12679TIP3   OH259451   5.070   5.010   5.663 -0.1687 -0.6713  0.3112
12679TIP3    H159452   4.995   4.971   5.707 -1.2686  1.6802  0.6715
12679TIP3    H259453   5.034   5.050   5.584  0.8156 -0.1535  0.1057
12680TIP3   OH259454   4.962   4.898  14.771 -0.2727 -0.1981  0.1033
12680TIP3    H159455   5.053   4.871  14.784 -0.1443  0.7620  1.4031
12680TIP3    H259456   4.968   4.981  14.723 -0.4585 -0.1286  0.1989
12681TIP3   OH259457   4.787   1.615   5.840  0.2031 -0.3555  0.2065
12681TIP3    H159458   4.845   1.564   5.783 -0.3725 -1.0600  0.2354
12681TIP3    H259459   4.752   1.551   5.902 -0.4723  0.0900  0.2938
12682TIP3   OH259460   3.738   2.162   2.227 -0.4071  0.2631  0.4536
12682TIP3    H159461   3.748   2.077   2.184 -0.5014  0.3537  0.2553
12682TIP3    H259462   3.647   2.162   2.259 -0.5031  0.4182  0.1801
12683TIP3   OH259463   2.008   0.026  12.406  0.1842  0.6064  0.0676
12683TIP3    H159464   1.965   0.070  12.479  0.5033  0.6396  0.2358
12683TIP3    H259465   1.936  -0.015  12.358  0.0402 -0.0824  0.8400
12684TIP3   OH259466   1.031   5.211   3.681 -0.0759 -0.4682 -0.1670
12684TIP3    H159467   1.076   5.257   3.611 -0.0700 -1.5160 -0.8619
12684TIP3    H259468   1.096   5.151   3.717 -0.5743 -1.2084 -0.4593
12685TIP3   OH259469   1.813   2.480  15.357 -0.0962  0.0620  0.5525
12685TIP3    H159470   1.729   2.503  15.318 -1.7123 -1.9084  2.6237
12685TIP3    H259471   1.800   2.391  15.391  2.5675  0.0158  1.6861
12686TIP3   OH259472   2.742   5.001  11.631  0.5018 -0.4266 -0.0847
12686TIP3    H159473   2.780   4.950  11.559 -0.0349 -3.1655  1.4505
12686TIP3    H259474   2.648   5.000  11.614  0.3719 -1.1115  0.6588
12687TIP3   OH259475   2.695   0.751  11.510  0.4006  0.4173 -0.0830
12687TIP3    H159476   2.739   0.833  11.486  1.6179  0.0247  0.7309
12687TIP3    H259477   2.748   0.715  11.581 -0.7164 -0.5614  0.2898
12688TIP3   OH259478   3.460   3.870   1.621  0.0611 -0.2786 -0.2561
12688TIP3    H159479   3.460   3.775   1.608 -2.6211 -0.4904  0.8105
12688TIP3    H259480   3.512   3.904   1.547  1.9676 -2.5813 -0.0804
12689TIP3   OH259481   1.503   5.492  14.805 -0.3065 -0.6773 -0.1692
12689TIP3    H159482   1.548   5.563  14.758 -0.6128  1.0034  1.9160
12689TIP3    H259483   1.573   5.445  14.850 -0.3517  1.4689  2.4523
12690TIP3   OH259484   5.132   4.476  15.916 -0.2426 -0.1359 -0.5555
12690TIP3    H159485   5.223   4.454  15.935 -0.7845 -3.2402 -0.9974
12690TIP3    H259486   5.085   4.457  15.996 -0.5751  1.4695 -0.3240
12691TIP3   OH259487   4.462   4.808   4.663 -0.2170  0.8284  0.1173
12691TIP3    H159488   4.501   4.824   4.577 -1.8745  0.1896 -0.8066
12691TIP3    H259489   4.493   4.721   4.687 -0.2850  0.7213 -0.1696
12692TIP3   OH259490   2.809   0.049   3.237  0.0692 -0.0479  0.1892
12692TIP3    H159491   2.746  -0.005   3.284  0.5844  1.3757  2.6809
12692TIP3    H259492   2.820   0.005   3.153 -1.6761 -2.1757  0.9745
12693TIP3   OH259493   0.489   2.937   4.346  0.1263 -0.5222  0.0136
12693TIP3    H159494   0.524   3.011   4.296  0.5018  0.5177  1.6964
12693TIP3    H259495   0.399   2.963   4.367  0.5120 -0.1144  1.2966
12694TIP3   OH259496   1.978   4.219  11.895 -0.1255  0.0786 -0.1822
12694TIP3    H159497   1.941   4.269  11.822 -0.2928 -0.1686 -0.2681
12694TIP3    H259498   2.058   4.181  11.860  0.0105  0.3030 -0.1121
12695TIP3   OH259499   0.509   5.904  12.454  0.1554  0.0996 -0.1143
12695TIP3    H159500   0.463   5.851  12.389  0.7124 -0.6394  0.0798
12695TIP3    H259501   0.515   5.991  12.413  0.4575 -0.3387 -1.0486
12696TIP3   OH259502   5.499   2.517   2.913  0.0021 -0.6009 -0.2074
12696TIP3    H159503   5.465   2.505   3.001 -0.4836  0.6526 -0.2082
12696TIP3    H259504   5.538   2.605   2.914 -0.5619 -0.3148 -1.4007
12697TIP3   OH259505   3.014   0.718   5.272  0.3461 -0.5654 -0.0565
12697TIP3    H159506   3.015   0.639   5.218  0.2230  0.1322 -1.1065
12697TIP3    H259507   2.923   0.749   5.266  0.2025 -0.7458  0.9728
12698TIP3   OH259508   1.967   1.374  12.721 -0.4384  0.3299 -0.0004
12698TIP3    H159509   1.914   1.347  12.797  0.5362 -0.1255  0.5275
12698TIP3    H259510   1.979   1.294  12.671 -0.8763  0.5846 -0.5269
12699TIP3   OH259511   1.728   2.191  16.000  0.4955  0.1808 -0.3026
12699TIP3    H159512   1.726   2.105  15.957 -0.6462  0.3038 -0.5394
12699TIP3    H259513   1.813   2.194  16.045 -0.0739 -1.7227  1.0391
12700TIP3   OH259514   5.077   5.682   5.395  0.3861  0.3134  0.3475
12700TIP3    H159515   5.130   5.703   5.472 -2.0577  0.6448  2.0652
12700TIP3    H259516   5.032   5.764   5.374 -1.0843 -0.4537  0.3574
12701TIP3   OH259517   4.695   0.936  14.383 -0.0996  0.5846  0.6429
12701TIP3    H159518   4.696   0.909  14.475  1.7646 -2.2787 -0.1068
12701TIP3    H259519   4.787   0.949  14.361 -0.4577  0.4119 -1.0504
12702TIP3   OH259520   6.356   1.720  12.500  0.3618 -0.2162 -0.0519
12702TIP3    H159521   6.399   1.796  12.540  1.0959 -0.3879 -0.4962
12702TIP3    H259522   6.293   1.691  12.566  0.3189  0.5623  0.2659
12703TIP3   OH259523   1.723   3.053   1.693 -0.0788 -0.0468 -0.3450
12703TIP3    H159524   1.702   3.013   1.777 -0.1065 -1.0567 -0.8187
12703TIP3    H259525   1.700   3.145   1.703 -2.6253 -0.6389 -0.0972
12704TIP3   OH259526   6.186   4.593   2.368 -0.3782 -0.2564 -0.3062
12704TIP3    H159527   6.131   4.651   2.421  0.2534 -0.4843  0.6302
12704TIP3    H259528   6.257   4.567   2.427  1.4626  1.0021 -1.8474
12705TIP3   OH259529   0.314   0.587   3.355 -0.0668  0.5427 -0.6346
12705TIP3    H159530   0.273   0.674   3.355 -1.0262  0.0989 -1.0033
12705TIP3    H259531   0.282   0.546   3.436  2.7064  1.5596  1.1396
12706TIP3   OH259532   6.512   3.131  15.754  0.6381 -0.1697 -0.6673
12706TIP3    H159533   6.453   3.060  15.730  0.7045 -0.0526 -1.1883
12706TIP3    H259534   6.462   3.183  15.816  0.1865 -0.0791 -1.0990
12707TIP3   OH259535   4.927   6.651  10.643 -0.1628 -0.2289  0.4243
12707TIP3    H159536   4.910   6.671  10.735  0.0771  0.0340  0.4148
12707TIP3    H259537   5.021   6.665  10.633 -0.2210 -0.0672  0.0939
12708TIP3   OH259538   2.277   3.157   2.191  0.3606  0.2870  0.4241
12708TIP3    H159539   2.329   3.221   2.144 -1.7503  1.3917 -0.5727
12708TIP3    H259540   2.191   3.159   2.148 -0.2548 -2.1038  1.3465
12709TIP3   OH259541   1.760   6.173   1.931  0.4495 -0.1281 -0.1216
12709TIP3    H159542   1.724   6.086   1.917 -1.0501  0.3357  0.5923
12709TIP3    H259543   1.687   6.232   1.914  1.3657  0.9876 -0.3313
12710TIP3   OH259544   0.941   6.445   4.910 -0.2936  0.1944  0.4255
12710TIP3    H159545   0.928   6.356   4.876  1.6218 -0.6959  1.8496
12710TIP3    H259546   0.859   6.490   4.888 -1.3112 -1.8812 -0.4057
12711TIP3   OH259547   6.016   0.493   0.722  0.6178  0.0339 -0.0433
12711TIP3    H159548   6.072   0.526   0.651 -0.5385 -1.6709 -1.8570
12711TIP3    H259549   5.927   0.513   0.692 -0.0455 -3.0512 -0.4267
12712TIP3   OH259550   3.522   5.545   3.671  0.5364  0.4958  0.1599
12712TIP3    H159551   3.614   5.553   3.695  0.1103  2.3623  1.3729
12712TIP3    H259552   3.497   5.631   3.639 -0.7116 -0.0936 -0.5496
12713TIP3   OH259553   1.452   3.051   4.882  0.0634  0.3736 -0.0555
12713TIP3    H159554   1.474   3.012   4.967  0.9164  0.8376 -0.0571
12713TIP3    H259555   1.404   2.983   4.836  2.5427 -1.1571 -0.5324
12714TIP3   OH259556   4.432   0.751   3.073 -0.4994  0.0523  0.2389
12714TIP3    H159557   4.389   0.812   3.133  1.7196  1.5603  0.3845
12714TIP3    H259558   4.404   0.779   2.986 -0.2844  0.6209  0.3544
12715TIP3   OH259559   6.661   6.747  13.499  0.4359 -0.2254  0.4265
12715TIP3    H159560   6.649   6.653  13.506  0.4313 -0.1092  3.0904
12715TIP3    H259561   6.721   6.769  13.570 -0.2429  1.8741  0.4324
12716TIP3   OH259562   1.084   4.063  12.349 -0.1092 -0.2776 -0.1488
12716TIP3    H159563   1.007   4.071  12.293 -0.3297  0.3176  0.2226
12716TIP3    H259564   1.110   3.971  12.342 -2.0518 -0.9939  1.2799
12717TIP3   OH259565   2.731   2.448   4.761  0.8891  0.2647 -0.1508
12717TIP3    H159566   2.714   2.525   4.816  1.5788 -0.8300  1.6936
12717TIP3    H259567   2.780   2.388   4.818  1.9805 -0.8071 -2.1001
12718TIP3   OH259568   1.028   3.651  17.046  0.0978  0.2258 -0.4905
12718TIP3    H159569   1.088   3.704  16.994  0.5955 -0.6332 -0.8127
12718TIP3    H259570   1.061   3.562  17.037 -1.0718 -0.2301 -0.4554
12719TIP3   OH259571   3.646   2.742   1.142  0.0146 -0.0756 -0.1119
12719TIP3    H159572   3.641   2.694   1.059  0.5603  0.0019 -0.1887
12719TIP3    H259573   3.607   2.682   1.205 -3.9002  1.2611 -0.9837
12720TIP3   OH259574   6.458   3.248  12.548  0.2098 -0.7387  0.0637
12720TIP3    H159575   6.411   3.319  12.505  2.3985  1.8321  1.6505
12720TIP3    H259576   6.397   3.217  12.615 -0.5899 -0.0035 -0.2963
12721TIP3   OH259577   2.327   4.104   3.766  0.7060  0.2804  0.4866
12721TIP3    H159578   2.252   4.102   3.707  1.2483  0.5368 -0.2274
12721TIP3    H259579   2.289   4.115   3.853 -0.0286  2.2139 -0.0282
12722TIP3   OH259580   1.977   2.159  11.479  0.1341  0.5153 -0.7695
12722TIP3    H159581   2.017   2.238  11.443  0.6077 -0.5429 -2.7073
12722TIP3    H259582   2.043   2.123  11.537  0.7837  0.4223 -1.5496
12723TIP3   OH259583   2.595   4.073  16.652  0.0679  0.0377  0.0224
12723TIP3    H159584   2.656   4.144  16.630 -0.1342  0.2695  0.2216
12723TIP3    H259585   2.518   4.116  16.688  0.4677 -0.3474  1.4034
12724TIP3   OH259586   0.029   4.707   6.260  0.3276 -0.2223 -0.3063
12724TIP3    H159587   0.058   4.770   6.193  1.0899  0.0601  0.2655
12724TIP3    H259588  -0.062   4.731   6.277 -0.0041 -0.5470 -1.5133
12725TIP3   OH259589   0.672   6.421   2.262  0.3140 -0.5090  0.4774
12725TIP3    H159590   0.671   6.328   2.239 -0.2952 -0.4251  0.1714
12725TIP3    H259591   0.581   6.443   2.282 -0.0939  0.7326 -2.3138
12726TIP3   OH259592   0.591   0.176  15.713 -0.0952 -0.1112 -0.3115
12726TIP3    H159593   0.606   0.179  15.618 -0.5856 -0.2734 -0.3960
12726TIP3    H259594   0.498   0.156  15.722 -0.1539  0.3870  0.2071
12727TIP3   OH259595   1.016   3.876   1.864  0.0448  0.3930  0.1792
12727TIP3    H159596   1.034   3.806   1.927 -1.3698 -0.6205 -0.4998
12727TIP3    H259597   1.101   3.918   1.850  1.2120 -1.9862 -0.3339
12728TIP3   OH259598   4.441   0.576  12.598 -0.3295  0.4959 -0.1083
12728TIP3    H159599   4.432   0.481  12.611  0.9473  0.3839  0.1044
12728TIP3    H259600   4.475   0.608  12.682  0.7660  0.9010 -0.6939
12729TIP3   OH259601   3.442   6.121   3.728 -0.5217  0.6889  0.7516
12729TIP3    H159602   3.399   6.179   3.791 -0.7874  0.0144  1.2032
12729TIP3    H259603   3.513   6.080   3.778 -0.6967  0.1956  0.6015
12730TIP3   OH259604   3.674   4.074   3.002  0.2359  0.5917  0.1912
12730TIP3    H159605   3.600   4.033   3.046 -0.2758  1.4019  0.1069
12730TIP3    H259606   3.721   4.119   3.072  0.3320  0.5476  0.1552
12731TIP3   OH259607   6.410   2.944   1.212  0.0072 -0.0507  0.1564
12731TIP3    H159608   6.459   2.878   1.260  0.8806  0.7065  0.3342
12731TIP3    H259609   6.419   2.919   1.120 -0.1213 -0.4730  0.2562
12732TIP3   OH259610   1.508   1.444   2.576 -0.1711 -0.4659  0.0023
12732TIP3    H159611   1.554   1.365   2.548  1.7363  0.7370 -0.3942
12732TIP3    H259612   1.530   1.453   2.669 -1.2022 -0.8942  0.3123
12733TIP3   OH259613   0.087   1.401  15.881  0.3052 -0.1432  0.3552
12733TIP3    H159614  -0.003   1.399  15.848 -0.0487 -1.5723  1.3171
12733TIP3    H259615   0.124   1.482  15.845 -1.7307  1.1127  0.9236
12734TIP3   OH259616   4.447   5.131   0.896 -0.7130 -0.0839 -0.5813
12734TIP3    H159617   4.437   5.205   0.957  0.6617 -0.9378  0.7663
12734TIP3    H259618   4.530   5.149   0.852  0.1545 -1.2700  0.4865
12735TIP3   OH259619   2.747   5.760  11.009 -0.3423  0.0597 -0.2373
12735TIP3    H159620   2.696   5.686  11.043  0.2789 -0.3310 -0.1420
12735TIP3    H259621   2.690   5.798  10.941 -0.4429 -0.8508 -0.6914
12736TIP3   OH259622   2.070   6.504   2.933  0.2085  0.0068 -0.5292
12736TIP3    H159623   2.011   6.519   2.860  0.2484 -0.1713 -0.5990
12736TIP3    H259624   2.015   6.512   3.011 -0.0296 -0.7045 -0.6133
12737TIP3   OH259625   6.773   1.121  10.107 -0.1729  0.0125 -0.0657
12737TIP3    H159626   6.689   1.096  10.070  0.3185  0.4736 -1.5979
12737TIP3    H259627   6.804   1.044  10.154 -0.9122 -0.5530 -0.4977
12738TIP3   OH259628   4.136   1.975   4.020 -0.4075  0.1256 -0.3846
12738TIP3    H159629   4.139   2.005   3.929 -0.9973  1.2411 -0.0591
12738TIP3    H259630   4.064   1.912   4.022 -0.3371  0.0320 -0.7039
12739TIP3   OH259631   0.903   3.975   1.602 -0.0457  0.1946  0.0206
12739TIP3    H159632   0.942   3.970   1.689  0.4805 -1.2333 -0.2683
12739TIP3    H259633   0.962   3.925   1.546 -1.4884 -0.7302 -0.7337
12740TIP3   OH259634   6.656   6.656  14.789  0.1712  0.8562  0.0307
12740TIP3    H159635   6.594   6.604  14.840  0.5791  0.3215 -0.0184
12740TIP3    H259636   6.695   6.716  14.852 -0.0796  0.8996  0.1443
12741TIP3   OH259637   2.515   1.881   1.525  0.6920 -0.0228  0.0979
12741TIP3    H159638   2.517   1.803   1.470 -0.6904  0.2843 -0.4416
12741TIP3    H259639   2.451   1.938   1.482 -1.1825 -0.1600  2.5359
12742TIP3   OH259640   0.267   5.489  16.665 -0.2934 -0.2923  0.1687
12742TIP3    H159641   0.261   5.533  16.750  3.2105  0.2364  0.2881
12742TIP3    H259642   0.264   5.560  16.602 -1.7722 -0.5959 -0.1426
12743TIP3   OH259643   6.219   6.035  11.460  0.7077  0.6300 -0.1881
12743TIP3    H159644   6.128   6.004  11.463  1.2365 -0.9679 -0.3231
12743TIP3    H259645   6.210   6.131  11.454 -0.9950  0.4488 -1.6166
12744TIP3   OH259646   5.668   1.682   2.991  0.0698 -0.5966  0.1073
12744TIP3    H159647   5.575   1.702   3.003  0.5344  0.7897  1.7001
12744TIP3    H259648   5.679   1.596   3.032 -0.3371 -0.3629  0.7213
12745TIP3   OH259649   0.741   2.653  13.755  0.0686  0.0342 -0.2594
12745TIP3    H159650   0.671   2.645  13.689 -1.2513  0.8269  0.9809
12745TIP3    H259651   0.778   2.740  13.740 -2.3687  1.6086  1.9248
12746TIP3   OH259652   3.939   5.292  15.537 -0.2193  0.0872  0.0112
12746TIP3    H159653   4.016   5.285  15.481 -1.0020 -0.3455 -1.0539
12746TIP3    H259654   3.952   5.226  15.605 -0.0497 -0.6016 -0.6734
12747TIP3   OH259655   0.051   1.730  13.941 -0.3053  0.0011 -0.2132
12747TIP3    H159656  -0.036   1.757  13.911  0.3042 -0.3919 -2.5112
12747TIP3    H259657   0.040   1.638  13.963 -1.1303  0.6625  2.4878
12748TIP3   OH259658   2.205   0.352   1.767 -0.1020 -0.1315 -0.4415
12748TIP3    H159659   2.291   0.312   1.778 -0.0709  0.3221  1.2557
12748TIP3    H259660   2.177   0.325   1.680  1.8608 -0.0727 -1.1302
12749TIP3   OH259661   2.239   5.491  16.743  0.9770 -0.7527  0.2536
12749TIP3    H159662   2.292   5.545  16.803 -0.2572 -1.7770  2.3891
12749TIP3    H259663   2.287   5.409  16.737  0.2863 -1.2558  1.2489
12750TIP3   OH259664   0.605   1.587  16.365  0.1267  0.1724 -0.1972
12750TIP3    H159665   0.575   1.613  16.278 -2.6671  0.8919  0.8527
12750TIP3    H259666   0.623   1.493  16.357  0.4791  0.3311 -1.6439
12751TIP3   OH259667   3.895   5.571  11.913 -0.4018 -0.0447  0.8839
12751TIP3    H159668   3.964   5.636  11.922  1.9198 -1.8205 -1.9378
12751TIP3    H259669   3.941   5.491  11.886 -3.4786 -1.6545 -0.1131
12752TIP3   OH259670   2.787   0.965   5.111  0.3295 -0.3271 -0.3562
12752TIP3    H159671   2.695   0.992   5.121  0.7376  1.1575 -0.3528
12752TIP3    H259672   2.783   0.869   5.106 -1.1287 -0.3466  0.5274
12753TIP3   OH259673   0.855   4.712   3.501  0.1190 -0.2232 -0.1384
12753TIP3    H159674   0.809   4.685   3.581 -1.5312 -0.4269 -1.1027
12753TIP3    H259675   0.793   4.770   3.456  1.8563  1.6475 -0.2689
12754TIP3   OH259676   2.421   3.940  12.681  0.5183  0.1714 -0.0749
12754TIP3    H159677   2.459   4.005  12.741  0.0527  0.3727  0.0035
12754TIP3    H259678   2.327   3.957  12.684  0.4468 -0.1570 -0.4696
12755TIP3   OH259679   0.094   1.977   2.571  0.0081 -0.2126 -0.6401
12755TIP3    H159680   0.136   1.929   2.643 -1.3448  0.9282  0.9769
12755TIP3    H259681   0.005   1.944   2.568 -0.5230  1.1177 -0.4551
12756TIP3   OH259682   1.249   1.777   2.714 -0.3079  0.1005 -0.0024
12756TIP3    H159683   1.271   1.851   2.656 -0.6462 -1.0526 -1.6916
12756TIP3    H259684   1.330   1.759   2.761  0.3738  0.2895 -1.0612
12757TIP3   OH259685   3.137   2.724   0.530  0.0132  0.0069 -0.1069
12757TIP3    H159686   3.132   2.739   0.624 -1.6765  2.8470 -0.4969
12757TIP3    H259687   3.094   2.801   0.492  0.1260 -1.3010 -3.1875
12758TIP3   OH259688   4.556   2.234  11.281  0.0033 -0.9856 -0.1726
12758TIP3    H159689   4.467   2.254  11.311 -0.1212 -1.3099 -0.3300
12758TIP3    H259690   4.598   2.320  11.272  0.8126 -0.8677  3.2420
12759TIP3   OH259691   0.925   4.179   0.175  0.2836 -0.6708  0.3039
12759TIP3    H159692   0.872   4.216   0.105  1.4466 -0.9909 -0.7835
12759TIP3    H259693   0.952   4.254   0.228  1.2928 -0.1023 -0.9472
12760TIP3   OH259694   1.616   0.253   6.057  0.1774  0.4201  0.0499
12760TIP3    H159695   1.605   0.170   6.102  0.3095 -0.1161 -0.8752
12760TIP3    H259696   1.564   0.245   5.977  0.6776  0.9938 -0.3460
12761TIP3   OH259697   1.287   2.951   0.612 -0.8129  0.0442  0.1929
12761TIP3    H159698   1.193   2.936   0.606 -1.1126  0.0975  3.1479
12761TIP3    H259699   1.320   2.876   0.661  0.8669 -0.3752 -1.4707
12762TIP3   OH259700   5.721   2.986   0.251 -0.3630  0.2944 -0.0642
12762TIP3    H159701   5.706   2.892   0.252  0.9722 -0.0097  3.2010
12762TIP3    H259702   5.767   3.004   0.333 -0.7911  3.8332 -0.4387
12763TIP3   OH259703   6.270   4.004   0.338  0.2326  0.2838 -0.1433
12763TIP3    H159704   6.229   3.924   0.306  0.1590  0.9149 -1.7537
12763TIP3    H259705   6.210   4.037   0.405 -0.9775  0.2438 -1.1769
12764TIP3   OH259706   1.615   5.317   4.081 -0.1999 -0.1040  0.4808
12764TIP3    H159707   1.630   5.244   4.021 -0.1972  1.4957 -1.5582
12764TIP3    H259708   1.539   5.362   4.046 -0.0498  1.0248  1.5432
12765TIP3   OH259709   6.345   2.278  15.445  0.2089  0.2824 -0.3787
12765TIP3    H159710   6.291   2.262  15.522  0.4398 -1.3127 -0.5060
12765TIP3    H259711   6.333   2.371  15.425 -3.4926 -0.2156 -1.1382
12766TIP3   OH259712   0.601   1.681  16.819 -0.3241 -0.8992  0.3168
12766TIP3    H159713   0.656   1.696  16.742 -0.1456 -2.1556  0.1760
12766TIP3    H259714   0.656   1.630  16.878 -0.5883 -0.2612  1.1369
12767TIP3   OH259715   3.208   3.456  14.904  0.2938 -0.2362 -0.1089
12767TIP3    H159716   3.155   3.381  14.876  2.1786 -0.9145 -2.1169
12767TIP3    H259717   3.225   3.440  14.997  0.2991 -2.0644 -0.3937
12768TIP3   OH259718   0.444   0.488   4.769 -0.3771 -0.3404  0.0923
12768TIP3    H159719   0.499   0.561   4.798 -2.4232  0.5689  1.9079
12768TIP3    H259720   0.493   0.409   4.794  1.1041  0.3841 -0.4197
12769TIP3   OH259721   6.604   0.216   4.982 -0.0412  0.2201 -0.1189
12769TIP3    H159722   6.691   0.245   5.007  0.3575  0.5912 -1.7919
12769TIP3    H259723   6.612   0.121   4.971 -0.1969  0.0687  0.9748
12770TIP3   OH259724   5.648   6.702  16.147 -0.2858  0.4388  0.8203
12770TIP3    H159725   5.573   6.645  16.130 -0.0371  0.1730  0.6028
12770TIP3    H259726   5.615   6.790  16.130 -0.3307  0.2641 -0.0575
12771TIP3   OH259727   4.107   2.177  16.942 -0.3406  0.5318  0.1642
12771TIP3    H159728   4.015   2.154  16.933 -0.3008 -0.1093  1.2192
12771TIP3    H259729   4.108   2.258  16.992 -0.3268  0.0720  0.9392
12772TIP3   OH259730   0.727   0.342  12.397  0.1492 -0.1039  0.5530
12772TIP3    H159731   0.810   0.342  12.445  0.4195  0.6688  0.0998
12772TIP3    H259732   0.683   0.422  12.425 -0.8017 -0.8886  1.3761
12773TIP3   OH259733   5.439   1.668   6.354 -0.5327 -0.3564 -0.0490
12773TIP3    H159734   5.533   1.659   6.339 -0.7679  1.5307 -3.9465
12773TIP3    H259735   5.403   1.582   6.335  0.2520 -0.5906 -0.5121
12774TIP3   OH259736   1.866   3.261  10.980 -0.1334 -0.0369 -0.7512
12774TIP3    H159737   1.877   3.339  10.926 -0.7080  2.1196  2.0288
12774TIP3    H259738   1.948   3.213  10.969  1.5430  2.5270 -0.3162
12775TIP3   OH259739   5.460   0.359   0.125 -0.3783  0.0340  0.2389
12775TIP3    H159740   5.493   0.414   0.054 -0.8833  0.0977  0.0447
12775TIP3    H259741   5.481   0.407   0.205 -1.9223  1.1447  0.0210
12776TIP3   OH259742   6.515   1.405   3.540  0.4376  0.7902  0.2115
12776TIP3    H159743   6.439   1.454   3.509 -1.0378 -1.8515 -0.7665
12776TIP3    H259744   6.573   1.398   3.464 -0.4760 -0.8485 -0.3921
12777TIP3   OH259745   3.235   5.841  12.410 -0.0536  0.1643 -0.2953
12777TIP3    H159746   3.245   5.754  12.372 -1.1570  0.7086 -1.9871
12777TIP3    H259747   3.304   5.893  12.368 -1.4076  0.8195 -1.8386
12778TIP3   OH259748   4.366   3.614  14.676  0.1553 -0.2663  0.2036
12778TIP3    H159749   4.372   3.703  14.711  0.7945 -0.3168  0.2432
12778TIP3    H259750   4.364   3.626  14.581  0.8359 -0.2218  0.1845
12779TIP3   OH259751   1.060   3.074   5.728 -0.1926  0.4008  0.4611
12779TIP3    H159752   1.135   3.099   5.782 -1.0850  1.2393  1.3826
12779TIP3    H259753   0.985   3.118   5.770 -0.6572  3.2114 -2.8251
12780TIP3   OH259754   4.449   5.768   0.892 -0.1970 -0.2612 -0.0887
12780TIP3    H159755   4.405   5.698   0.844  0.1107  0.2991 -1.2292
12780TIP3    H259756   4.490   5.822   0.824  3.6526 -1.6169  0.8973
12781TIP3   OH259757   0.059   0.367  12.512 -0.1827  0.0816 -0.0269
12781TIP3    H159758   0.128   0.428  12.487  1.1845 -0.8941  1.2083
12781TIP3    H259759   0.044   0.314  12.433 -0.8691  1.4965 -0.8789
12782TIP3   OH259760   2.573   4.910   1.462 -0.3651 -0.0868  0.1328
12782TIP3    H159761   2.609   4.958   1.536  0.3277 -0.8642  0.3096
12782TIP3    H259762   2.642   4.911   1.396 -0.8705  0.3527 -0.4040
12783TIP3   OH259763   1.347   0.670  16.024  0.1456  0.2618  0.2258
12783TIP3    H159764   1.392   0.659  15.940  2.0756  0.8356  1.1256
12783TIP3    H259765   1.256   0.688  16.000  1.3112  4.6826 -2.0259
12784TIP3   OH259766   2.202   3.011   1.384 -0.9035 -0.1602 -0.2062
12784TIP3    H159767   2.115   3.051   1.384 -0.0330  1.8986 -1.6874
12784TIP3    H259768   2.254   3.067   1.327  1.7078 -0.7272  1.4725
12785TIP3   OH259769   3.984   6.782   4.850 -0.6984  0.1101  0.5044
12785TIP3    H159770   4.015   6.712   4.791 -0.6398 -0.1859  0.8821
12785TIP3    H259771   3.895   6.757   4.873 -1.1098  0.7915 -0.3175
12786TIP3   OH259772   3.021   2.131  16.859 -0.3048  0.0470 -0.4095
12786TIP3    H159773   3.088   2.155  16.923 -0.6054 -0.2196  0.0089
12786TIP3    H259774   2.939   2.134  16.908 -0.4015 -1.4421 -0.4507
12787TIP3   OH259775   5.909   5.739  15.963  0.6038 -0.5191  0.7006
12787TIP3    H159776   5.931   5.778  15.878 -0.4994 -0.5576  0.3926
12787TIP3    H259777   5.994   5.711  15.998  1.3085  1.1252  0.4311
12788TIP3   OH259778   6.634   5.512   5.740  0.0400  0.1530  0.1082
12788TIP3    H159779   6.652   5.573   5.668 -0.6511 -0.1466 -0.3322
12788TIP3    H259780   6.721   5.482   5.768  0.3944  1.3732  0.3723
12789TIP3   OH259781   5.946   4.446   4.983 -0.4079  0.0669 -0.1958
12789TIP3    H159782   6.002   4.452   5.061 -0.0542  0.1681 -0.4556
12789TIP3    H259783   5.976   4.367   4.938 -1.9344 -1.1259  0.7878
12790TIP3   OH259784   5.997   4.953   4.094 -0.4696 -1.0348 -0.6538
12790TIP3    H159785   6.029   4.889   4.159  0.2374 -0.5877 -0.5482
12790TIP3    H259786   6.066   5.019   4.090  0.0248 -1.6191 -2.6857
12791TIP3   OH259787   4.102   0.421  11.912  0.3608  0.1233  0.4058
12791TIP3    H159788   4.088   0.415  12.007 -2.3807  0.1165  0.0896
12791TIP3    H259789   4.121   0.514  11.897  0.1294  0.2550  0.9009
12792TIP3   OH259790   3.142   2.144   3.713 -0.7825 -0.1354  0.0324
12792TIP3    H159791   3.231   2.166   3.740 -0.5472  0.4211 -1.1228
12792TIP3    H259792   3.134   2.181   3.625 -1.8850 -0.8911 -0.2062
12793TIP3   OH259793   1.131   3.234   3.225 -0.0380  0.7293  0.7321
12793TIP3    H159794   1.138   3.197   3.313 -0.9609  0.2427  0.6211
12793TIP3    H259795   1.105   3.326   3.240  0.8489  0.9451  0.9812
12794TIP3   OH259796   6.623   6.124  11.115  0.2652  0.2844 -0.4796
12794TIP3    H159797   6.620   6.115  11.020  1.2301 -1.6759 -0.3855
12794TIP3    H259798   6.547   6.076  11.146  0.1024  0.6890 -0.2503
12795TIP3   OH259799   1.440   1.312  15.347 -0.1227 -0.0203  0.4388
12795TIP3    H159800   1.350   1.282  15.338 -0.5909  1.3079  0.3897
12795TIP3    H259801   1.448   1.384  15.285  0.8347  0.1732  0.7622
12796TIP3   OH259802   1.186   3.716  16.470  0.3811  0.1476 -0.1982
12796TIP3    H159803   1.275   3.697  16.439  0.8137  1.4350  0.2083
12796TIP3    H259804   1.197   3.788  16.532 -0.8301 -0.3660  0.6651
12797TIP3   OH259805   2.222   5.045  14.332 -0.5357  0.0967 -0.0270
12797TIP3    H159806   2.160   5.115  14.354  0.0868  0.1224  1.7657
12797TIP3    H259807   2.287   5.047  14.402 -1.3226 -3.2424  0.9722
12798TIP3   OH259808   0.268   0.881   2.734 -0.1954 -0.5542 -0.0844
12798TIP3    H159809   0.305   0.878   2.646  0.4510 -0.1172  0.1614
12798TIP3    H259810   0.344   0.891   2.791 -0.7825  2.9313  0.2964
12799TIP3   OH259811   2.595   1.413   0.198  0.2754  0.2720 -0.5688
12799TIP3    H159812   2.565   1.360   0.271  1.0422  1.1228  0.3922
12799TIP3    H259813   2.628   1.350   0.134  2.8921 -0.4292  1.3038
12800TIP3   OH259814   5.540   0.495   0.356 -0.0121 -0.0880 -0.2580
12800TIP3    H159815   5.494   0.520   0.436  0.3259  0.4247 -0.2179
12800TIP3    H259816   5.611   0.438   0.387  0.5789  0.7176 -0.1035
12801TIP3   OH259817   5.579   0.074   3.390 -0.1370 -0.2384 -0.3258
12801TIP3    H159818   5.628   0.010   3.338  0.4287 -0.1071  0.0426
12801TIP3    H259819   5.504   0.097   3.335 -0.7782 -1.7978 -0.1477
12802TIP3   OH259820   4.948   0.652  10.982  0.6628 -0.0179 -0.4667
12802TIP3    H159821   4.981   0.591  10.916  3.6591  1.7519 -0.7856
12802TIP3    H259822   4.942   0.736  10.936  1.9720  1.0654  1.2296
12803TIP3   OH259823   2.016   4.090  13.069 -0.1486 -0.4255  0.0940
12803TIP3    H159824   1.928   4.055  13.083 -0.5139  0.7836  0.9692
12803TIP3    H259825   2.009   4.142  12.989 -0.4600  0.3625  0.6226
12804TIP3   OH259826   4.512   1.504   3.345  0.4936 -0.0947  0.0371
12804TIP3    H159827   4.564   1.536   3.271 -1.1290  0.6408 -0.8546
12804TIP3    H259828   4.495   1.412   3.324 -1.0012  0.4185 -1.2050
12805TIP3   OH259829   4.590   1.023  10.865 -0.2005  0.1586  0.5284
12805TIP3    H159830   4.651   1.082  10.821  0.3358 -0.4996  0.3662
12805TIP3    H259831   4.592   0.944  10.811 -0.3689 -0.2626  1.1370
12806TIP3   OH259832   5.704   0.368  15.797  0.4732  0.5444  0.3796
12806TIP3    H159833   5.724   0.388  15.706  0.1479  3.1824  0.8090
12806TIP3    H259834   5.678   0.452  15.835 -2.4499 -0.9916  2.1476
12807TIP3   OH259835   1.574   3.005   5.436 -0.1207 -0.2281 -0.3845
12807TIP3    H159836   1.649   3.000   5.495  0.6285  0.7385 -1.2173
12807TIP3    H259837   1.499   3.020   5.493  0.7833  2.3580  0.2372
12808TIP3   OH259838   6.059   4.891   0.948  0.3394  0.5135 -0.0418
12808TIP3    H159839   6.144   4.910   0.907 -0.6817  2.9403 -1.2323
12808TIP3    H259840   6.030   4.810   0.908  1.7160  0.0802 -0.2229
12809TIP3   OH259841   0.925   3.964  13.456 -0.2396 -0.4047  0.1103
12809TIP3    H159842   0.975   4.026  13.509  0.5993 -1.9918  1.2467
12809TIP3    H259843   0.870   4.020  13.400  0.3572  1.3447  1.1783
12810TIP3   OH259844   6.341   6.366   4.915 -0.5842 -0.4173 -0.2214
12810TIP3    H159845   6.310   6.456   4.906  1.4732  0.2166 -1.8580
12810TIP3    H259846   6.286   6.315   4.855  1.2949  0.6634 -3.0240
12811TIP3   OH259847   5.938   3.683   5.473  0.1877  0.2030 -0.0273
12811TIP3    H159848   5.996   3.607   5.479  0.6906  0.3119 -2.4221
12811TIP3    H259849   5.858   3.649   5.433  0.2356  0.8201 -0.6685
12812TIP3   OH259850   0.131   0.114  12.280  0.6070 -0.4787  0.2652
12812TIP3    H159851   0.066   0.178  12.251  0.5384 -0.6616  0.0094
12812TIP3    H259852   0.198   0.115  12.212  1.6480  0.8007  1.2550
12813TIP3   OH259853   0.681   4.057  12.799 -0.1217  0.2164 -0.3937
12813TIP3    H159854   0.710   4.140  12.836  0.3055  0.1096 -0.4845
12813TIP3    H259855   0.710   4.059  12.708 -0.9984  0.3932 -0.6801
12814TIP3   OH259856   3.164   4.574  11.137  0.2655  0.0209 -0.1117
12814TIP3    H159857   3.125   4.500  11.090  1.7779 -0.2298 -1.0310
12814TIP3    H259858   3.152   4.552  11.229  0.8353 -1.4663 -0.3649
12815TIP3   OH259859   3.942   0.681  12.426  0.2814 -0.4158 -0.1215
12815TIP3    H159860   4.026   0.635  12.430  1.6376  1.9821  1.1449
12815TIP3    H259861   3.935   0.712  12.336  0.0460 -1.7659 -0.5941
12816TIP3   OH259862   3.950   5.892   1.980  0.5996 -0.1206  0.3296
12816TIP3    H159863   3.945   5.958   1.910 -0.4857 -0.8482 -0.3139
12816TIP3    H259864   3.935   5.941   2.060 -2.3299  0.1936 -0.2892
12817TIP3   OH259865   1.271   6.514   0.860 -0.6077 -0.6865 -0.0432
12817TIP3    H159866   1.202   6.487   0.799 -0.9481 -0.7617  0.3736
12817TIP3    H259867   1.352   6.500   0.811 -0.9453  2.2368 -1.7215
12818TIP3   OH259868   3.467   3.273   0.606  0.3458  0.1256  0.3579
12818TIP3    H159869   3.455   3.351   0.552 -2.5704 -0.5896 -0.2039
12818TIP3    H259870   3.413   3.206   0.564  2.1814 -2.0211  1.2470
12819TIP3   OH259871   3.654   4.368   0.656 -0.0360 -0.1839 -0.0016
12819TIP3    H159872   3.723   4.404   0.711 -1.1427 -1.9804  2.7613
12819TIP3    H259873   3.695   4.293   0.613 -0.2868 -1.5171  1.9718
12820TIP3   OH259874   6.700   3.882  15.854  0.3935 -0.4920 -0.1304
12820TIP3    H159875   6.787   3.841  15.860 -0.7916 -3.0461  1.2273
12820TIP3    H259876   6.658   3.838  15.780 -0.9438 -1.9889  1.4192
12821TIP3   OH259877   5.872   5.138   2.016  0.1376 -0.3886  0.1843
12821TIP3    H159878   5.783   5.152   1.985 -0.7980  2.1842  3.3840
12821TIP3    H259879   5.927   5.194   1.961 -0.5811 -0.1440 -0.2864
12822TIP3   OH259880   0.527   3.269  12.017 -0.4439  0.2964 -0.0014
12822TIP3    H159881   0.553   3.227  12.099  1.6964  1.2863 -0.1137
12822TIP3    H259882   0.607   3.269  11.964 -0.5464  3.6273 -0.3547
12823TIP3   OH259883   1.178   1.802  11.465  0.1855 -0.0434 -0.1746
12823TIP3    H159884   1.217   1.886  11.441  1.4592 -0.3707  0.6746
12823TIP3    H259885   1.190   1.747  11.387  2.7528 -0.5664  0.5008
12824TIP3   OH259886   0.968   0.115  13.175  0.1495 -0.3549  0.0471
12824TIP3    H159887   0.941   0.028  13.206  0.6458 -0.7131 -0.5020
12824TIP3    H259888   0.892   0.149  13.129 -0.5433  0.1119  1.4640
12825TIP3   OH259889   6.785   0.406   5.791  0.2831  0.4883 -0.6816
12825TIP3    H159890   6.731   0.375   5.718  1.9292 -0.6782 -1.4664
12825TIP3    H259891   6.833   0.328   5.820 -0.0879  1.0007  1.4702
12826TIP3   OH259892   1.235   2.886  13.297  0.1869  0.0453  0.4100
12826TIP3    H159893   1.314   2.931  13.268 -0.3372  1.5042  1.1050
12826TIP3    H259894   1.202   2.941  13.369 -2.3871  0.4833 -0.9718
12827TIP3   OH259895   1.531   0.889  11.393  0.2137 -0.6841  0.2339
12827TIP3    H159896   1.558   0.921  11.307 -1.7274  0.2447 -0.0933
12827TIP3    H259897   1.578   0.943  11.456 -0.9518  1.0519 -0.3065
12828TIP3   OH259898   5.922   3.110   0.759  0.1679  0.0361  0.3315
12828TIP3    H159899   5.906   3.191   0.807  0.6996 -0.2994  1.0951
12828TIP3    H259900   5.835   3.071   0.750 -0.2651  1.2454 -1.0922
12829TIP3   OH259901   2.588   3.766   5.592  0.3794 -0.2007 -0.4713
12829TIP3    H159902   2.633   3.752   5.675 -2.5534 -1.2140  1.1051
12829TIP3    H259903   2.639   3.718   5.528  3.0917  1.1330  0.5329
12830TIP3   OH259904   3.580   1.541   5.151 -0.6172 -0.3573 -0.0687
12830TIP3    H159905   3.574   1.445   5.155  2.0261 -0.5590  1.0139
12830TIP3    H259906   3.638   1.564   5.224  1.0049  1.8038 -1.8960
12831TIP3   OH259907   4.890   1.246  11.938  0.1204  0.6835 -0.4772
12831TIP3    H159908   4.859   1.216  12.023  1.1621  0.9969  0.0363
12831TIP3    H259909   4.914   1.166  11.891  1.0872  0.5771  0.1617
12832TIP3   OH259910   5.756   3.682   0.988  0.3094 -0.3087 -0.1052
12832TIP3    H159911   5.821   3.673   0.919  1.5687 -2.2620  1.2546
12832TIP3    H259912   5.805   3.673   1.069 -0.8021  3.7367  1.2709
12833TIP3   OH259913   0.423   6.474  11.434 -0.3743 -0.0906  0.5012
12833TIP3    H159914   0.494   6.498  11.494 -1.9605  0.5050  2.2162
12833TIP3    H259915   0.466   6.421  11.367  1.2462 -2.1421  2.9883
12834TIP3   OH259916   0.039   2.573  10.745  0.7258  0.2831  0.4087
12834TIP3    H159917   0.058   2.639  10.679 -0.4160  2.4115  2.0767
12834TIP3    H259918   0.121   2.525  10.756  1.4449  1.0750 -1.2310
12835TIP3   OH259919   2.080   1.826  11.531 -0.6850  0.4230  0.0524
12835TIP3    H159920   1.987   1.833  11.511 -0.5724  1.0526 -0.2735
12835TIP3    H259921   2.121   1.895  11.478  0.0576 -0.3696 -0.4148
12836TIP3   OH259922   5.014   5.063   2.190  0.2995  0.2112  0.0261
12836TIP3    H159923   5.030   5.003   2.263  0.7243  0.5612  0.2221
12836TIP3    H259924   5.033   5.012   2.112  1.3667  0.3000  0.2166
12837TIP3   OH259925   0.318   0.734  13.721 -0.3263  0.7336 -0.2038
12837TIP3    H159926   0.311   0.667  13.653 -0.0790 -1.1899  1.5743
12837TIP3    H259927   0.235   0.783  13.715  0.2041  1.4816 -2.6611
12838TIP3   OH259928   1.263   1.194   6.164 -0.4141  0.1297  0.1394
12838TIP3    H159929   1.293   1.169   6.077  0.0628 -2.0809  0.8686
12838TIP3    H259930   1.344   1.211   6.213 -0.5696 -0.7326  0.7085
12839TIP3   OH259931   1.310   0.818  12.088  0.1747  0.1272  0.1483
12839TIP3    H159932   1.296   0.902  12.044  0.5549  0.3949  0.5312
12839TIP3    H259933   1.372   0.838  12.157 -1.1378 -0.0873  1.4294
12840TIP3   OH259934   4.727   5.034   2.241  0.0100 -0.1942  0.1619
12840TIP3    H159935   4.809   5.042   2.192 -1.3190 -1.1671 -2.3446
12840TIP3    H259936   4.679   5.114   2.221 -0.3468 -0.3820  0.2642
12841TIP3   OH259937   3.493   4.757   0.628 -0.6750  0.5341 -0.5507
12841TIP3    H159938   3.505   4.843   0.668 -1.0515  0.3121  0.0593
12841TIP3    H259939   3.449   4.775   0.544  0.0945  0.9991 -0.8640
12842TIP3   OH259940   6.658   2.612  14.248  0.5915  0.0706 -0.6122
12842TIP3    H159941   6.693   2.524  14.234 -0.1606  0.0659 -2.9267
12842TIP3    H259942   6.579   2.614  14.195 -0.0705  1.7747  0.3788
12843TIP3   OH259943   2.860   0.651   2.978  0.8776  0.1570 -1.0824
12843TIP3    H159944   2.890   0.721   3.035  0.5451 -0.4966 -0.0821
12843TIP3    H259945   2.776   0.623   3.015  1.8077 -1.9379 -0.3826
12844TIP3   OH259946   0.594   1.012  12.302  0.2784 -0.5713  0.2127
12844TIP3    H159947   0.602   0.971  12.216 -0.0286 -0.7977  0.2880
12844TIP3    H259948   0.683   1.014  12.336  0.7790  1.6167 -1.0537
12845TIP3   OH259949   5.000   2.139   5.005  0.2237  0.1884  0.3169
12845TIP3    H159950   4.951   2.125   5.086  1.3059 -1.1940  0.7653
12845TIP3    H259951   4.933   2.143   4.937 -0.5494 -1.4757  0.9239
12846TIP3   OH259952   6.293   5.827  13.058 -0.2892 -0.1870 -0.6438
12846TIP3    H159953   6.320   5.860  12.972 -0.3049 -1.8840 -1.3269
12846TIP3    H259954   6.262   5.738  13.041 -1.1230 -0.2379  0.9970
12847TIP3   OH259955   5.581   2.127  15.643  0.1826  0.0091 -0.1472
12847TIP3    H159956   5.653   2.119  15.705 -0.5930 -1.3744  0.6305
12847TIP3    H259957   5.622   2.159  15.563  1.4913  0.1874  0.5665
12848TIP3   OH259958   3.414   3.253   4.729 -0.1972 -0.3393 -0.1581
12848TIP3    H159959   3.329   3.253   4.773  0.6645  2.1246  1.7030
12848TIP3    H259960   3.437   3.160   4.723 -2.3440 -0.9832  0.6558
12849TIP3   OH259961   0.424   1.496  14.542 -0.4502  0.1647 -0.1279
12849TIP3    H159962   0.397   1.404  14.542  1.0554 -0.3011 -0.5913
12849TIP3    H259963   0.365   1.538  14.480 -0.6223 -0.6566 -0.5368
12850TIP3   OH259964   5.190   3.848  12.500 -0.0671  0.6691  0.1372
12850TIP3    H159965   5.096   3.851  12.514  0.2204  1.9622  2.2485
12850TIP3    H259966   5.200   3.820  12.409 -2.4323 -0.9337  0.2771
12851TIP3   OH259967   3.337   1.509  11.049 -0.1766 -0.5810 -0.5232
12851TIP3    H159968   3.396   1.441  11.082 -0.5431  0.2278  1.9578
12851TIP3    H259969   3.249   1.473  11.064 -0.3622 -0.1007 -0.4523
12852TIP3   OH259970   0.259   2.946  14.761 -0.0698  0.9549  0.1140
12852TIP3    H159971   0.275   2.920  14.670  2.1652 -0.8664  0.9156
12852TIP3    H259972   0.199   3.020  14.755 -0.0336  0.8560 -2.8336
12853TIP3   OH259973   3.620   2.755  15.671 -0.2688 -0.3764 -0.0570
12853TIP3    H159974   3.546   2.694  15.668  1.1407 -2.1164 -0.5541
12853TIP3    H259975   3.622   2.794  15.583  0.2544 -1.3811 -0.4967
12854TIP3   OH259976   2.554   6.796   3.479 -0.3770  0.0749  0.5962
12854TIP3    H159977   2.621   6.849   3.521  0.3796  0.4650 -1.0287
12854TIP3    H259978   2.487   6.859   3.452 -0.3017 -0.0056  0.2058
12855TIP3   OH259979   0.378   1.708  14.960  0.1608  0.2271 -0.1116
12855TIP3    H159980   0.341   1.782  15.008  0.4605 -0.7166  1.6536
12855TIP3    H259981   0.463   1.692  15.002 -0.1088 -1.4042 -0.1428
12856TIP3   OH259982   0.888   6.231   4.684 -0.0456  0.6708 -0.0697
12856TIP3    H159983   0.935   6.157   4.647  1.2030  0.8539  1.0804
12856TIP3    H259984   0.827   6.192   4.747  2.1190  0.6357  2.1758
12857TIP3   OH259985   2.566   5.420   0.396  0.4497 -0.4750 -0.2821
12857TIP3    H159986   2.493   5.482   0.399 -0.6714 -1.7690  0.8650
12857TIP3    H259987   2.540   5.355   0.331  1.5517  0.1436 -1.3790
12858TIP3   OH259988   2.337   5.942  13.139 -0.1648  0.5839  0.0399
12858TIP3    H159989   2.336   5.930  13.234  2.2682  1.7276  0.2746
12858TIP3    H259990   2.429   5.952  13.117 -0.4987 -1.3206 -2.7154
12859TIP3   OH259991   3.924   6.477   4.192  0.2149  0.6688  0.0167
12859TIP3    H159992   3.868   6.458   4.117 -1.8002  0.4872  1.4840
12859TIP3    H259993   3.919   6.571   4.204  0.9432  0.7610 -0.3688
12860TIP3   OH259994   0.497   1.274  13.982  0.2373 -0.1672 -0.2971
12860TIP3    H159995   0.415   1.244  14.020  0.3825  0.5170  0.5841
12860TIP3    H259996   0.491   1.251  13.889 -0.5869 -0.8736 -0.0707
12861TIP3   OH259997   4.818   3.819  13.476  0.3484 -0.1157  0.1735
12861TIP3    H159998   4.738   3.842  13.428  0.7539  0.9733 -0.0201
12861TIP3    H259999   4.789   3.759  13.545 -0.6067  0.1185 -0.0133
12862TIP3   OH260000   3.198   6.017   4.309  1.0023  0.1915  0.0248
12862TIP3    H160001   3.129   5.951   4.307  1.0032  0.1616  0.6537
12862TIP3    H260002   3.160   6.093   4.266  0.1448  0.5589  1.3578
12863TIP3   OH260003   3.382   2.632   1.721  0.2950  0.5424 -0.1177
12863TIP3    H160004   3.400   2.605   1.811  0.5454 -1.6068 -0.7565
12863TIP3    H260005   3.424   2.718   1.712  1.4808  0.1554  1.3936
12864TIP3   OH260006   5.291   2.722   0.632  0.4032 -0.3920  1.2153
12864TIP3    H160007   5.272   2.638   0.591  0.3599 -0.1659  0.7603
12864TIP3    H260008   5.206   2.755   0.660  0.2351  0.1370  0.1292
12865TIP3   OH260009   5.029   5.061  16.246  0.1694  0.5810  0.0139
12865TIP3    H160010   5.119   5.044  16.220 -0.0254  0.6378 -0.7200
12865TIP3    H260011   5.031   5.057  16.342  0.6486 -0.9743 -0.0232
12866TIP3   OH260012   0.811   4.134   4.044  0.4138  0.1306  0.0928
12866TIP3    H160013   0.815   4.088   4.128 -1.8201  0.2543  0.3350
12866TIP3    H260014   0.815   4.227   4.068  0.0904  0.1573  0.0503
12867TIP3   OH260015   1.920   5.810   4.579  1.0811  0.1445  0.0415
12867TIP3    H160016   1.902   5.747   4.510 -1.1241 -0.1887  0.8201
12867TIP3    H260017   1.913   5.760   4.660  1.4786  0.9480  0.5895
12868TIP3   OH260018   1.782   5.552   4.520 -1.0066 -0.1797 -0.1151
12868TIP3    H160019   1.830   5.551   4.602  1.4440  0.0585 -1.4542
12868TIP3    H260020   1.778   5.460   4.494  1.7206  0.0072 -1.5447
12869TIP3   OH260021   6.524   3.712   3.467 -0.2506  0.1184 -0.1731
12869TIP3    H160022   6.561   3.787   3.421 -0.5369  1.0707  1.0904
12869TIP3    H260023   6.449   3.748   3.515 -1.9781 -1.4639 -1.5246
12870TIP3   OH260024   6.671   0.394  15.685 -0.3135  0.3009  0.2120
12870TIP3    H160025   6.654   0.392  15.780 -1.0799  0.1140  0.0790
12870TIP3    H260026   6.610   0.330  15.649  0.2621  0.0718 -0.3741
12871TIP3   OH260027   4.663   5.695   5.812 -0.0398  0.1287  0.0769
12871TIP3    H160028   4.755   5.719   5.815 -0.2003  1.2364 -1.8825
12871TIP3    H260029   4.663   5.600   5.821  1.3778  0.0406 -0.5513
12872TIP3   OH260030   2.664   5.003   1.700  0.4247  0.5479 -0.4148
12872TIP3    H160031   2.725   5.055   1.752 -0.7525  1.1562  0.3979
12872TIP3    H260032   2.606   4.962   1.764  1.9851 -2.7891 -0.8998
12873TIP3   OH260033   3.860   2.218   1.041  0.3533  0.1635 -0.1316
12873TIP3    H160034   3.901   2.253   0.962  0.7111 -0.1768 -0.1047
12873TIP3    H260035   3.784   2.168   1.008  1.7893 -1.9258 -0.5131
12874TIP3   OH260036   0.357   3.154   0.002 -0.1170  0.0518  0.1540
12874TIP3    H160037   0.316   3.100   0.070  0.0763 -2.0360 -1.3046
12874TIP3    H260038   0.284   3.187  -0.050 -0.1636  0.2359  0.3308
12875TIP3   OH260039   3.905   3.327  16.833  0.3580 -0.7620  0.9564
12875TIP3    H160040   3.889   3.247  16.782 -0.1605 -0.4967  0.7031
12875TIP3    H260041   3.848   3.318  16.909  0.9460 -1.0395  1.3728
12876TIP3   OH260042   2.776   2.279  14.692 -0.0333 -0.0315  0.4099
12876TIP3    H160043   2.728   2.359  14.711  0.5981  0.3962  0.2426
12876TIP3    H260044   2.765   2.266  14.598 -2.4070 -1.6570  0.8255
12877TIP3   OH260045   4.017   2.473   1.034 -0.3496  0.6897  0.5369
12877TIP3    H160046   3.975   2.442   1.115  1.6738 -0.3285  1.2674
12877TIP3    H260047   4.108   2.489   1.059 -0.1645  2.4825 -1.0563
12878TIP3   OH260048   3.282   3.812   1.293  0.6800 -0.1803 -0.1278
12878TIP3    H160049   3.326   3.740   1.338  1.5145  1.6096  2.0894
12878TIP3    H260050   3.351   3.854   1.242  0.1835 -0.8784 -1.4515
12879TIP3   OH260051   6.605   3.013   5.612 -0.6730  0.0016 -0.0935
12879TIP3    H160052   6.696   2.999   5.636 -0.4631 -2.1443 -1.7407
12879TIP3    H260053   6.558   2.940   5.652 -1.0330 -0.9476 -2.0964
12880TIP3   OH260054   6.319   3.435   0.125  0.3178  0.2645 -0.5509
12880TIP3    H160055   6.372   3.445   0.204 -0.5018  0.4379 -0.0221
12880TIP3    H260056   6.376   3.387   0.065  0.8140 -0.2010  0.2710
12881TIP3   OH260057   3.740   5.321   1.650  0.1870 -0.2763 -0.1228
12881TIP3    H160058   3.771   5.355   1.565 -0.4618 -0.8910 -0.6196
12881TIP3    H260059   3.759   5.228   1.646  2.7630  0.0752  1.5922
12882TIP3   OH260060   3.702   3.407  13.085  0.0301 -0.1544 -0.0558
12882TIP3    H160061   3.697   3.457  13.167  1.6082 -0.0802  0.0272
12882TIP3    H260062   3.624   3.434  13.036 -0.7630  0.0694  1.2623
12883TIP3   OH260063   3.868   1.490  15.886  0.1114  0.1328 -0.1228
12883TIP3    H160064   3.843   1.573  15.927 -2.9205 -1.1000  0.8730
12883TIP3    H260065   3.862   1.426  15.957 -1.2739 -1.4500 -1.5856
12884TIP3   OH260066   0.261   5.165  14.744  0.1416  0.3502  0.5905
12884TIP3    H160067   0.189   5.134  14.690  0.3871 -0.6216  0.7972
12884TIP3    H260068   0.326   5.095  14.742  0.9649  1.0820  0.6429
12885TIP3   OH260069   4.855   3.312   2.171  0.2947  0.2642  0.1533
12885TIP3    H160070   4.802   3.320   2.091 -0.2066  2.7485  0.6372
12885TIP3    H260071   4.943   3.340   2.144 -0.2099  2.6095  0.6979
12886TIP3   OH260072   6.150   4.765   6.454 -0.5516 -0.3043 -0.0989
12886TIP3    H160073   6.167   4.832   6.520 -0.7710 -1.0440  0.7228
12886TIP3    H260074   6.151   4.682   6.502 -3.1808 -0.6808 -0.5362
12887TIP3   OH260075   4.756   4.594  16.765  0.3986  0.1412 -0.7486
12887TIP3    H160076   4.669   4.632  16.754  1.0726  1.8918 -0.3578
12887TIP3    H260077   4.757   4.518  16.707 -1.5225 -0.1829 -0.4263
12888TIP3   OH260078   4.432   2.370  17.072  0.1711  0.3091  0.1674
12888TIP3    H160079   4.397   2.422  16.999  3.0255  1.5691 -0.4508
12888TIP3    H260080   4.413   2.421  17.150 -0.3920  0.3759 -0.0135
12889TIP3   OH260081   6.271   4.185   1.231  0.3246 -0.3932 -0.4616
12889TIP3    H160082   6.182   4.202   1.203  0.4349  0.9625 -0.0418
12889TIP3    H260083   6.325   4.208   1.155  0.3854 -0.1707 -0.3519
12890TIP3   OH260084   4.131   5.355   0.751 -0.0722 -0.3459 -0.2422
12890TIP3    H160085   4.118   5.346   0.846 -0.3556 -0.8137 -0.3227
12890TIP3    H260086   4.070   5.293   0.713  0.1360 -0.2510 -0.7319
12891TIP3   OH260087   4.874   3.253  16.042 -0.1088  0.1971 -0.3207
12891TIP3    H160088   4.891   3.189  16.112 -1.9081 -2.1454 -1.8414
12891TIP3    H260089   4.821   3.321  16.084  2.4099  1.1684  1.5092
12892TIP3   OH260090   6.372   3.844   3.246 -0.2838  0.1411 -0.3850
12892TIP3    H160091   6.307   3.840   3.316 -0.9588  1.2944 -0.9159
12892TIP3    H260092   6.447   3.890   3.284 -0.5432  0.5237 -0.3343
12893TIP3   OH260093   1.568   2.881  14.856  0.8562 -0.0780 -0.0341
12893TIP3    H160094   1.664   2.890  14.853  1.0107 -0.9631  1.4788
12893TIP3    H260095   1.541   2.942  14.925  0.0561  1.8407 -1.9476
12894TIP3   OH260096   3.030   3.364  15.553  0.4629 -0.0007  0.1784
12894TIP3    H160097   3.038   3.369  15.648 -3.3684  0.5612  0.6293
12894TIP3    H260098   3.037   3.455  15.523  0.6276 -0.0538  0.0533
12895TIP3   OH260099   0.428   3.697  12.781  0.3493  0.4204 -0.4909
12895TIP3    H160100   0.521   3.693  12.800  0.3384 -0.4227 -0.5697
12895TIP3    H260101   0.393   3.762  12.842  0.6337 -0.7963  1.0350
12896TIP3   OH260102   3.922   1.934   5.517 -0.1058  0.5098 -0.0953
12896TIP3    H160103   4.002   1.891   5.486  0.3581  2.2509 -1.4630
12896TIP3    H260104   3.851   1.883   5.479  0.2669 -1.5603  1.8045
12897TIP3   OH260105   4.707   1.161   0.382 -0.5780  0.2156  0.4075
12897TIP3    H160106   4.628   1.133   0.335 -0.0888  2.4037 -1.9214
12897TIP3    H260107   4.778   1.111   0.341 -0.4766 -0.0038  0.8480
12898TIP3   OH260108   2.258   3.842   0.815  0.0451  0.3862  0.2986
12898TIP3    H160109   2.249   3.934   0.789 -1.2393  1.9974  5.3007
12898TIP3    H260110   2.352   3.828   0.822  0.2403  1.9273  1.0599
12899TIP3   OH260111   4.842   2.486  14.968  0.7335 -0.3837 -0.1925
12899TIP3    H160112   4.793   2.407  14.990 -0.8256  0.6848  0.4142
12899TIP3    H260113   4.880   2.514  15.052  0.1866  0.2038 -0.1353
12900TIP3   OH260114   2.725   3.608  14.925 -0.3803  0.0276  0.3041
12900TIP3    H160115   2.721   3.688  14.872 -1.8615 -1.5392 -2.1876
12900TIP3    H260116   2.799   3.622  14.984 -1.3533  3.7192  0.9291
12901TIP3   OH260117   5.269   3.116  14.212 -0.6355 -0.6567 -0.3203
12901TIP3    H160118   5.241   3.108  14.303 -1.1283 -0.5486 -0.4619
12901TIP3    H260119   5.243   3.205  14.186 -1.6418 -1.1186 -0.9532
12902TIP3   OH260120   0.763   4.159   3.665 -0.5906 -0.2116 -0.2910
12902TIP3    H160121   0.765   4.143   3.760 -0.1570 -1.0338 -0.4265
12902TIP3    H260122   0.816   4.089   3.628 -0.9521 -0.0349 -1.1708
12903TIP3   OH260123   6.150   0.819  10.693 -0.0600 -0.1027  0.3639
12903TIP3    H160124   6.072   0.866  10.666  0.1484  1.0838  1.7065
12903TIP3    H260125   6.141   0.809  10.788  1.1675 -0.4112  0.4716
12904TIP3   OH260126   3.780   4.835   5.640  0.1547 -0.2234  0.4767
12904TIP3    H160127   3.868   4.847   5.676  0.9458  0.7655 -1.6801
12904TIP3    H260128   3.740   4.769   5.698  2.4963 -1.1323  1.1687
12905TIP3   OH260129   0.660   0.198   0.861  0.4595  0.2699 -0.5099
12905TIP3    H160130   0.572   0.169   0.838  0.2042  1.2049 -0.7435
12905TIP3    H260131   0.696   0.126   0.914  0.0264 -0.6714 -1.4625
12906TIP3   OH260132   3.217   0.758  10.852 -0.6997 -0.0980  0.1168
12906TIP3    H160133   3.159   0.782  10.925  1.2863  0.9888  1.4125
12906TIP3    H260134   3.284   0.826  10.851  2.0048 -2.5825  0.2960
12907TIP3   OH260135   3.517   4.502   0.463 -0.1640 -0.4052  0.9566
12907TIP3    H160136   3.557   4.434   0.518  1.7803  0.8891  1.2415
12907TIP3    H260137   3.526   4.582   0.515 -2.1709  0.1460  0.5156
12908TIP3   OH260138   1.109   3.887  10.502 -0.0197 -0.6115 -0.1937
12908TIP3    H160139   1.085   3.967  10.550 -0.7410 -0.4616 -0.7899
12908TIP3    H260140   1.177   3.847  10.557 -0.5650 -0.2610  0.7791
12909TIP3   OH260141   3.524   4.303  16.629 -0.2606  0.3587 -0.0826
12909TIP3    H160142   3.598   4.318  16.570 -0.5251  1.3924 -0.1807
12909TIP3    H260143   3.563   4.306  16.717 -0.1702  0.8521 -0.1353
12910TIP3   OH260144   4.799   4.831  12.366  0.0423  0.6516  0.1954
12910TIP3    H160145   4.705   4.849  12.363  0.2044  1.6183  0.4975
12910TIP3    H260146   4.837   4.908  12.409  0.9696  0.2672  0.0916
12911TIP3   OH260147   6.357   6.171   5.111  0.0570  0.1574  0.1010
12911TIP3    H160148   6.390   6.222   5.185 -0.4485 -0.4316  0.7476
12911TIP3    H260149   6.340   6.236   5.043 -0.8170  0.9066  0.9921
12912TIP3   OH260150   4.863   3.710  12.297  0.2970  0.2291 -0.2317
12912TIP3    H160151   4.805   3.773  12.255 -0.5364 -0.5976 -0.3501
12912TIP3    H260152   4.879   3.745  12.384  0.4192  0.9533 -0.5420
12913TIP3   OH260153   4.498   1.555  11.323  0.2393  0.0949 -0.1503
12913TIP3    H160154   4.481   1.483  11.262  0.6925  0.1427 -0.3344
12913TIP3    H260155   4.426   1.617  11.307  0.0390 -0.1571 -0.2314
12914TIP3   OH260156   1.481   6.520  15.806  0.4724 -0.4555  0.2150
12914TIP3    H160157   1.411   6.470  15.762 -0.5465  0.1337  1.1184
12914TIP3    H260158   1.457   6.612  15.791  0.5404 -0.2502  1.3324
12915TIP3   OH260159   1.546   6.408  11.513 -0.2839  0.3551 -0.2012
12915TIP3    H160160   1.541   6.312  11.510 -0.3777  0.3629 -0.2923
12915TIP3    H260161   1.623   6.429  11.459  1.5656  0.1680  2.2096
12916TIP3   OH260162   3.016   1.059   0.996  0.2360  0.5221 -0.5472
12916TIP3    H160163   3.107   1.055   0.969  0.0338 -2.5316 -1.2002
12916TIP3    H260164   2.989   0.967   1.003 -3.5574  1.1764 -3.0945
12917TIP3   OH260165   3.159   2.858  14.510  0.1749  0.5017 -0.3633
12917TIP3    H160166   3.224   2.892  14.571  0.8771  0.1331 -0.8907
12917TIP3    H260167   3.160   2.763  14.523 -0.1184  0.4778 -0.5064
12918TIP3   OH260168   1.130   3.838   4.747  0.1725  0.3102 -0.0418
12918TIP3    H160169   1.105   3.747   4.732  2.8628 -0.4782 -0.1480
12918TIP3    H260170   1.105   3.884   4.667  0.0674 -0.6163 -0.5502
12919TIP3   OH260171   2.123   4.010   0.482  0.1377 -0.4844  0.5226
12919TIP3    H160172   2.187   4.042   0.546  0.7229  1.1990 -0.8234
12919TIP3    H260173   2.039   4.039   0.517  0.2558 -1.1986  1.4395
12920TIP3   OH260174   2.641   1.477  13.075 -0.4831 -0.4766 -0.3797
12920TIP3    H160175   2.557   1.430  13.080  0.2276 -1.8030 -0.2675
12920TIP3    H260176   2.696   1.422  13.019  0.6405 -0.1862  0.3995
12921TIP3   OH260177   6.356   5.940  12.824 -0.5369  0.5209 -0.4802
12921TIP3    H160178   6.397   5.875  12.766  0.9981  0.4054  0.6563
12921TIP3    H260179   6.285   5.977  12.772 -1.1807 -1.7394 -1.3157
12922TIP3   OH260180   0.825   3.657  11.320  0.3320 -0.1150  0.4698
12922TIP3    H160181   0.783   3.628  11.401 -1.3331 -0.5050 -0.4815
12922TIP3    H260182   0.848   3.575  11.276 -0.4633  0.0446 -0.2687
12923TIP3   OH260183   0.697   5.386  12.587  0.3178  0.4174 -0.2245
12923TIP3    H160184   0.667   5.474  12.564 -1.4516  0.6356  2.5347
12923TIP3    H260185   0.666   5.372  12.676  1.2852 -2.7072 -0.2564
12924TIP3   OH260186   0.549   5.503  11.241  0.1053 -0.0845  0.3277
12924TIP3    H160187   0.560   5.563  11.315 -1.3879 -0.3826  0.8223
12924TIP3    H260188   0.465   5.460  11.257 -1.2056  1.1432 -2.4391
12925TIP3   OH260189   3.947   5.056   4.425 -0.3718  0.6312  0.0339
12925TIP3    H160190   3.989   5.013   4.350 -0.2073 -3.8964  2.4018
12925TIP3    H260191   3.854   5.033   4.416 -0.4062  0.3615  0.9700
12926TIP3   OH260192   3.831   4.382   5.602  0.1006  0.1800  0.4617
12926TIP3    H160193   3.824   4.287   5.611 -0.2261  0.0104 -1.1607
12926TIP3    H260194   3.740   4.411   5.592  0.2635  0.5003 -0.1914
12927TIP3   OH260195   3.232   0.715  11.545 -0.0501  0.0915  0.4664
12927TIP3    H160196   3.209   0.628  11.579  2.1041 -0.1983  1.3533
12927TIP3    H260197   3.235   0.771  11.622  0.5536  0.4614  0.1883
12928TIP3   OH260198   4.141   5.314   1.874  0.3788  0.7221  0.5153
12928TIP3    H160199   4.095   5.315   1.790 -0.1929 -2.1339  0.6803
12928TIP3    H260200   4.071   5.306   1.939  0.9244 -1.5128  0.9151
12929TIP3   OH260201   2.567   4.072  15.155  0.0396 -0.1542 -0.2612
12929TIP3    H160202   2.661   4.070  15.174 -0.5573 -1.0254  3.4494
12929TIP3    H260203   2.543   4.165  15.163  0.2384 -0.2091  1.2972
12930TIP3   OH260204   6.168   5.648  15.604  0.9559 -0.5205 -0.0099
12930TIP3    H160205   6.196   5.666  15.514 -0.6565 -2.0382 -0.8788
12930TIP3    H260206   6.249   5.627  15.651  1.8558  0.5944 -1.0135
12931TIP3   OH260207   4.765   3.057   5.729 -0.0041  0.4502  0.3668
12931TIP3    H160208   4.742   3.144   5.698  0.1915  1.4398  2.7878
12931TIP3    H260209   4.688   3.028   5.778 -0.2286 -0.9615 -0.7436
12932TIP3   OH260210   2.430   1.184  11.869  0.3017  0.1010  0.2182
12932TIP3    H160211   2.457   1.275  11.883 -0.1762  0.8493 -2.9697
12932TIP3    H260212   2.475   1.135  11.938  4.4841  2.1195 -0.7579
12933TIP3   OH260213   6.493   3.291  15.548 -0.3495 -0.1547  0.0499
12933TIP3    H160214   6.406   3.301  15.589  0.6341  0.3540  2.1519
12933TIP3    H260215   6.541   3.234  15.608  0.1612 -2.1736 -2.1677
12934TIP3   OH260216   5.989   0.160  16.745 -0.3566  0.5015 -0.3109
12934TIP3    H160217   5.917   0.144  16.683 -1.0024 -0.6990  0.7142
12934TIP3    H260218   6.062   0.109  16.710 -0.3710  0.7418 -0.6976
12935TIP3   OH260219   5.292   4.566  12.994 -0.3001  0.3754  0.2753
12935TIP3    H160220   5.305   4.638  12.933  0.6875  0.6011  0.7329
12935TIP3    H260221   5.284   4.608  13.080  0.8767 -0.0720  0.6241
12936TIP3   OH260222   4.000   0.575   4.092 -0.5385  0.2466 -0.0861
12936TIP3    H160223   4.089   0.606   4.075  1.4291 -4.2802  0.6315
12936TIP3    H260224   3.977   0.523   4.016 -1.5352 -0.6649  0.8052
12937TIP3   OH260225   6.785   6.456  14.467 -0.0441 -0.1850 -0.6540
12937TIP3    H160226   6.860   6.485  14.520 -0.4500 -1.4922  0.7064
12937TIP3    H260227   6.823   6.395  14.403  0.0717 -0.8756  0.0585
12938TIP3   OH260228   3.937   2.676   2.505 -0.5633 -0.0184 -0.2952
12938TIP3    H160229   3.993   2.602   2.528 -0.2969  0.3961  0.4125
12938TIP3    H260230   3.929   2.671   2.410  0.0971 -0.5004 -0.3328
12939TIP3   OH260231   0.097   1.696   4.683  0.3760 -0.2403  0.3280
12939TIP3    H160232   0.057   1.707   4.598  1.4311 -0.5307 -0.2281
12939TIP3    H260233   0.044   1.629   4.727 -0.9189  0.8164  0.4044
12940TIP3   OH260234   2.876   0.178   2.765  0.0568  0.5335 -0.5171
12940TIP3    H160235   2.895   0.151   2.676  1.6640  0.1287 -0.0748
12940TIP3    H260236   2.782   0.199   2.764 -0.3700 -1.2222 -1.8401
12941TIP3   OH260237   5.570   4.162  13.833 -0.4837  0.2283  0.2040
12941TIP3    H160238   5.535   4.234  13.781  0.4118  0.0947 -0.6165
12941TIP3    H260239   5.550   4.084  13.782 -0.6352 -0.0195  0.6399
12942TIP3   OH260240   1.980   4.896   0.655  0.0546 -0.3425  0.3536
12942TIP3    H160241   2.043   4.966   0.644 -0.2557 -0.0098  0.6638
12942TIP3    H260242   1.928   4.922   0.731 -0.1467 -0.8423  0.3923
12943TIP3   OH260243   4.940   2.771  13.075  0.5183 -0.5071 -0.6837
12943TIP3    H160244   4.959   2.857  13.038 -2.5649 -0.2489 -1.9552
12943TIP3    H260245   4.935   2.713  12.998 -0.7677 -1.0848 -0.1938
12944TIP3   OH260246   6.206   4.179  11.608  0.0604  0.1836 -0.0029
12944TIP3    H160247   6.123   4.164  11.654 -0.2926  2.4304  0.2291
12944TIP3    H260248   6.258   4.231  11.670  0.8154  0.5577 -0.9349
12945TIP3   OH260249   1.706   5.140   0.276  0.3582  0.5646 -0.0942
12945TIP3    H160250   1.715   5.121   0.183 -0.9087 -2.0429  0.2285
12945TIP3    H260251   1.760   5.074   0.320  1.9318  2.5135  1.0652
12946TIP3   OH260252   5.659   4.326   2.314 -0.2972  0.3674  0.1866
12946TIP3    H160253   5.585   4.273   2.286 -1.0904  2.2233 -1.4504
12946TIP3    H260254   5.619   4.408   2.344  1.0277  0.9111  0.5306
12947TIP3   OH260255   3.775   1.534   0.661 -0.1136  0.3924 -0.4389
12947TIP3    H160256   3.839   1.578   0.604 -0.7202  0.3787 -1.1419
12947TIP3    H260257   3.806   1.552   0.750  1.2492 -0.1797 -0.7733
12948TIP3   OH260258   5.030   5.207   0.293 -0.3584  0.0726 -0.0610
12948TIP3    H160259   4.951   5.244   0.254  0.1295  1.7410  0.4586
12948TIP3    H260260   5.086   5.283   0.310  0.1280 -0.7370  2.3271
12949TIP3   OH260261   0.713   3.795  10.441 -0.5658  0.2750  0.6294
12949TIP3    H160262   0.796   3.748  10.436  0.4781  1.4838  3.7544
12949TIP3    H260263   0.727   3.874  10.388 -0.2145 -0.1390  0.0943
12950TIP3   OH260264   5.224   0.110  14.416 -0.0055 -0.0517  0.2865
12950TIP3    H160265   5.194   0.041  14.358  0.6138  1.1370 -1.5340
12950TIP3    H260266   5.320   0.100  14.418 -0.0944 -1.5641  3.1323
12951TIP3   OH260267   1.918   5.628   3.258 -0.1202  0.1669  0.0231
12951TIP3    H160268   1.846   5.565   3.248  0.6006 -0.7911  0.6826
12951TIP3    H260269   1.928   5.639   3.352  1.2512 -0.5186 -0.0133
12952TIP3   OH260270   3.184   6.028  15.665 -0.1360 -0.1703  0.0347
12952TIP3    H160271   3.173   5.939  15.698 -0.3894 -0.3526 -0.5201
12952TIP3    H260272   3.095   6.061  15.655 -0.0612 -0.0759 -0.3386
12953TIP3   OH260273   4.195   0.563  12.471  0.4953  0.2818  0.2534
12953TIP3    H160274   4.280   0.576  12.514  0.9064 -1.4286  0.0338
12953TIP3    H260275   4.165   0.478  12.503 -0.1185 -0.1311 -1.3284
12954TIP3   OH260276   2.465   4.823  14.229  0.3694 -0.5991  0.1133
12954TIP3    H160277   2.548   4.865  14.250  1.3155 -1.7175 -1.1881
12954TIP3    H260278   2.437   4.863  14.147 -0.1097 -0.5972  0.2720
12955TIP3   OH260279   5.884   5.240  11.136 -0.3497  0.2599 -0.0456
12955TIP3    H160280   5.887   5.320  11.084  0.7726  0.1888 -0.1298
12955TIP3    H260281   5.911   5.171  11.075 -0.3374 -0.0253  0.2796
12956TIP3   OH260282   6.511   4.030  14.779  0.3258 -0.1090  0.0805
12956TIP3    H160283   6.447   3.962  14.797  0.8670 -0.7056 -0.1864
12956TIP3    H260284   6.511   4.085  14.857  0.1256 -0.6179  0.4446
12957TIP3   OH260285   5.471   5.616   2.322 -0.0525  0.0354 -0.5782
12957TIP3    H160286   5.545   5.557   2.306  1.4309  1.6512 -0.0128
12957TIP3    H260287   5.507   5.704   2.308 -1.9612  0.8700 -0.5507
12958TIP3   OH260288   6.731   2.321   4.564  0.4759 -0.0314 -0.0449
12958TIP3    H160289   6.700   2.331   4.654  1.2362 -0.7085  0.3066
12958TIP3    H260290   6.738   2.227   4.552 -0.2359  0.0289 -1.0420
12959TIP3   OH260291   4.185   3.970   3.148  0.9844 -0.2270 -0.2121
12959TIP3    H160292   4.159   4.062   3.155  1.2202  0.0319 -2.1742
12959TIP3    H260293   4.266   3.965   3.199 -0.9978 -0.3199  3.2473
12960TIP3   OH260294   4.400   6.101   0.681 -0.1972 -0.6203 -0.5536
12960TIP3    H160295   4.463   6.029   0.677 -1.6420 -1.9067 -1.6111
12960TIP3    H260296   4.319   6.060   0.712 -0.4913  1.0212  1.0036
12961TIP3   OH260297   6.768   5.052   3.689 -0.1726 -0.0856  0.2769
12961TIP3    H160298   6.806   5.037   3.602  2.0991  4.1110  0.2872
12961TIP3    H260299   6.809   4.987   3.745  1.9680  0.0696 -1.0028
12962TIP3   OH260300   2.423   5.147  14.916 -0.3851  0.2606 -0.1117
12962TIP3    H160301   2.404   5.103  14.999  0.3154  0.5615  0.2116
12962TIP3    H260302   2.512   5.121  14.894 -0.0438  1.2966 -0.0420
12963TIP3   OH260303   6.167   4.181  14.001 -0.7322 -0.1918  0.0688
12963TIP3    H160304   6.120   4.191  14.083  0.7839  2.2412  0.7438
12963TIP3    H260305   6.239   4.122  14.021  0.5751  1.6547  0.9809
12964TIP3   OH260306   1.714   0.411  15.124 -0.5554  0.0626 -0.1198
12964TIP3    H160307   1.702   0.362  15.042 -0.9994  0.4810 -0.3104
12964TIP3    H260308   1.625   0.422  15.158 -0.4006  0.1950  0.2395
12965TIP3   OH260309   1.502   1.928   2.760  0.5205 -0.1847  0.3607
12965TIP3    H160310   1.499   1.938   2.665 -0.1618 -0.4896  0.3427
12965TIP3    H260311   1.464   2.009   2.794  0.4178 -0.2351  0.3653
12966TIP3   OH260312   4.254   2.435   1.472 -0.3347 -0.0889  0.4676
12966TIP3    H160313   4.178   2.383   1.497 -1.6473  1.7079  0.4018
12966TIP3    H260314   4.249   2.439   1.376  1.6764 -2.5264  0.1434
12967TIP3   OH260315   2.518   2.320   1.598 -0.3564  0.0665 -0.5707
12967TIP3    H160316   2.566   2.274   1.529 -0.6907 -0.0618 -0.7178
12967TIP3    H260317   2.540   2.412   1.586 -0.7606  0.0958 -1.1227
12968TIP3   OH260318   2.892   4.115  11.332 -0.1540 -0.8181  0.4280
12968TIP3    H160319   2.841   4.191  11.360 -0.2220 -0.5287 -0.4539
12968TIP3    H260320   2.971   4.118  11.387 -0.3668 -0.3821  0.7205
12969TIP3   OH260321   3.864   0.585   0.379 -0.4705  0.1577  0.0869
12969TIP3    H160322   3.820   0.550   0.457 -2.6613  1.2977 -0.5630
12969TIP3    H260323   3.908   0.664   0.409  0.7027 -0.6521  0.6064
12970TIP3   OH260324   2.954   0.967   4.112  0.4651  0.3081 -0.4322
12970TIP3    H160325   3.013   0.903   4.152 -0.3734  0.3271  0.9021
12970TIP3    H260326   2.871   0.921   4.103  0.1631  0.8628 -0.5439
12971TIP3   OH260327   3.326   2.746  14.272 -0.0559  0.0132 -0.3307
12971TIP3    H160328   3.372   2.734  14.189 -1.3342  0.5868 -1.1476
12971TIP3    H260329   3.393   2.777  14.332  0.5893  1.0268 -1.5415
12972TIP3   OH260330   5.780   0.884   5.130  0.5367  0.0734 -0.5009
12972TIP3    H160331   5.710   0.861   5.191  1.2590 -1.3008 -0.1440
12972TIP3    H260332   5.857   0.898   5.186  0.4301  2.2258 -0.8245
12973TIP3   OH260333   1.572   3.179  16.811  0.4473 -0.5453 -0.4053
12973TIP3    H160334   1.624   3.257  16.829 -1.6776  0.4587  1.9729
12973TIP3    H260335   1.494   3.212  16.766  1.4719 -1.9485 -3.4865
12974TIP3   OH260336   0.730   1.990  12.110 -0.1480  0.0197  0.2447
12974TIP3    H160337   0.724   1.902  12.147  0.3026  0.0986  0.5131
12974TIP3    H260338   0.722   1.977  12.015 -3.4618 -0.0007  0.4033
12975TIP3   OH260339   3.545   2.998   5.394  0.1334 -0.1414  0.1647
12975TIP3    H160340   3.620   3.015   5.338 -1.0372  1.0551 -1.1066
12975TIP3    H260341   3.556   3.057   5.469  1.2275 -1.0963  0.7933
12976TIP3   OH260342   3.554   1.397   2.666 -0.1029  0.9405  0.4635
12976TIP3    H160343   3.497   1.346   2.609  2.0024  1.6482 -2.5069
12976TIP3    H260344   3.521   1.487   2.659  0.3916  1.0913  0.0147
12977TIP3   OH260345   0.403   0.616  12.591 -0.2973  0.6046 -0.0060
12977TIP3    H160346   0.365   0.704  12.592  0.7160  1.0934 -1.5249
12977TIP3    H260347   0.450   0.610  12.674 -1.2975  1.0562  0.6175
12978TIP3   OH260348   5.716   3.224   3.826 -0.2375  0.3090 -0.3581
12978TIP3    H160349   5.750   3.254   3.911 -1.4618  1.5865 -0.2804
12978TIP3    H260350   5.781   3.256   3.763  0.0970  0.3629  0.0079
12979TIP3   OH260351   5.953   5.129  14.857  0.5632 -0.3730 -0.5095
12979TIP3    H160352   5.877   5.165  14.812  0.5632 -0.4800 -0.5960
12979TIP3    H260353   5.928   5.039  14.879 -0.2626  0.3236  1.6174
12980TIP3   OH260354   4.553   4.574   5.409 -0.3251  0.0272  0.0063
12980TIP3    H160355   4.616   4.503   5.404 -1.0352 -0.8812  2.5695
12980TIP3    H260356   4.468   4.531   5.412 -0.8940  1.0873 -0.1351
12981TIP3   OH260357   0.135   3.598  17.076 -0.0537 -0.0398  0.3884
12981TIP3    H160358   0.102   3.523  17.127 -1.3953  0.7928  0.7971
12981TIP3    H260359   0.166   3.559  16.994 -3.3604 -0.8285 -0.6586
12982TIP3   OH260360   5.250   3.251   2.104 -0.4865 -0.4187 -0.1219
12982TIP3    H160361   5.216   3.174   2.059  1.2369  0.2260 -2.7818
12982TIP3    H260362   5.337   3.225   2.133 -0.3302  0.1712 -0.0572
12983TIP3   OH260363   4.802   1.970  11.014  0.2967 -0.8616 -0.3083
12983TIP3    H160364   4.792   2.062  10.990  3.6619 -0.1516  0.5365
12983TIP3    H260365   4.712   1.938  11.022 -0.9970  1.8126 -2.4285
12984TIP3   OH260366   4.533   1.614   2.220  0.1492 -0.4949  0.0189
12984TIP3    H160367   4.509   1.603   2.312  1.5235 -1.2160  0.3151
12984TIP3    H260368   4.507   1.532   2.178 -0.0752 -0.3355 -0.1607
12985TIP3   OH260369   5.978   4.794  15.203  0.3072  0.2822 -0.3856
12985TIP3    H160370   6.005   4.751  15.284  1.8586  2.5443  0.4018
12985TIP3    H260371   5.916   4.861  15.232 -1.5760 -0.8891 -1.4979
12986TIP3   OH260372   4.994   2.713  11.132  0.8536 -0.6670 -0.1503
12986TIP3    H160373   5.077   2.760  11.145  0.1057  0.9050 -0.7924
12986TIP3    H260374   4.961   2.698  11.221 -0.0217  2.2275  0.1186
12987TIP3   OH260375   6.170   3.620   4.000 -0.1567 -0.4971  0.0218
12987TIP3    H160376   6.116   3.543   3.981  0.6335 -0.9595 -0.3873
12987TIP3    H260377   6.259   3.586   4.007  0.2267  0.4020 -0.3149
12988TIP3   OH260378   3.211   2.034   5.351  0.2186  0.3660  0.3198
12988TIP3    H160379   3.124   2.009   5.383 -1.3995  0.1481 -3.6312
12988TIP3    H260380   3.207   2.129   5.342 -0.1976  0.2430 -1.1118
12989TIP3   OH260381   5.040   3.402   3.938  0.1528 -0.2036  0.5409
12989TIP3    H160382   5.080   3.462   4.001 -0.2137  0.9277 -0.2840
12989TIP3    H260383   4.955   3.380   3.977 -1.2073  2.4841 -0.6333
12990TIP3   OH260384   2.924   0.691  12.945 -0.3620 -0.0150  0.4728
12990TIP3    H160385   2.981   0.630  12.992  0.9935  0.1281 -0.8850
12990TIP3    H260386   2.943   0.776  12.984 -1.0818 -0.2263  1.3054
12991TIP3   OH260387   0.294   5.401   4.270  0.1931  0.4759  0.4579
12991TIP3    H160388   0.257   5.342   4.335 -0.7555 -0.4119 -0.8226
12991TIP3    H260389   0.298   5.348   4.190  0.4153  1.8065 -0.4391
12992TIP3   OH260390   2.545   3.221  10.309  0.8688 -0.5018  0.3429
12992TIP3    H160391   2.479   3.157  10.334  0.4913 -0.6104 -0.8476
12992TIP3    H260392   2.511   3.305  10.341 -0.5576 -0.3525 -1.4165
12993TIP3   OH260393   0.821   6.354   2.578 -0.3665 -0.0916  0.0754
12993TIP3    H160394   0.758   6.404   2.629 -0.1505  1.2084 -0.8839
12993TIP3    H260395   0.866   6.419   2.524  1.8084 -0.9599  0.7190
12994TIP3   OH260396   2.193   4.194   3.027  0.1795  0.9746 -0.3213
12994TIP3    H160397   2.205   4.113   2.977 -0.2036  0.3218  0.5922
12994TIP3    H260398   2.098   4.208   3.026  0.0832  0.5559  0.7706
12995TIP3   OH260399   5.601   6.320  13.625  0.3284  0.1274  0.7929
12995TIP3    H160400   5.564   6.377  13.692  0.2611  1.5800 -0.4275
12995TIP3    H260401   5.658   6.377  13.574 -0.5330 -0.6371 -1.1174
12996TIP3   OH260402   0.279   1.409   2.309  0.1903 -0.0314  0.3255
12996TIP3    H160403   0.306   1.332   2.359  3.0444 -0.0440 -1.0448
12996TIP3    H260404   0.286   1.382   2.217 -0.6124  1.3066 -0.1592
12997TIP3   OH260405   3.570   0.735   0.419  0.2299 -0.2502  0.1047
12997TIP3    H160406   3.490   0.723   0.368  1.1744  1.5305 -1.9519
12997TIP3    H260407   3.638   0.689   0.369  0.7991 -0.4534  1.0218
12998TIP3   OH260408   3.235   5.803  11.543 -0.1730 -0.4424 -0.1090
12998TIP3    H160409   3.290   5.753  11.604  0.5708 -0.2314 -0.5894
12998TIP3    H260410   3.210   5.739  11.476 -0.9409 -0.6598  0.3703
12999TIP3   OH260411   3.788   2.287  13.848 -0.3004 -0.4278  0.1158
12999TIP3    H160412   3.752   2.252  13.929  1.0022 -0.4621  0.6987
12999TIP3    H260413   3.756   2.377  13.845  1.9206  0.5224  2.1652
13000TIP3   OH260414   6.499   6.352  12.556 -0.1755 -0.2790  0.3570
13000TIP3    H160415   6.573   6.325  12.610 -1.5166  0.4849  2.6842
13000TIP3    H260416   6.535   6.422  12.501  1.0929 -0.6847  0.6393
13001TIP3   OH260417   1.098   1.305  12.486 -0.1571  0.1844 -0.0407
13001TIP3    H160418   1.133   1.226  12.445 -0.1648  0.9674 -1.6167
13001TIP3    H260419   1.150   1.376  12.451 -0.5066  0.9582  0.9472
13002TIP3   OH260420   1.764   2.883  12.289 -0.3336  0.1563  0.2165
13002TIP3    H160421   1.757   2.863  12.196 -0.8446 -1.1093  0.5087
13002TIP3    H260422   1.803   2.970  12.292  0.4937 -0.1453 -1.1607
13003TIP3   OH260423   6.050   1.500   5.295 -0.2714  0.1512  0.5931
13003TIP3    H160424   6.012   1.586   5.277  0.0677 -0.1658 -2.2476
13003TIP3    H260425   5.976   1.445   5.320 -0.2262  1.6272  4.5201
13004TIP3   OH260426   0.207   1.991  13.423  0.1013  0.3462  0.6884
13004TIP3    H160427   0.284   1.988  13.367 -0.2415 -0.2632  0.2394
13004TIP3    H260428   0.152   1.919  13.393 -0.2225  0.1847  1.6185
13005TIP3   OH260429   3.637   6.427   4.337 -0.3984 -0.7867  0.1242
13005TIP3    H160430   3.599   6.426   4.250  0.1715  0.5171 -0.1558
13005TIP3    H260431   3.612   6.512   4.374  2.0380  0.0584 -0.0089
13006TIP3   OH260432   5.110   4.321   0.803  0.2696  0.1985  0.2158
13006TIP3    H160433   5.136   4.405   0.840  1.4849  0.1992 -0.6135
13006TIP3    H260434   5.050   4.343   0.732  1.9111  0.4853 -1.1228
13007TIP3   OH260435   1.000   2.074  15.519 -0.0915 -0.0889 -0.1511
13007TIP3    H160436   1.032   2.050  15.606  0.4224  1.3621  0.0813
13007TIP3    H260437   1.051   2.020  15.459 -0.5992 -1.2618  0.4388
13008TIP3   OH260438   1.094   4.792   3.586 -0.2612  0.3018 -0.4939
13008TIP3    H160439   1.086   4.826   3.675 -0.2761 -0.7712 -0.0759
13008TIP3    H260440   1.005   4.768   3.561 -0.8732  3.5509 -2.0632
13009TIP3   OH260441   4.606   3.848   4.078  0.0584  0.0973  0.0331
13009TIP3    H160442   4.657   3.804   4.010 -1.3111 -2.4304  0.5027
13009TIP3    H260443   4.544   3.902   4.030  1.3531  1.0613 -0.6024
13010TIP3   OH260444   1.276   3.376   4.218 -0.9475  0.6694 -0.4949
13010TIP3    H160445   1.244   3.461   4.188  2.1138  1.5767 -1.5070
13010TIP3    H260446   1.312   3.335   4.140 -2.5436 -1.7406 -0.0676
13011TIP3   OH260447   4.185   3.660  12.065  0.1702  0.3299  0.7034
13011TIP3    H160448   4.206   3.619  12.149  0.9287 -1.0350 -0.1077
13011TIP3    H260449   4.111   3.718  12.084  0.4143  0.1519  2.3251
13012TIP3   OH260450   2.502   2.667   3.992 -0.2085  0.4190 -0.4426
13012TIP3    H160451   2.527   2.577   3.971 -0.5061  0.3771 -0.6266
13012TIP3    H260452   2.412   2.675   3.959  0.0054  0.9451 -0.9127
13013TIP3   OH260453   6.269   0.151   1.936  0.1103  0.5353 -0.5160
13013TIP3    H160454   6.263   0.242   1.907  1.0338  0.8996  0.3938
13013TIP3    H260455   6.202   0.142   2.003 -1.9436 -0.2748 -2.5387
13014TIP3   OH260456   5.769   5.211   1.716  0.6627  0.2248 -0.0084
13014TIP3    H160457   5.712   5.195   1.642 -0.2264 -1.2613  0.9590
13014TIP3    H260458   5.854   5.175   1.690 -0.2227 -2.4301  0.5099
13015TIP3   OH260459   2.437   6.481   4.492  0.5472  0.3308  0.0234
13015TIP3    H160460   2.395   6.565   4.511 -0.0546  0.1743 -0.5933
13015TIP3    H260461   2.365   6.421   4.474  0.9842 -0.2692  0.2261
13016TIP3   OH260462   1.423   3.804   6.219 -0.0564 -0.0249 -0.2914
13016TIP3    H160463   1.495   3.862   6.241  0.1624 -0.5462  0.3883
13016TIP3    H260464   1.406   3.754   6.299 -0.6452 -0.4606 -0.6780
13017TIP3   OH260465   5.162   3.349  12.552 -0.0592  0.7340 -0.3836
13017TIP3    H160466   5.107   3.410  12.502 -0.7675 -1.0522 -1.9155
13017TIP3    H260467   5.249   3.360  12.516 -0.5128 -0.3337 -1.9136
13018TIP3   OH260468   1.712   3.957  15.056  0.0090  0.0471  0.1112
13018TIP3    H160469   1.635   3.966  15.112 -1.3552 -2.8616 -1.0790
13018TIP3    H260470   1.746   4.046  15.046 -3.1326  1.4340  0.7773
13019TIP3   OH260471   4.630   5.570   3.812  0.0103  0.0684 -0.5904
13019TIP3    H160472   4.701   5.508   3.829 -1.2990 -0.9158  1.7089
13019TIP3    H260473   4.667   5.655   3.834  0.8823 -0.2456 -0.7823
13020TIP3   OH260474   0.077   3.665  13.527 -0.1206 -0.5811  0.4651
13020TIP3    H160475   0.136   3.600  13.490 -2.1589 -0.6527 -3.0439
13020TIP3    H260476   0.116   3.749  13.502 -0.5310 -0.5834 -0.1764
13021TIP3   OH260477   3.794   6.312  11.867  0.1353 -0.4966 -0.3214
13021TIP3    H160478   3.699   6.313  11.866  0.1228 -0.1718  0.4567
13021TIP3    H260479   3.818   6.357  11.948  0.9288 -1.6021  0.0802
13022TIP3   OH260480   0.933   3.974   0.347  0.5622  0.3828  0.2807
13022TIP3    H160481   1.028   3.959   0.345  0.5559  0.3632 -2.0514
13022TIP3    H260482   0.913   4.010   0.261 -1.4611  1.1264  1.0115
13023TIP3   OH260483   5.464   0.061  15.452  0.1567  0.0786 -0.0334
13023TIP3    H160484   5.544   0.072  15.504 -0.5422 -1.7996  1.6087
13023TIP3    H260485   5.437  -0.029  15.471 -0.1073 -0.7888 -3.8250
13024TIP3   OH260486   3.344   2.902  17.007  0.0485 -0.6973 -0.5110
13024TIP3    H160487   3.284   2.893  17.081  1.0742 -0.3177  0.3975
13024TIP3    H260488   3.334   2.993  16.980 -0.9342 -1.0514 -1.3998
13025TIP3   OH260489   4.521   1.521  16.537 -0.1002 -0.3301  0.2208
13025TIP3    H160490   4.602   1.519  16.485  0.0987 -0.9285  0.5494
13025TIP3    H260491   4.468   1.449  16.501 -0.4797  0.0321  0.0351
13026TIP3   OH260492   4.066   4.703   3.304 -0.2874 -0.1618  0.0030
13026TIP3    H160493   4.114   4.763   3.361 -0.7201 -0.7002  0.9490
13026TIP3    H260494   3.990   4.754   3.276 -0.4845 -0.1581  0.5384
13027TIP3   OH260495   1.322   1.450  14.187 -0.3759  0.1030 -0.1583
13027TIP3    H160496   1.350   1.388  14.255 -0.3975 -0.0599 -0.2970
13027TIP3    H260497   1.228   1.434  14.178 -0.2529 -0.3514 -0.7050
13028TIP3   OH260498   1.611   0.895   6.436  0.0302 -0.9236 -0.0297
13028TIP3    H160499   1.580   0.822   6.490  0.0585 -0.2849  0.8840
13028TIP3    H260500   1.581   0.973   6.483  1.5476 -0.3115 -0.0105
13029TIP3   OH260501   5.369   2.087   3.880  0.3091  0.2317  0.5469
13029TIP3    H160502   5.424   2.164   3.866  2.3656 -0.9519  1.6437
13029TIP3    H260503   5.323   2.105   3.963 -0.4884  0.9312 -0.0263
13030TIP3   OH260504   2.969   3.613   3.841  0.5651 -0.1001 -0.3148
13030TIP3    H160505   3.015   3.634   3.922  0.7110 -2.1163  0.1831
13030TIP3    H260506   2.944   3.521   3.851  1.1727 -0.6103 -2.8112
13031TIP3   OH260507   6.089   0.451  14.741  0.2106  0.0203 -0.7511
13031TIP3    H160508   6.169   0.449  14.688  0.9280  0.0362  0.3019
13031TIP3    H260509   6.029   0.508  14.692  0.9864  0.3250 -1.3636
13032TIP3   OH260510   5.745   0.782   3.761  0.1840 -0.4028 -0.5325
13032TIP3    H160511   5.773   0.736   3.682  0.9975 -0.5374 -0.1768
13032TIP3    H260512   5.686   0.850   3.730 -2.2805 -2.5558 -0.9990
13033TIP3   OH260513   1.238   1.949   3.795  0.6261 -0.1191 -0.0777
13033TIP3    H160514   1.275   1.860   3.790 -0.5826 -0.6016 -1.1354
13033TIP3    H260515   1.146   1.937   3.771 -0.3458  0.9843  2.7417
13034TIP3   OH260516   4.126   1.889  12.001 -0.8798  0.5702  0.2660
13034TIP3    H160517   4.075   1.910  11.923  0.2923  1.8890 -0.1854
13034TIP3    H260518   4.095   1.803  12.028 -0.9409 -0.1566 -1.9672
13035TIP3   OH260519   1.346   2.050   3.173 -0.6273  0.4238 -0.0168
13035TIP3    H160520   1.374   2.067   3.264  0.9881 -0.7338 -0.2693
13035TIP3    H260521   1.281   1.980   3.181 -0.5858  0.4131  0.2562
13036TIP3   OH260522   0.196   0.042  16.937  0.2184  0.1370  0.8637
13036TIP3    H160523   0.177   0.108  16.870  0.7402  0.5758  1.1361
13036TIP3    H260524   0.120   0.043  16.995 -1.1207 -1.6069 -0.7636
13037TIP3   OH260525   3.595   0.175   1.138 -0.6302  0.3962  0.4996
13037TIP3    H160526   3.651   0.244   1.102 -0.6784  0.3324  0.2988
13037TIP3    H260527   3.546   0.218   1.208 -0.3733  0.4666  0.6387
13038TIP3   OH260528   6.064   6.750   4.769 -0.0810  0.5938 -0.0042
13038TIP3    H160529   6.136   6.810   4.787 -0.7224  1.0173  1.2959
13038TIP3    H260530   6.093   6.667   4.807  0.3717  0.3366 -0.8881
13039TIP3   OH260531   0.984   0.236  12.733 -0.1093  0.2085 -0.1234
13039TIP3    H160532   1.026   0.154  12.758  0.3657  0.0224 -1.4305
13039TIP3    H260533   0.982   0.288  12.814  2.1276 -0.0080  0.1302
13040TIP3   OH260534   2.516   0.651   0.442  0.0031 -0.3850  0.0113
13040TIP3    H160535   2.494   0.568   0.401  0.5772 -1.8184  2.4226
13040TIP3    H260536   2.439   0.706   0.427 -0.3935 -1.3333 -1.6008
13041TIP3   OH260537   0.769   2.087   4.685 -0.6782 -0.1583 -0.4270
13041TIP3    H160538   0.810   2.007   4.719 -0.0486  0.3050 -0.0805
13041TIP3    H260539   0.692   2.055   4.638  0.4267 -1.1235 -1.6773
13042TIP3   OH260540   5.413   5.316   0.664 -0.4651 -0.3730  0.0163
13042TIP3    H160541   5.478   5.372   0.621  0.2040 -1.2954 -0.2054
13042TIP3    H260542   5.343   5.376   0.690  1.0055  0.8436  1.3653
13043TIP3   OH260543   6.164   2.442  15.906 -0.7643  0.1026  0.3826
13043TIP3    H160544   6.097   2.417  15.969 -0.8427  0.8310  0.5942
13043TIP3    H260545   6.153   2.537  15.895  0.6968  0.3775  0.9919
13044TIP3   OH260546   3.075   4.103  13.748  0.1568 -0.0934 -0.0643
13044TIP3    H160547   3.037   4.066  13.828  3.0323 -1.5075  0.7784
13044TIP3    H260548   3.023   4.065  13.677 -0.9410 -0.7049  1.0334
13045TIP3   OH260549   1.597   2.324   3.516 -0.0979 -0.3931  0.9392
13045TIP3    H160550   1.608   2.380   3.439 -0.7090 -2.9880 -1.2085
13045TIP3    H260551   1.604   2.383   3.590  0.1833  2.3362 -1.1037
13046TIP3   OH260552   3.786   1.694   3.385  0.3378  0.0703  0.4785
13046TIP3    H160553   3.769   1.778   3.343 -1.4539 -0.2749  0.4559
13046TIP3    H260554   3.875   1.671   3.358  0.2190  1.1375 -0.9027
13047TIP3   OH260555   6.509   5.631  15.503  0.1179 -0.6131  0.2182
13047TIP3    H160556   6.496   5.571  15.430  1.5410 -1.4085  0.5668
13047TIP3    H260557   6.515   5.574  15.580  1.0334 -0.0138  0.6128
13048TIP3   OH260558   5.319   3.710   1.252 -0.2669 -0.6336 -0.0782
13048TIP3    H160559   5.397   3.659   1.232 -0.2055 -0.0020 -1.6109
13048TIP3    H260560   5.349   3.777   1.313  0.1390 -1.0638  0.2021
13049TIP3   OH260561   3.992   6.315  13.170 -0.0084  0.6814 -0.0661
13049TIP3    H160562   3.990   6.330  13.265 -1.2833  0.2087  0.0155
13049TIP3    H260563   4.077   6.276  13.154 -0.2375 -0.3833  1.1028
13050TIP3   OH260564   3.996   1.907  12.639 -0.4935  0.1318  0.4929
13050TIP3    H160565   3.912   1.951  12.652  0.2737  1.7780  0.1376
13050TIP3    H260566   4.006   1.902  12.544  0.4996  1.3976  0.5036
13051TIP3   OH260567   5.974   5.613   0.439 -0.2026 -0.0501  0.3034
13051TIP3    H160568   6.011   5.675   0.502 -1.3498 -0.2255  1.1766
13051TIP3    H260569   5.882   5.638   0.431 -0.4885 -1.1092  0.0444
13052TIP3   OH260570   0.273   2.399  11.190  0.0895  0.5304 -0.4904
13052TIP3    H160571   0.246   2.453  11.116 -0.4168  0.4846 -0.3389
13052TIP3    H260572   0.205   2.411  11.256  0.1548 -0.0068 -0.3142
13053TIP3   OH260573   3.538   6.000  11.422 -0.2110  0.0136 -0.3528
13053TIP3    H160574   3.515   6.032  11.335  3.1129  1.8058 -0.7446
13053TIP3    H260575   3.633   5.990  11.420  0.1418  1.0760  3.3137
13054TIP3   OH260576   3.588   5.547   5.867  0.1472  0.7952 -0.3319
13054TIP3    H160577   3.576   5.489   5.942  1.1890  1.4397  0.3539
13054TIP3    H260578   3.499   5.560   5.833 -0.1806 -0.6690 -0.1294
13055TIP3   OH260579   6.553   5.482   2.237 -0.6577 -0.3179  0.5029
13055TIP3    H160580   6.608   5.527   2.172 -1.5023 -0.0149 -0.0223
13055TIP3    H260581   6.613   5.458   2.307 -0.0153  0.8349  0.3759
13056TIP3   OH260582   6.293   0.766   5.087 -0.4298  0.0612  0.8859
13056TIP3    H160583   6.347   0.844   5.076  0.7160 -0.9297 -1.3512
13056TIP3    H260584   6.355   0.698   5.115 -1.1505 -0.3457  1.5139
13057TIP3   OH260585   4.601   2.379   4.308 -0.4286  0.0093  0.9629
13057TIP3    H160586   4.653   2.327   4.247  0.0274  0.3785  1.0237
13057TIP3    H260587   4.511   2.367   4.280 -0.2353  0.0417  0.3186
13058TIP3   OH260588   3.669   2.162  15.121  0.0960 -0.5339 -0.0684
13058TIP3    H160589   3.612   2.229  15.159  0.1600 -0.9166  0.7301
13058TIP3    H260590   3.743   2.156  15.182 -0.3892 -2.0371  0.4237
13059TIP3   OH260591   2.137   1.769  13.107 -0.8839 -0.1362 -0.3633
13059TIP3    H160592   2.054   1.813  13.126 -0.0563  1.7699 -0.9949
13059TIP3    H260593   2.177   1.821  13.038  0.5862 -1.3754 -0.4937
13060TIP3   OH260594   1.622   2.151  16.970 -0.3739  0.0579 -0.6976
13060TIP3    H160595   1.707   2.135  16.930 -1.2833 -0.4769 -2.5153
13060TIP3    H260596   1.613   2.247  16.970 -0.5852  0.0556 -2.3308
13061TIP3   OH260597   3.092   0.734  10.621 -0.1265  0.2387  0.0286
13061TIP3    H160598   3.150   0.751  10.696  1.3196 -0.2472 -0.9249
13061TIP3    H260599   3.044   0.654  10.646 -2.5401  2.1368  1.9969
13062TIP3   OH260600   2.665   2.747   3.235  0.9426  0.4109  0.2059
13062TIP3    H160601   2.576   2.766   3.207  1.2930  1.4347 -0.2621
13062TIP3    H260602   2.659   2.742   3.331  0.6655  2.1549  0.3068
13063TIP3   OH260603   0.897   6.599   2.979 -0.0318 -0.0417 -0.4319
13063TIP3    H160604   0.851   6.585   2.897 -0.9362  1.4723 -0.2231
13063TIP3    H260605   0.861   6.534   3.039  0.5684 -1.0920 -1.1817
13064TIP3   OH260606   5.544   5.839   4.219  0.6755  0.0201 -0.2414
13064TIP3    H160607   5.537   5.794   4.135  0.0299  0.2343 -0.3046
13064TIP3    H260608   5.531   5.931   4.199 -0.5760 -0.0290  0.2238
13065TIP3   OH260609   1.995   2.751   0.108  0.0439  0.1896  0.0173
13065TIP3    H160610   2.051   2.758   0.186 -1.1224 -2.2404  1.1992
13065TIP3    H260611   1.912   2.790   0.135  0.1002  0.7079 -0.5493
13066TIP3   OH260612   0.862   6.306  12.636  0.3447  0.2873  0.0329
13066TIP3    H160613   0.909   6.385  12.610 -1.0174 -0.1109 -4.4687
13066TIP3    H260614   0.906   6.235  12.589 -1.1867 -0.9470  0.3703
13067TIP3   OH260615   1.263   4.638   1.719  0.2383  0.9369  0.2913
13067TIP3    H160616   1.310   4.713   1.681  0.2575  0.5401 -0.4856
13067TIP3    H260617   1.172   4.667   1.726 -0.0749  0.4874 -1.5371
13068TIP3   OH260618   3.911   2.327  11.137 -0.3678  0.0420 -0.2373
13068TIP3    H160619   3.988   2.271  11.147 -0.2563 -0.0024 -1.2391
13068TIP3    H260620   3.905   2.375  11.220  0.9895  0.3800 -0.3214
13069TIP3   OH260621   3.506   3.650  15.931 -0.0545 -0.1371  0.5695
13069TIP3    H160622   3.589   3.625  15.971  0.5619  2.2829  0.9245
13069TIP3    H260623   3.530   3.700  15.853 -1.2368 -1.3444 -0.6389
13070TIP3   OH260624   2.764   2.768   2.693 -0.6294 -0.0433  0.2767
13070TIP3    H160625   2.775   2.795   2.601  2.5184 -0.3087  0.4989
13070TIP3    H260626   2.707   2.692   2.688  1.9879 -2.0541 -1.9100
13071TIP3   OH260627   4.960   3.876  15.167  0.6359 -0.2647 -0.0612
13071TIP3    H160628   5.006   3.943  15.218  0.4329 -1.5095  1.8566
13071TIP3    H260629   4.868   3.903  15.170  0.9528  1.5536 -2.8572
13072TIP3   OH260630   0.757   1.302  15.835  0.2560  0.5048 -0.5937
13072TIP3    H160631   0.761   1.207  15.822  2.2757  0.4212  0.2922
13072TIP3    H260632   0.713   1.312  15.919  2.6177  0.1249  0.7881
13073TIP3   OH260633   6.119   2.984  16.122  0.1210  0.0278 -0.0436
13073TIP3    H160634   6.212   2.969  16.106 -0.3098 -2.3781 -0.6318
13073TIP3    H260635   6.082   3.003  16.035 -0.0877  0.1111  0.0618
13074TIP3   OH260636   0.815   0.387  16.261  0.0726  0.0669  0.4699
13074TIP3    H160637   0.881   0.419  16.323  0.3250 -0.2142  0.3534
13074TIP3    H260638   0.865   0.334  16.199 -0.3433 -0.6644  0.7435
13075TIP3   OH260639   2.333   3.310   5.524  0.2242 -0.0923 -0.0327
13075TIP3    H160640   2.276   3.256   5.580 -0.7304 -0.3586 -1.2055
13075TIP3    H260641   2.422   3.288   5.552 -0.1590 -1.7386  0.0310
13076TIP3   OH260642   1.937   3.926   5.312 -0.1132  0.3220  0.1133
13076TIP3    H160643   2.029   3.908   5.296 -0.6001 -1.8989 -0.4539
13076TIP3    H260644   1.912   3.868   5.383 -1.0528  1.0146  0.3775
13077TIP3   OH260645   3.041   2.043   0.692  0.0942  0.2909 -0.0879
13077TIP3    H160646   3.078   2.060   0.606 -0.0299  0.2245 -0.1555
13077TIP3    H260647   3.036   1.947   0.698 -0.9286  0.3084 -0.4597
13078TIP3   OH260648   5.789   3.531  11.084 -0.6257 -0.0711  0.7137
13078TIP3    H160649   5.799   3.481  11.165  3.8022 -0.6281  0.0608
13078TIP3    H260650   5.772   3.465  11.017  0.2835 -0.1647  0.5660
13079TIP3   OH260651   1.791   2.044  16.358  0.2186  0.5262  1.0857
13079TIP3    H160652   1.830   2.129  16.335  2.0877 -0.7630 -0.9169
13079TIP3    H260653   1.862   1.996  16.401  0.1999 -1.0377 -0.4934
13080TIP3   OH260654   1.903   5.190   3.210 -0.6172  0.0599 -0.4638
13080TIP3    H160655   1.863   5.255   3.268  0.7840 -0.3121  1.0053
13080TIP3    H260656   1.854   5.109   3.228  0.5571 -0.3487  1.1849
13081TIP3   OH260657   4.474   6.072   3.300 -0.5506 -0.3142  0.6776
13081TIP3    H160658   4.382   6.082   3.278 -0.9191 -0.6110  1.9942
13081TIP3    H260659   4.506   6.006   3.238 -1.4058 -0.7209  0.6483
13082TIP3   OH260660   4.487   0.584  14.382  1.0723  0.5628 -0.0111
13082TIP3    H160661   4.579   0.588  14.409  1.5274  0.9859 -1.5427
13082TIP3    H260662   4.478   0.653  14.316  0.0344 -0.4423 -0.9688
13083TIP3   OH260663   2.198   5.807  12.723 -0.0703 -0.3351 -0.3660
13083TIP3    H160664   2.293   5.802  12.726 -0.1144 -1.4944 -0.5077
13083TIP3    H260665   2.177   5.819  12.631 -0.0632 -0.1667 -0.3452
13084TIP3   OH260666   5.656   1.059   3.737 -0.7547  0.0804 -0.1801
13084TIP3    H160667   5.667   1.140   3.688 -1.1151  0.9902  1.1736
13084TIP3    H260668   5.571   1.068   3.780 -1.1881 -1.4011 -0.6673
13085TIP3   OH260669   2.651   0.754   2.462 -0.1102  0.0682 -0.2243
13085TIP3    H160670   2.739   0.770   2.495  0.3217  0.8234 -1.6563
13085TIP3    H260671   2.605   0.712   2.535  2.3403 -3.3611 -0.4088
13086TIP3   OH260672   2.164   4.659   5.409  0.5703  0.1667 -0.1357
13086TIP3    H160673   2.129   4.714   5.479 -0.3506  0.2694 -0.6574
13086TIP3    H260674   2.144   4.569   5.436  0.3447  0.1988 -0.1922
13087TIP3   OH260675   6.374   5.455  15.040 -0.0644  0.4173 -0.3939
13087TIP3    H160676   6.285   5.426  15.020 -0.3204 -1.4279  2.9301
13087TIP3    H260677   6.418   5.378  15.074  1.3150  2.2955  2.4843
13088TIP3   OH260678   3.880   0.230   2.716  0.1206 -0.1849 -0.6022
13088TIP3    H160679   3.879   0.320   2.749 -1.3911  0.0480 -1.1764
13088TIP3    H260680   3.934   0.182   2.779  0.0018  0.8940  0.3721
13089TIP3   OH260681   1.487   0.208   3.485 -0.0486 -0.2322  0.0181
13089TIP3    H160682   1.551   0.178   3.549 -1.4371  0.6303  1.8912
13089TIP3    H260683   1.535   0.272   3.432  1.5142 -1.9738 -0.8182
13090TIP3   OH260684   5.728   6.107  15.458 -0.0617 -0.0453 -0.3001
13090TIP3    H160685   5.771   6.022  15.465 -2.1122 -1.0884  0.4054
13090TIP3    H260686   5.682   6.103  15.374  0.8211  0.8829 -0.8450
13091TIP3   OH260687   1.747   4.642  14.173  0.8325 -0.2123 -0.2627
13091TIP3    H160688   1.841   4.645  14.194  0.7327  1.7499  0.0881
13091TIP3    H260689   1.722   4.734  14.165 -0.9134 -0.7310 -1.1090
13092TIP3   OH260690   4.632   0.814   5.650 -0.2988 -0.0169  0.2375
13092TIP3    H160691   4.702   0.819   5.585 -0.7193  0.6936 -0.1806
13092TIP3    H260692   4.672   0.770   5.725  0.7767  0.8903  0.2344
13093TIP3   OH260693   4.855   0.988  11.741 -0.3081  0.4478 -0.7597
13093TIP3    H160694   4.859   0.917  11.805  0.4791  0.2101 -1.0510
13093TIP3    H260695   4.762   1.003  11.727 -0.5187  0.8945  0.8558
13094TIP3   OH260696   3.611   0.604  13.477  0.0743  0.5989 -0.1339
13094TIP3    H160697   3.692   0.562  13.506  0.3872  0.9598 -0.4730
13094TIP3    H260698   3.626   0.697  13.496  0.6956  1.0008 -2.3582
13095TIP3   OH260699   2.940   5.028   0.632 -0.0833  0.0197 -0.0877
13095TIP3    H160700   3.027   5.038   0.594  0.6218 -0.2171  1.3903
13095TIP3    H260701   2.936   4.936   0.658 -0.6060  0.1367  0.2594
13096TIP3   OH260702   3.529   0.308  13.717 -0.4461  0.5592  0.0764
13096TIP3    H160703   3.601   0.263  13.674 -1.6936 -0.2995 -1.2259
13096TIP3    H260704   3.450   0.263  13.686 -1.5955  1.8789  0.9107
13097TIP3   OH260705   5.028   0.796   3.951 -0.2957  0.0499  0.0159
13097TIP3    H160706   5.114   0.787   3.911 -0.6513 -2.1375 -0.4066
13097TIP3    H260707   5.029   0.735   4.025 -1.4071  0.1161  0.1099
13098TIP3   OH260708   3.569   4.851   3.719 -0.0355  0.3515  0.9302
13098TIP3    H160709   3.626   4.851   3.642  0.6459  1.8935  1.3937
13098TIP3    H260710   3.566   4.759   3.746  0.4010 -0.0912 -0.4133
13099TIP3   OH260711   3.175   5.033  16.514 -0.2031 -0.5087 -0.0056
13099TIP3    H160712   3.150   5.112  16.466  0.4974 -0.0013  0.4394
13099TIP3    H260713   3.269   5.022  16.495 -0.5872 -2.0533 -1.2065
13100TIP3   OH260714   5.020   6.073  16.577 -0.5727 -0.4391 -0.4180
13100TIP3    H160715   5.096   6.016  16.564  0.3243  0.3938  0.9062
13100TIP3    H260716   4.945   6.017  16.559  0.2139 -2.4133  1.8663
13101TIP3   OH260717   6.468   0.766  10.842 -0.1299 -0.3012  0.2041
13101TIP3    H160718   6.542   0.784  10.900  0.3824 -1.5410 -0.0428
13101TIP3    H260719   6.471   0.837  10.778 -0.4886  0.8873  1.4486
13102TIP3   OH260720   1.565   4.287   1.275  0.0343 -0.0526  0.1066
13102TIP3    H160721   1.498   4.251   1.334 -0.9480  0.9072 -0.3757
13102TIP3    H260722   1.528   4.277   1.188  0.7662  0.0113 -0.2147
13103TIP3   OH260723   3.663   5.838  14.784 -0.1672  0.2619  0.0961
13103TIP3    H160724   3.603   5.911  14.803  0.5161  1.1777 -1.1031
13103TIP3    H260725   3.682   5.846  14.690 -0.3295 -1.6787 -0.1393
13104TIP3   OH260726   2.583   5.372   1.495 -0.3296 -0.4846  0.3080
13104TIP3    H160727   2.569   5.304   1.430  0.8788 -0.7177  0.2779
13104TIP3    H260728   2.645   5.433   1.454 -0.9778  0.3520  0.5357
13105TIP3   OH260729   4.800   4.259   0.192 -0.0456  0.6206  0.3196
13105TIP3    H160730   4.870   4.204   0.226 -0.8178 -0.8303 -0.3215
13105TIP3    H260731   4.835   4.295   0.111  0.1979  0.4069  0.3274
13106TIP3   OH260732   2.307   4.723  10.493  0.5568 -0.4381  0.3720
13106TIP3    H160733   2.399   4.709  10.515  0.6081 -1.3192 -0.3405
13106TIP3    H260734   2.259   4.687  10.567  0.7674  0.9254  1.2218
13107TIP3   OH260735   0.175   1.477  11.387  0.5823  0.1589  0.6717
13107TIP3    H160736   0.121   1.443  11.316  0.1002 -0.7812  1.4577
13107TIP3    H260737   0.264   1.446  11.367  0.0724 -2.2104  1.6624
13108TIP3   OH260738   6.560   2.169  15.249  0.1095  0.3637  0.3783
13108TIP3    H160739   6.586   2.139  15.336 -1.7145  0.4808  1.0197
13108TIP3    H260740   6.495   2.238  15.266 -0.3605  0.3150 -1.0689
13109TIP3   OH260741   4.730   2.801  11.041 -0.3561 -0.1487  0.3162
13109TIP3    H160742   4.808   2.771  11.088 -1.4904 -1.0012  1.7551
13109TIP3    H260743   4.760   2.876  10.990  1.1813  0.1916  1.6396
13110TIP3   OH260744   2.255   6.366  14.786  0.0577 -0.6443 -0.0078
13110TIP3    H160745   2.237   6.397  14.875 -0.0294  0.9086 -0.5375
13110TIP3    H260746   2.261   6.445  14.734 -2.1826 -1.5692 -1.8562
13111TIP3   OH260747   5.176   3.643  16.847 -0.0563  0.5942  0.0045
13111TIP3    H160748   5.133   3.579  16.902 -1.5297  3.2474  2.1594
13111TIP3    H260749   5.250   3.596  16.808 -1.6972 -2.6358  0.5205
13112TIP3   OH260750   3.911   5.525  15.326 -0.1318  0.0404 -0.0791
13112TIP3    H160751   3.931   5.432  15.316 -1.0786 -0.1471 -0.3782
13112TIP3    H260752   3.819   5.532  15.299  0.3310  1.2887 -1.4465
13113TIP3   OH260753   0.969   3.944   3.637  0.5942 -0.5237 -0.3359
13113TIP3    H160754   0.974   3.946   3.733 -0.6234 -0.4567 -0.2530
13113TIP3    H260755   0.916   3.867   3.617 -0.6210  0.3991 -0.8474
13114TIP3   OH260756   3.039   1.966  16.128  0.2731 -0.2419  0.0895
13114TIP3    H160757   2.975   1.941  16.195 -1.7791  0.1663 -1.6232
13114TIP3    H260758   3.093   1.888  16.116 -0.1025 -0.7184  1.3283
13115TIP3   OH260759   5.804   6.451   6.337 -0.1284 -0.4277  0.1392
13115TIP3    H160760   5.793   6.366   6.295  0.6467 -0.9819  1.0153
13115TIP3    H260761   5.728   6.460   6.395 -1.0086  0.1776 -1.0757
13116TIP3   OH260762   0.589   2.551  12.023  0.0697  0.5570  0.3178
13116TIP3    H160763   0.529   2.613  11.982 -1.0139 -0.8826 -0.3812
13116TIP3    H260764   0.564   2.550  12.115  0.3652  1.4350  0.4152
13117TIP3   OH260765   3.329   2.774  12.061 -0.0833 -0.7194 -0.1245
13117TIP3    H160766   3.390   2.846  12.045  1.6856 -2.0121  0.4953
13117TIP3    H260767   3.344   2.713  11.988 -0.9070 -0.8955 -0.1565
13118TIP3   OH260768   0.950   6.645   3.947  0.1291  0.6656 -0.4289
13118TIP3    H160769   0.976   6.640   3.855 -1.1804 -2.9753 -0.7569
13118TIP3    H260770   1.026   6.615   3.996  0.4689  1.5877 -0.3718
13119TIP3   OH260771   4.198   6.353   3.131  0.4069  0.5252  0.4758
13119TIP3    H160772   4.272   6.371   3.189 -1.1110 -0.9540  3.0813
13119TIP3    H260773   4.234   6.296   3.063  1.7478  0.2154  1.4115
13120TIP3   OH260774   3.965   5.535  11.528  0.7557  0.1211  0.0621
13120TIP3    H160775   4.035   5.496  11.476  1.1378  0.1516  0.5406
13120TIP3    H260776   3.995   5.525  11.619 -0.9073 -1.9973  0.4629
13121TIP3   OH260777   3.591   1.720   3.566 -0.3574 -0.0989 -0.0950
13121TIP3    H160778   3.563   1.808   3.543  0.5784  0.8050  1.9113
13121TIP3    H260779   3.675   1.708   3.520  0.3648  0.7737  0.9335
13122TIP3   OH260780   6.459   3.386   6.160  0.0708  0.7223 -0.6226
13122TIP3    H160781   6.530   3.372   6.098 -0.0762  1.0733 -0.8765
13122TIP3    H260782   6.379   3.367   6.111 -0.1815  2.8449 -1.1569
13123TIP3   OH260783   0.068   5.739   0.355  0.6004  0.7729 -0.1943
13123TIP3    H160784  -0.004   5.721   0.295 -0.0340  1.2056  0.4193
13123TIP3    H260785   0.026   5.755   0.439  1.5780 -1.5565  0.8189
13124TIP3   OH260786   1.922   3.364  11.734 -0.0699 -0.3039 -0.6088
13124TIP3    H160787   1.934   3.452  11.770  1.2385  0.0333 -1.7723
13124TIP3    H260788   1.887   3.380  11.646 -1.0869 -1.0117 -0.3428
13125TIP3   OH260789   6.794   2.945  11.678 -0.3763 -0.8756  0.0457
13125TIP3    H160790   6.763   2.967  11.590  0.2054  1.5753  0.3748
13125TIP3    H260791   6.861   2.878  11.663  1.0289  0.7859 -1.6251
13126TIP3   OH260792   0.152   2.503   2.555  0.5468  0.6200 -0.3187
13126TIP3    H160793   0.151   2.518   2.460 -0.8195  0.0766 -0.4116
13126TIP3    H260794   0.174   2.410   2.563  0.4766  0.6226 -0.1075
13127TIP3   OH260795   1.308   1.543   2.068  0.3217  0.9287 -0.5348
13127TIP3    H160796   1.281   1.475   2.130 -0.0848  0.0977 -1.5752
13127TIP3    H260797   1.350   1.610   2.122  2.4309 -0.9711  0.3762
13128TIP3   OH260798   3.686   3.211   0.751  0.3518 -0.0753 -0.1228
13128TIP3    H160799   3.624   3.239   0.684  1.0250 -0.8386 -1.0904
13128TIP3    H260800   3.636   3.151   0.806 -0.2513  0.6802  0.1766
13129TIP3   OH260801   2.773   1.892  13.889  0.6267  0.3104 -0.2263
13129TIP3    H160802   2.804   1.825  13.949  1.5105  0.2535 -0.7205
13129TIP3    H260803   2.853   1.939  13.863  0.7875 -1.5831 -3.7143
13130TIP3   OH260804   5.329   2.543  10.452 -0.3865  0.4567  0.3160
13130TIP3    H160805   5.271   2.589  10.391  0.2318 -1.2663 -1.6575
13130TIP3    H260806   5.273   2.479  10.495 -0.1996 -0.4719 -0.7962
13131TIP3   OH260807   6.581   0.820   5.377 -0.0823  0.6058  0.0672
13131TIP3    H160808   6.557   0.760   5.448 -0.2947  1.5925  0.8433
13131TIP3    H260809   6.664   0.784   5.344 -0.6500 -0.6217 -0.0850
13132TIP3   OH260810   2.804   3.558   0.631 -0.6987 -0.6507  0.5846
13132TIP3    H160811   2.777   3.547   0.540 -0.2021 -1.1060  0.4862
13132TIP3    H260812   2.863   3.484   0.647  0.5723  0.3819  0.7555
13133TIP3   OH260813   4.491   0.139  14.811  0.3942  0.2501 -0.3851
13133TIP3    H160814   4.491   0.216  14.755  0.4457  1.1234  0.7811
13133TIP3    H260815   4.580   0.134  14.846 -0.3623  1.5099  1.9387
13134TIP3   OH260816   4.765   4.019   1.016 -0.1861  0.0641  0.1791
13134TIP3    H160817   4.839   4.073   1.043 -1.2465  1.5992  0.1206
13134TIP3    H260818   4.795   3.929   1.030  1.5340  0.6544  0.5262
13135TIP3   OH260819   5.930   1.885  12.717  0.1091 -0.1228  0.8447
13135TIP3    H160820   5.968   1.952  12.773  0.5755 -0.7992  1.3436
13135TIP3    H260821   5.910   1.931  12.635 -0.4468  0.8358  1.5042
13136TIP3   OH260822   0.784   5.975  11.556 -0.6244 -0.2755  0.4679
13136TIP3    H160823   0.696   6.013  11.559 -0.3532  0.3060  1.1960
13136TIP3    H260824   0.843   6.048  11.575  0.0100 -0.6995  0.1590
13137TIP3   OH260825   0.117   0.307   2.936 -0.1439  0.1427 -0.2483
13137TIP3    H160826   0.037   0.281   2.890 -0.7059  1.1723  0.1244
13137TIP3    H260827   0.165   0.360   2.872  0.0125 -0.0708 -0.3083
13138TIP3   OH260828   4.526   4.870  11.477 -0.1149  0.0223 -0.2803
13138TIP3    H160829   4.450   4.910  11.520 -0.2543 -1.3272  0.8205
13138TIP3    H260830   4.538   4.787  11.524  2.2566  0.3539 -0.2258
13139TIP3   OH260831   3.329   0.221   5.136 -0.5695  0.6203 -0.7195
13139TIP3    H160832   3.252   0.173   5.167  1.1493 -0.2111  2.7357
13139TIP3    H260833   3.303   0.313   5.140 -1.2225  0.4094  1.1816
13140TIP3   OH260834   4.557   5.096  13.657  0.0763 -0.5406  0.6483
13140TIP3    H160835   4.484   5.055  13.703  0.0799 -0.2484  0.9206
13140TIP3    H260836   4.602   5.024  13.614  2.1134 -1.4239  3.8850
13141TIP3   OH260837   3.040   5.192   0.834 -0.6508  0.2256 -0.6929
13141TIP3    H160838   3.116   5.134   0.827 -0.5707  0.4224 -1.5641
13141TIP3    H260839   2.985   5.168   0.760 -0.6264  1.2424 -1.0557
13142TIP3   OH260840   5.447   4.681   1.898  0.1384 -0.0656  0.0575
13142TIP3    H160841   5.423   4.749   1.961  0.2351  1.0697 -1.0917
13142TIP3    H260842   5.404   4.706   1.816  1.2500 -0.6566 -0.7448
13143TIP3   OH260843   3.471   1.172  15.169 -0.7214  0.1821  0.6710
13143TIP3    H160844   3.424   1.252  15.144 -0.2242  0.0363 -0.7835
13143TIP3    H260845   3.528   1.199  15.241 -0.2538  1.2468 -0.0791
13144TIP3   OH260846   4.559   1.305   2.142  0.2225  0.4655 -0.0537
13144TIP3    H160847   4.619   1.287   2.215  1.0514  1.0885 -0.5737
13144TIP3    H260848   4.609   1.284   2.064 -0.1697  1.2050 -0.5054
13145TIP3   OH260849   0.335   4.613  13.721  0.3718 -0.0706  0.0674
13145TIP3    H160850   0.271   4.677  13.689  1.2168  0.8449  0.1545
13145TIP3    H260851   0.390   4.663  13.781  1.5935 -0.6647 -0.5245
13146TIP3   OH260852   1.140   5.580  16.905  0.7159 -0.7379  0.2608
13146TIP3    H160853   1.090   5.516  16.956 -1.5867  1.3867  0.9017
13146TIP3    H260854   1.200   5.620  16.968  1.2033 -1.3308  0.1757
13147TIP3   OH260855   4.882   1.614   0.773  0.0366  0.0132  0.7894
13147TIP3    H160856   4.922   1.611   0.860  0.8986  2.7231  0.5740
13147TIP3    H260857   4.795   1.649   0.787 -0.2000 -0.5022  0.6436
13148TIP3   OH260858   1.392   3.409  14.848  0.8761 -0.2319  0.4408
13148TIP3    H160859   1.311   3.459  14.836  1.0430  0.1153  0.7571
13148TIP3    H260860   1.435   3.450  14.922  0.3147 -1.7254  1.6674
13149TIP3   OH260861   3.448   1.561   0.125  0.4429  0.1756 -0.3280
13149TIP3    H160862   3.512   1.574   0.195  0.8800 -0.9327 -0.5064
13149TIP3    H260863   3.364   1.582   0.166  0.8216  0.8510  0.1342
13150TIP3   OH260864   3.128   0.246   2.885  0.0071 -0.3265  0.1913
13150TIP3    H160865   3.039   0.221   2.860  0.6376 -4.3522  1.3562
13150TIP3    H260866   3.117   0.294   2.967 -1.0704 -1.7887  0.9369
13151TIP3   OH260867   0.829   1.990   0.229  0.1455  0.1979  0.2245
13151TIP3    H160868   0.841   2.015   0.137 -0.4197  2.9102  0.8246
13151TIP3    H260869   0.756   2.044   0.259  0.5521 -0.3753  2.3842
13152TIP3   OH260870   5.697   3.915   4.880 -0.2924 -0.9503 -0.3009
13152TIP3    H160871   5.672   3.927   4.788 -1.3636 -0.9309 -0.0165
13152TIP3    H260872   5.617   3.886   4.923  0.6606 -2.9412  0.2641
13153TIP3   OH260873   6.636   1.664  13.597  0.3560 -0.5614 -0.4140
13153TIP3    H160874   6.661   1.660  13.504  3.7254  1.5202  0.2324
13153TIP3    H260875   6.718   1.682  13.643 -1.4605  0.1334  2.8294
13154TIP3   OH260876   0.873   2.836   0.859  0.6369  0.9494  0.1499
13154TIP3    H160877   0.809   2.774   0.824 -1.8500  2.0670  2.3439
13154TIP3    H260878   0.864   2.913   0.803  2.3357  0.0910 -1.3897
13155TIP3   OH260879   5.160   5.551   5.918 -0.3275  0.0930 -0.8374
13155TIP3    H160880   5.203   5.486   5.864 -0.5844  0.4539 -1.4803
13155TIP3    H260881   5.230   5.608   5.949 -0.4663  1.9304 -3.5350
13156TIP3   OH260882   3.417   0.243  12.481 -0.3994 -0.4005 -0.3952
13156TIP3    H160883   3.491   0.235  12.421 -0.3115  1.7279 -0.6656
13156TIP3    H260884   3.340   0.235  12.424 -0.3402 -0.3249 -0.4876
13157TIP3   OH260885   6.000   2.431   0.565 -0.3449 -0.5063  0.1064
13157TIP3    H160886   6.011   2.345   0.604  0.4251 -0.2852  0.3967
13157TIP3    H260887   6.003   2.492   0.639 -1.1403 -0.2423 -0.0665
13158TIP3   OH260888   0.600   4.450   4.810  0.2796  0.2259 -0.9143
13158TIP3    H160889   0.516   4.404   4.819  1.1826 -1.6456 -1.6002
13158TIP3    H260890   0.598   4.516   4.880 -0.0433 -2.5181  1.9070
13159TIP3   OH260891   3.593   6.769  11.524 -0.0145  0.6666  0.3111
13159TIP3    H160892   3.648   6.717  11.464 -0.7854  0.0356  0.1331
13159TIP3    H260893   3.633   6.856  11.523  0.0353  0.6525 -1.0733
13160TIP3   OH260894   0.177   0.982   4.255  0.3146  0.0719 -0.6340
13160TIP3    H160895   0.197   0.931   4.176  1.3224  0.8035 -0.8859
13160TIP3    H260896   0.197   1.073   4.230  0.4051  0.3459  0.3802
13161TIP3   OH260897   0.580   2.754  14.571  0.0771  0.0897 -0.1365
13161TIP3    H160898   0.497   2.792  14.542  1.1191  2.9778  0.3900
13161TIP3    H260899   0.616   2.713  14.492 -1.3211 -0.2773 -0.6167
13162TIP3   OH260900   0.263   5.683   1.721 -0.8448 -0.4452 -0.2753
13162TIP3    H160901   0.233   5.593   1.729 -1.6958 -0.3209 -1.6462
13162TIP3    H260902   0.220   5.715   1.642  0.9467  0.5798 -0.8741
13163TIP3   OH260903   2.890   4.849   1.687 -0.5899 -0.0550 -0.2011
13163TIP3    H160904   2.943   4.904   1.743 -0.5872 -1.1783  0.9286
13163TIP3    H260905   2.811   4.902   1.670  0.3593  1.1724 -1.0027
13164TIP3   OH260906   0.457   6.128  12.768 -0.1082  0.3351  0.1086
13164TIP3    H160907   0.550   6.141  12.784 -0.3577  1.2432  0.9345
13164TIP3    H260908   0.426   6.213  12.737 -0.9736  0.5506  1.4794
13165TIP3   OH260909   6.501   3.215   3.516  0.1380 -0.0651  0.3221
13165TIP3    H160910   6.508   3.267   3.596 -1.0845  1.1673 -0.3090
13165TIP3    H260911   6.563   3.144   3.527  1.3847  1.1477  1.5527
13166TIP3   OH260912   6.108   0.026  12.704  0.1981  0.1749 -0.2746
13166TIP3    H160913   6.199   0.055  12.703 -0.0753  1.1693 -2.4154
13166TIP3    H260914   6.088   0.007  12.613 -2.2403  1.7103 -0.1617
13167TIP3   OH260915   0.020   2.289  15.621 -0.1726  0.3752  0.4303
13167TIP3    H160916   0.057   2.325  15.541  0.2809  0.7561  0.7994
13167TIP3    H260917   0.090   2.299  15.686  0.1074 -1.4679  0.4834
13168TIP3   OH260918   5.301   6.439   2.814  0.4151 -1.0532 -0.5028
13168TIP3    H160919   5.320   6.382   2.889 -0.1630 -0.9774 -0.2863
13168TIP3    H260920   5.205   6.446   2.814  0.5025  0.6220  0.0150
13169TIP3   OH260921   5.470   1.042   3.328 -0.0410  0.6790  0.4850
13169TIP3    H160922   5.475   1.133   3.356 -1.7284  0.8422  0.3775
13169TIP3    H260923   5.414   1.044   3.250 -0.7007 -0.5074  0.9007
13170TIP3   OH260924   5.991   5.611  15.343 -0.2164  0.2803  0.7454
13170TIP3    H160925   5.963   5.588  15.254 -3.3192  1.9483  1.1250
13170TIP3    H260926   5.979   5.530  15.393 -1.4669  0.0887  0.1972
13171TIP3   OH260927   0.213   5.459   5.750  0.4925  0.1547  0.1186
13171TIP3    H160928   0.199   5.519   5.823  0.9215  1.7834 -1.0878
13171TIP3    H260929   0.201   5.513   5.672 -1.3872 -1.8412 -1.0912
13172TIP3   OH260930   3.173   3.277   2.121 -0.2707  0.1760 -0.3600
13172TIP3    H160931   3.164   3.217   2.195 -0.9643  0.8129  0.0851
13172TIP3    H260932   3.211   3.356   2.159  2.0348 -0.4374 -1.1943
13173TIP3   OH260933   4.861   2.769  16.520 -0.0929  0.7716 -0.8618
13173TIP3    H160934   4.784   2.729  16.560  0.8771  0.0031  0.2998
13173TIP3    H260935   4.862   2.859  16.553 -0.6137  0.8690 -1.0923
13174TIP3   OH260936   6.411   3.087  16.749  0.0411 -0.5244 -0.2179
13174TIP3    H160937   6.494   3.065  16.705  1.3642  1.2588  1.2050
13174TIP3    H260938   6.392   3.011  16.804  1.8742 -0.1847  0.9677
13175TIP3   OH260939   5.279   4.017   1.083 -0.0459  0.3722 -0.1279
13175TIP3    H160940   5.286   3.940   1.027 -0.5071 -0.8275  1.4017
13175TIP3    H260941   5.362   4.020   1.131 -1.0023 -0.7442  1.7024
13176TIP3   OH260942   3.414   4.796   3.124 -0.3244 -0.0360  0.2458
13176TIP3    H160943   3.430   4.823   3.033 -0.2100 -0.2834  0.1921
13176TIP3    H260944   3.414   4.700   3.121  2.8199 -0.1641  1.0113
13177TIP3   OH260945   3.491   3.080  10.758 -0.3938  0.1697  0.1060
13177TIP3    H160946   3.525   3.090  10.669  0.0084  1.5716  0.4005
13177TIP3    H260947   3.418   3.018  10.749  0.2580 -0.4702 -1.0259
13178TIP3   OH260948   4.075   3.490  11.836  0.1587 -0.3839  1.1743
13178TIP3    H160949   4.140   3.420  11.831 -0.0267 -0.6050  1.7323
13178TIP3    H260950   4.086   3.526  11.924  1.6290  1.6382  0.2429
13179TIP3   OH260951   4.585   2.026   3.458  0.2310  0.3997  0.0111
13179TIP3    H160952   4.524   2.005   3.387  0.8985  0.9317 -0.7437
13179TIP3    H260953   4.585   1.949   3.514 -0.1816 -0.1067 -0.6720
13180TIP3   OH260954   2.158   3.507   5.496  0.5656  0.0814 -0.0079
13180TIP3    H160955   2.218   3.433   5.498  0.4339 -0.0262 -0.0181
13180TIP3    H260956   2.086   3.479   5.439  0.6561  0.3245 -0.2454
13181TIP3   OH260957   6.620   2.259  11.345 -0.3933  0.6364  0.1110
13181TIP3    H160958   6.625   2.194  11.416  0.2924  2.2714  1.6500
13181TIP3    H260959   6.573   2.333  11.384  1.4082  2.2178 -0.5649
13182TIP3   OH260960   5.085   6.353  10.978  0.0035  0.4675 -0.5866
13182TIP3    H160961   5.012   6.317  11.029  0.6127 -0.2142 -0.1824
13182TIP3    H260962   5.163   6.330  11.028  0.4842  1.4334 -0.8752
13183TIP3   OH260963   1.202   0.198   6.159  0.6358 -0.2540  0.4975
13183TIP3    H160964   1.154   0.278   6.137  0.0063 -0.5472  0.7646
13183TIP3    H260965   1.239   0.214   6.245  1.0122 -0.0281  0.2934
13184TIP3   OH260966   5.783   3.640   5.055 -0.0498  0.0866  0.1929
13184TIP3    H160967   5.724   3.616   4.983  0.7700 -0.9132 -0.1643
13184TIP3    H260968   5.870   3.642   5.015  0.3554  0.0044  1.0523
13185TIP3   OH260969   5.845   1.838  15.554 -0.1247 -0.0741  0.7596
13185TIP3    H160970   5.788   1.773  15.514  0.4736 -0.2463  0.1623
13185TIP3    H260971   5.871   1.895  15.481 -0.0210  0.3651  1.1338
13186TIP3   OH260972   0.023   1.838  16.280  0.4046  0.4081 -0.3600
13186TIP3    H160973   0.072   1.866  16.357 -1.2430  0.0080  0.8906
13186TIP3    H260974   0.047   1.747  16.267  0.9380  0.5688 -0.5601
13187TIP3   OH260975   4.048   3.522   0.443  0.0080 -1.1020  0.9081
13187TIP3    H160976   4.051   3.575   0.523  0.3970  0.5975 -0.1920
13187TIP3    H260977   4.139   3.517   0.414 -0.4841  2.3313 -1.8984
13188TIP3   OH260978   1.755   2.466  14.300 -0.0052 -0.2265  0.4791
13188TIP3    H160979   1.681   2.429  14.348 -1.0010  1.3052  0.2022
13188TIP3    H260980   1.767   2.554  14.337 -0.8279  1.0259 -2.0014
13189TIP3   OH260981   6.417   0.201  16.631  0.2173  0.1653  0.0893
13189TIP3    H160982   6.374   0.285  16.617  1.6075  0.8757 -0.1452
13189TIP3    H260983   6.491   0.221  16.688  0.3877 -0.9569  0.2825
13190TIP3   OH260984   4.413   1.882   3.656  0.3289  0.1641 -0.2289
13190TIP3    H160985   4.409   1.976   3.675 -3.5202  0.0498  0.4082
13190TIP3    H260986   4.344   1.844   3.710  0.7259 -2.8195 -1.6351
13191TIP3   OH260987   2.278   6.551  15.941 -0.0936 -0.2748  0.2609
13191TIP3    H160988   2.306   6.482  16.001  1.2643  0.2555  0.2732
13191TIP3    H260989   2.335   6.625  15.961 -0.9731  0.5917 -0.3137
13192TIP3   OH260990   3.239   3.788   4.365  0.9152 -0.2599  0.5108
13192TIP3    H160991   3.318   3.834   4.394 -0.6988  1.6707  2.0918
13192TIP3    H260992   3.211   3.837   4.288 -0.3321  0.9933  1.7020
13193TIP3   OH260993   6.701   3.835  16.688 -0.1057  0.4006 -0.3887
13193TIP3    H160994   6.626   3.841  16.747 -0.2675 -0.3745 -0.5029
13193TIP3    H260995   6.661   3.826  16.601  0.1063  2.8048 -0.8257
13194TIP3   OH260996   5.658   6.703   4.119  0.6621  0.1068  0.5413
13194TIP3    H160997   5.604   6.779   4.142 -0.6450  0.0964 -2.1464
13194TIP3    H260998   5.691   6.723   4.032 -0.5422 -2.7769 -0.6855
13195TIP3   OH260999   4.881   4.730   0.966  0.4672 -0.2833 -0.2072
13195TIP3    H161000   4.800   4.781   0.967  0.0085 -0.9800 -0.6319
13195TIP3    H261001   4.937   4.771   1.032 -0.1008  0.4188 -0.1575
13196TIP3   OH261002   0.196   6.014   2.145  0.2013  0.4207  0.0071
13196TIP3    H161003   0.152   6.093   2.113 -0.3550  0.5462  1.0714
13196TIP3    H261004   0.192   5.954   2.071 -1.6056  0.4926  0.0041
13197TIP3   OH261005   0.984   2.837   1.111 -0.4476  0.2781  0.0202
13197TIP3    H161006   0.933   2.826   1.030 -1.0546 -0.2493  0.4594
13197TIP3    H261007   1.012   2.749   1.134  0.4694  0.5341 -0.0755
13198TIP3   OH261008   0.103   0.797  14.487  0.1101 -0.1094 -0.4251
13198TIP3    H161009   0.184   0.753  14.461  0.9673  1.0470  0.1886
13198TIP3    H261010   0.102   0.790  14.583  0.5925  1.7269 -0.2657
13199TIP3   OH261011   4.889   0.336   3.932  0.1394 -0.1952  0.1164
13199TIP3    H161012   4.926   0.386   4.003  1.8588  0.7488 -1.3797
13199TIP3    H261013   4.931   0.250   3.937 -0.5523 -0.5054  0.8489
13200TIP3   OH261014   6.254   3.256  14.578  0.2869 -0.3317 -0.3634
13200TIP3    H161015   6.165   3.286  14.596  0.5401  0.3494 -0.1997
13200TIP3    H261016   6.294   3.245  14.665  0.5043 -0.1815 -0.4416
13201TIP3   OH261017   2.679   1.840  14.777  0.2297 -0.0393  0.8736
13201TIP3    H161018   2.685   1.855  14.871 -0.3302  0.1182  0.8877
13201TIP3    H261019   2.681   1.745  14.767  0.1732 -0.0582  1.0510
13202TIP3   OH261020   3.635   0.356   0.757 -0.1405 -0.0428 -0.3925
13202TIP3    H161021   3.553   0.366   0.708  0.9385  0.6303 -2.1394
13202TIP3    H261022   3.629   0.268   0.795 -2.0974  0.3701  0.3915
13203TIP3   OH261023   4.448   0.358   0.195  0.0019 -0.2257 -0.0941
13203TIP3    H161024   4.420   0.316   0.114 -0.7840  0.8566 -0.4140
13203TIP3    H261025   4.457   0.451   0.172 -0.2418  0.1065  1.0534
13204TIP3   OH261026   5.516   3.992   0.544 -0.2765 -0.2390  0.3240
13204TIP3    H161027   5.490   4.003   0.635  0.8548 -1.0725  0.7596
13204TIP3    H261028   5.548   4.078   0.517  0.1314 -0.1985  0.9483
13205TIP3   OH261029   6.564   6.064   1.629 -0.2908  0.2388  0.5715
13205TIP3    H161030   6.514   6.052   1.548  1.5338  1.2126 -0.7805
13205TIP3    H261031   6.500   6.101   1.691 -1.3660  1.0291 -0.9260
13206TIP3   OH261032   1.864   4.580  12.356 -0.0354 -0.1552  0.3620
13206TIP3    H161033   1.795   4.515  12.355 -0.1606 -0.0198  0.1392
13206TIP3    H261034   1.888   4.592  12.264  0.6351 -0.5742  0.4786
13207TIP3   OH261035   5.671   4.345   1.654 -0.2936  0.1670  0.8585
13207TIP3    H161036   5.625   4.395   1.587  0.8976  0.0738 -0.0672
13207TIP3    H261037   5.747   4.400   1.676 -0.2362 -0.1781  1.5252
13208TIP3   OH261038   2.450   2.232  11.425  0.4180  1.0441 -0.8058
13208TIP3    H161039   2.377   2.274  11.380 -0.2551 -1.4599 -2.2669
13208TIP3    H261040   2.408   2.170  11.485  1.3638  1.7018  0.5817
13209TIP3   OH261041   6.452   1.308   5.421 -0.3021 -0.5853 -0.1972
13209TIP3    H161042   6.466   1.402   5.427 -2.2042 -0.3603  1.6573
13209TIP3    H261043   6.517   1.278   5.358  1.8166  1.6285  0.8108
13210TIP3   OH261044   1.669   6.154   1.576  0.0389  0.4668 -0.0989
13210TIP3    H161045   1.638   6.226   1.631  0.1412  1.0173 -0.7508
13210TIP3    H261046   1.614   6.158   1.497  1.1504  0.8866 -0.8763
13211TIP3   OH261047   5.949   0.820   0.508 -0.1303  0.3950 -0.3495
13211TIP3    H161048   5.997   0.889   0.553 -0.1363  0.8300 -1.0056
13211TIP3    H261049   5.910   0.768   0.579  0.4873  0.6151  0.1656
13212TIP3   OH261050   4.070   6.716  15.605  0.2233  0.3118 -0.6313
13212TIP3    H161051   4.056   6.795  15.657 -1.7211 -0.1326 -0.3725
13212TIP3    H261052   4.000   6.656  15.634  0.5679 -0.8365 -2.0566
13213TIP3   OH261053   4.459   6.388  12.539 -0.4835  0.2913 -0.6568
13213TIP3    H161054   4.455   6.460  12.602 -2.2302 -0.1109 -0.2504
13213TIP3    H261055   4.483   6.430  12.456 -2.9777  1.6633 -0.7896
13214TIP3   OH261056   2.716   4.183  14.078 -0.4845  0.3935 -0.6396
13214TIP3    H161057   2.655   4.110  14.068 -1.5651  0.9742  1.3582
13214TIP3    H261058   2.679   4.253  14.025 -0.5608  0.1745 -0.8798
13215TIP3   OH261059   1.232   5.268   4.111 -0.2130  0.3136 -0.3012
13215TIP3    H161060   1.237   5.198   4.175 -0.4303  0.4521 -0.1317
13215TIP3    H261061   1.281   5.236   4.036 -0.0685  0.0982 -0.1144
13216TIP3   OH261062   1.888   1.354  11.909 -0.4665 -0.3718  0.9249
13216TIP3    H161063   1.835   1.331  11.833  0.1676  2.4505 -0.5234
13216TIP3    H261064   1.977   1.331  11.884 -0.1594  1.2059  0.4345
13217TIP3   OH261065   6.497   2.748   3.756 -0.0937 -1.0257 -0.3763
13217TIP3    H161066   6.441   2.759   3.833  1.6466 -0.7750  0.9172
13217TIP3    H261067   6.549   2.670   3.776  1.5865  0.0300 -0.4900
13218TIP3   OH261068   2.052   5.563   2.382  0.2606  0.2925 -0.4295
13218TIP3    H161069   2.007   5.642   2.350 -0.4475 -0.7431 -2.1515
13218TIP3    H261070   2.103   5.532   2.307  1.1054 -0.5008  0.4419
13219TIP3   OH261071   1.307   0.470  12.986  0.9724  0.3151 -0.8816
13219TIP3    H161072   1.373   0.533  13.015  2.0559 -0.1920 -2.1114
13219TIP3    H261073   1.353   0.415  12.922  0.1351 -1.8380  0.2552
13220TIP3   OH261074   1.988   0.788  15.445  0.3468 -0.1966  0.5208
13220TIP3    H161075   2.066   0.749  15.484  1.1834  0.8625 -0.0404
13220TIP3    H261076   2.021   0.860  15.392 -1.1385  1.8337  2.1455
13221TIP3   OH261077   6.349   5.439   0.816  0.4404 -0.0971  0.0408
13221TIP3    H161078   6.430   5.488   0.801 -0.1436  1.1043  0.6589
13221TIP3    H261079   6.298   5.452   0.735  0.3374  0.2419  0.1562
13222TIP3   OH261080   1.546   6.668  11.694 -0.4038 -0.3479  0.1927
13222TIP3    H161081   1.564   6.638  11.606 -1.0190 -1.2827  0.3664
13222TIP3    H261082   1.529   6.762  11.685 -1.2539 -0.5866 -0.8082
13223TIP3   OH261083   6.803   5.003  14.690 -0.1971  1.0247  0.3963
13223TIP3    H161084   6.853   4.931  14.651 -0.6978  0.3279  1.0076
13223TIP3    H261085   6.804   4.986  14.784 -0.1476  1.9392  0.5679
13224TIP3   OH261086   5.687   2.785   4.283  0.5975 -0.1002 -0.2681
13224TIP3    H161087   5.730   2.822   4.206 -0.9120  0.0254 -1.0893
13224TIP3    H261088   5.621   2.850   4.307 -2.6195 -2.3779 -2.1823
13225TIP3   OH261089   5.413   0.024   4.149  0.4061  0.2207 -0.1300
13225TIP3    H161090   5.436   0.096   4.090 -1.8517 -0.0600 -1.4657
13225TIP3    H261091   5.333   0.052   4.193 -0.6486 -1.4938 -0.8380
13226TIP3   OH261092   6.613   1.812  13.872 -0.0933 -0.4492 -0.3479
13226TIP3    H161093   6.571   1.727  13.855 -0.0698 -1.0867  2.2850
13226TIP3    H261094   6.543   1.867  13.908  0.2055  0.1902 -0.7308
13227TIP3   OH261095   0.448   3.369   0.389 -0.3383 -0.4976 -0.4978
13227TIP3    H161096   0.540   3.342   0.396 -0.0138  0.7828  0.6763
13227TIP3    H261097   0.436   3.392   0.297  0.3661 -1.1635 -0.7654
13228TIP3   OH261098   6.536   1.507   2.166 -0.2167  0.9386 -0.0502
13228TIP3    H161099   6.492   1.482   2.248  0.0517  1.5363  0.2840
13228TIP3    H261100   6.522   1.602   2.160  0.4375  1.0233 -0.2927
13229TIP3   OH261101   6.575   0.164  17.065  0.1121 -0.0964 -0.0394
13229TIP3    H161102   6.653   0.151  17.119 -0.2824  0.6718  0.7379
13229TIP3    H261103   6.544   0.076  17.046  0.3341 -0.3790  0.8786
13230TIP3   OH261104   1.880   1.953   3.569 -0.4327  0.3781 -0.6986
13230TIP3    H161105   1.803   1.919   3.524 -0.3200  0.8539 -1.2561
13230TIP3    H261106   1.954   1.910   3.527 -0.3975 -0.3517  0.0761
13231TIP3   OH261107   5.222   6.082   3.769 -0.2826  0.3928 -0.4967
13231TIP3    H161108   5.214   6.112   3.679  0.2184  0.3906 -0.5448
13231TIP3    H261109   5.268   5.999   3.763  1.1382  1.1277 -0.1386
13232TIP3   OH261110   4.399   4.487   1.433 -0.2396  0.6689  0.0090
13232TIP3    H161111   4.430   4.469   1.521 -1.9700 -1.1285  0.3206
13232TIP3    H261112   4.416   4.407   1.384 -1.7995  0.6304 -0.5247
13233TIP3   OH261113   4.176   2.722  12.592 -0.3252 -0.0648  0.2483
13233TIP3    H161114   4.102   2.783  12.597 -1.0611 -0.9245 -0.0868
13233TIP3    H261115   4.188   2.706  12.499  2.9977  3.2945 -0.1633
13234TIP3   OH261116   1.817   2.455   2.768 -0.0541  1.0565  0.3336
13234TIP3    H161117   1.879   2.442   2.696 -0.8497 -5.0581  0.1965
13234TIP3    H261118   1.731   2.454   2.726 -0.4373 -0.3029  1.0684
13235TIP3   OH261119   0.407   3.849   6.030  0.0715  0.4003  0.1637
13235TIP3    H161120   0.468   3.915   5.995  1.4750 -0.9327 -0.0214
13235TIP3    H261121   0.338   3.843   5.964  0.0465  1.4921  0.0674
13236TIP3   OH261122   5.551   4.618   3.781  1.0249  0.1851  0.4771
13236TIP3    H161123   5.620   4.654   3.837  1.3561  1.1197 -0.5016
13236TIP3    H261124   5.497   4.694   3.757  1.3208 -0.0503 -1.0486
13237TIP3   OH261125   6.489   3.400   2.330  0.1644 -0.5927  0.3413
13237TIP3    H161126   6.543   3.405   2.409 -1.3053 -0.2474  1.3674
13237TIP3    H261127   6.399   3.394   2.363 -0.3774 -2.3102 -1.2874
13238TIP3   OH261128   6.640   3.799  12.753 -0.5825 -0.2888 -0.0926
13238TIP3    H161129   6.573   3.851  12.798  0.2160  0.5572  0.1488
13238TIP3    H261130   6.612   3.798  12.661 -1.2704 -0.5010  0.1178
13239TIP3   OH261131   3.888   6.677  12.193 -0.0834  0.0692 -0.4172
13239TIP3    H161132   3.814   6.708  12.246 -0.6440 -1.4513 -0.2692
13239TIP3    H261133   3.960   6.666  12.255 -0.2585 -0.1447 -0.2528
13240TIP3   OH261134   1.823   2.926   3.636  0.2759 -0.2869  0.7423
13240TIP3    H161135   1.864   2.842   3.618 -0.6469 -0.7875  0.9468
13240TIP3    H261136   1.763   2.940   3.563  0.9179  0.5359  0.3451
13241TIP3   OH261137   5.951   4.714  15.484 -0.5617  0.1468 -0.3241
13241TIP3    H161138   6.003   4.661  15.545 -1.7291 -0.9135 -0.2156
13241TIP3    H261139   5.918   4.787  15.537  0.5898  0.7185 -0.3464
13242TIP3   OH261140   0.437   6.638  12.545 -0.1475 -0.1209 -0.4694
13242TIP3    H161141   0.375   6.621  12.616 -3.0808  4.3059 -1.5832
13242TIP3    H261142   0.511   6.680  12.587 -0.9919  0.6822  0.2640
13243TIP3   OH261143   5.125   4.580  11.102 -0.5020 -0.0994  0.5560
13243TIP3    H161144   5.052   4.539  11.055 -0.3317  0.7307 -0.4593
13243TIP3    H261145   5.097   4.671  11.115  0.1441  0.1026  0.5778
13244TIP3   OH261146   1.254   1.925   0.790  0.2629  0.3720 -0.0234
13244TIP3    H161147   1.297   1.851   0.834  0.5983  0.4234 -0.2608
13244TIP3    H261148   1.184   1.885   0.739  1.1739  0.0760 -1.0845
13245TIP3   OH261149   0.027   3.896  13.301  0.1044 -0.0827 -0.3719
13245TIP3    H161150   0.033   3.969  13.362  0.7432  0.8563 -1.5079
13245TIP3    H261151   0.113   3.855  13.303 -0.2695 -0.8713  0.3058
13246TIP3   OH261152   2.426   1.336  12.359 -0.5092  0.0801 -0.0008
13246TIP3    H161153   2.399   1.328  12.450 -2.5851 -1.4050 -0.6733
13246TIP3    H261154   2.510   1.292  12.355 -2.0962 -3.2973  0.5633
13247TIP3   OH261155   2.479   2.675   0.095  0.1663 -0.0082  0.1329
13247TIP3    H161156   2.545   2.743   0.085 -0.8810  0.8239 -1.5651
13247TIP3    H261157   2.396   2.722   0.105 -0.2857 -1.0334  1.6934
13248TIP3   OH261158   1.469   0.617   1.334 -0.5585 -0.7376  0.2361
13248TIP3    H161159   1.494   0.559   1.262  0.1564 -3.6057  2.5787
13248TIP3    H261160   1.401   0.568   1.381  0.5640 -0.0454  2.7550
13249TIP3   OH261161   0.064   2.101   4.446 -0.3366  0.1467 -0.1539
13249TIP3    H161162  -0.008   2.049   4.410 -0.4119 -0.4559  0.8230
13249TIP3    H261163   0.093   2.157   4.374 -1.0027 -0.4559 -0.8951
13250TIP3   OH261164   3.561   1.176  13.913 -0.1414  0.5384 -0.2013
13250TIP3    H161165   3.558   1.144  13.823 -0.0766  2.3103 -0.8742
13250TIP3    H261166   3.651   1.163  13.941 -0.4218 -1.0548  0.0335
13251TIP3   OH261167   5.889   2.540   3.334  0.0745 -0.9003 -0.1689
13251TIP3    H161168   5.925   2.602   3.399  1.5733 -3.8568  2.0642
13251TIP3    H261169   5.794   2.543   3.349 -0.1126  1.8133 -1.1939
13252TIP3   OH261170   6.618   6.374   4.883 -0.4928  0.1016  0.6677
13252TIP3    H161171   6.650   6.415   4.963 -1.2417  3.1833 -0.4744
13252TIP3    H261172   6.523   6.369   4.895 -0.5771  0.2961  0.1130
13253TIP3   OH261173   2.905   4.830  13.599 -0.4283  0.3292 -0.5151
13253TIP3    H161174   2.833   4.881  13.561 -0.5449  0.1038 -0.5995
13253TIP3    H261175   2.973   4.830  13.531 -0.5881  0.0306 -0.6770
13254TIP3   OH261176   5.068   1.531   1.532  0.2878  0.2480 -0.3883
13254TIP3    H161177   5.038   1.616   1.565 -1.6403 -0.4102 -0.3515
13254TIP3    H261178   5.035   1.467   1.595  0.6724 -0.6334 -1.0587
13255TIP3   OH261179   3.816   3.088  12.378 -0.1845  0.7794  0.9299
13255TIP3    H161180   3.763   3.102  12.456 -0.1977  1.6924  0.7586
13255TIP3    H261181   3.760   3.034  12.321 -0.1430  0.0410  1.5691
13256TIP3   OH261182   1.859   0.225   0.629 -0.1986 -0.1911  0.4175
13256TIP3    H161183   1.916   0.167   0.579 -0.9046 -2.4084  2.0171
13256TIP3    H261184   1.919   0.288   0.668  1.0797 -1.7198  1.0700
13257TIP3   OH261185   5.320   6.670  13.244  0.0623 -0.3524 -0.3561
13257TIP3    H161186   5.362   6.634  13.322  0.6166  1.9000  0.4451
13257TIP3    H261187   5.256   6.733  13.277 -0.5887 -0.2615 -1.7046
13258TIP3   OH261188   6.516   4.086  14.517  0.0229  0.5588 -0.3747
13258TIP3    H161189   6.536   4.054  14.605  3.3416  1.8103 -0.5254
13258TIP3    H261190   6.469   4.168  14.532  1.1889  1.1362  0.3222
13259TIP3   OH261191   6.446   1.904  15.767  0.3694 -0.8874  0.2383
13259TIP3    H161192   6.525   1.950  15.794  0.5338 -0.9685 -0.0974
13259TIP3    H261193   6.409   1.869  15.848  0.6457 -0.7997  0.4020
13260TIP3   OH261194   3.457   0.458   5.868 -0.1262 -0.1622 -0.1536
13260TIP3    H161195   3.481   0.548   5.890 -2.7134  0.3151  1.0851
13260TIP3    H261196   3.466   0.410   5.951 -0.0339 -0.7532 -0.4983
13261TIP3   OH261197   3.837   0.430  14.639 -0.0047 -0.0286 -0.4867
13261TIP3    H161198   3.893   0.367  14.595 -1.4626 -2.5114  0.9388
13261TIP3    H261199   3.895   0.502  14.662  2.0632 -1.3991 -1.1120
13262TIP3   OH261200   5.287   4.972  12.033  0.3410  0.1467 -0.4067
13262TIP3    H161201   5.192   4.978  12.041  0.3494  0.3001 -0.4149
13262TIP3    H261202   5.319   5.058  12.061  0.5933 -0.4674  1.3116
13263TIP3   OH261203   5.587   4.770   0.522 -0.0159 -0.4150 -0.0520
13263TIP3    H161204   5.655   4.750   0.587  1.0165  1.9245 -0.3401
13263TIP3    H261205   5.512   4.798   0.574 -0.0946 -1.0761  0.2006
13264TIP3   OH261206   3.753   4.984  14.040 -0.7338 -0.4952 -0.6848
13264TIP3    H161207   3.717   5.004  13.954  1.4615  0.6945 -1.3992
13264TIP3    H261208   3.776   5.069  14.077 -0.3265 -1.0853  0.4665
13265TIP3   OH261209   3.837   3.377  16.442 -0.6048 -0.9626 -0.4177
13265TIP3    H161210   3.920   3.424  16.444 -0.6048 -0.9494  1.6557
13265TIP3    H261211   3.816   3.369  16.349  0.7835  0.6525 -0.9262
13266TIP3   OH261212   2.298   0.391   4.373 -0.2131  0.5594 -0.2307
13266TIP3    H161213   2.365   0.450   4.408  0.9802 -0.4917 -0.6562
13266TIP3    H261214   2.221   0.405   4.428  0.8351  0.7290  1.2257
13267TIP3   OH261215   5.612   6.551   0.398  0.0205 -0.0234  0.6270
13267TIP3    H161216   5.606   6.460   0.425  1.9885 -1.6916 -3.6181
13267TIP3    H261217   5.699   6.579   0.425 -0.5871  0.6860  1.9410
13268TIP3   OH261218   0.231   5.240  13.111  0.0077  0.3023  0.4206
13268TIP3    H161219   0.158   5.228  13.172  0.7133  0.9076  1.4249
13268TIP3    H261220   0.224   5.332  13.085 -1.1430 -0.2807 -1.6037
13269TIP3   OH261221   2.118   6.387   2.117 -0.1922  0.5228  0.0296
13269TIP3    H161222   2.161   6.362   2.199 -0.7449  0.3791  0.2822
13269TIP3    H261223   2.068   6.466   2.140 -0.4665  0.3982 -0.1256
13270TIP3   OH261224   6.215   2.361   0.298 -0.4963  0.0856 -0.1892
13270TIP3    H161225   6.270   2.296   0.341  0.1609  0.0058 -1.1151
13270TIP3    H261226   6.252   2.445   0.325  0.1235  0.0306 -0.8493
13271TIP3   OH261227   5.435   2.267  11.827 -0.3167  0.4865  0.4876
13271TIP3    H161228   5.472   2.204  11.890 -0.1964 -0.1528 -0.2068
13271TIP3    H261229   5.367   2.312  11.876  0.1081  0.3457  1.2295
13272TIP3   OH261230   2.786   5.269  14.068 -0.2457 -0.2178 -0.2152
13272TIP3    H161231   2.807   5.330  13.998 -1.2585  1.2748  0.7199
13272TIP3    H261232   2.782   5.184  14.026  1.2374  0.3407 -1.5637
13273TIP3   OH261233   5.504   4.554  16.732  0.5558 -0.4783  0.3981
13273TIP3    H161234   5.455   4.586  16.808 -0.0916 -1.3758  0.3761
13273TIP3    H261235   5.437   4.516  16.675  1.0264  0.2728 -0.6697
13274TIP3   OH261236   4.516   6.659   2.989  0.3210  0.1715 -0.3363
13274TIP3    H161237   4.489   6.585   2.934  2.6845 -0.5504 -0.6387
13274TIP3    H261238   4.595   6.628   3.033  0.9764  2.2928  0.0796
13275TIP3   OH261239   4.647   2.347  14.435 -0.1463  0.2459 -0.1442
13275TIP3    H161240   4.698   2.350  14.516  0.7142 -1.0337 -0.5993
13275TIP3    H261241   4.632   2.438  14.413  0.6696  0.6373  0.8015
13276TIP3   OH261242   2.485   0.578   2.858  0.2923 -0.0841  0.2189
13276TIP3    H161243   2.551   0.571   2.927  1.5091 -1.6770 -1.0182
13276TIP3    H261244   2.402   0.558   2.901  0.7703  0.7056  1.5531
13277TIP3   OH261245   3.411   4.032  15.420 -0.0913  0.2710  0.4898
13277TIP3    H161246   3.499   4.009  15.388  0.3662  1.4726  0.8267
13277TIP3    H261247   3.411   4.127  15.422 -1.6492  0.3150 -0.1383
13278TIP3   OH261248   2.149   4.699  14.793 -0.0161  0.4383 -0.4745
13278TIP3    H161249   2.134   4.789  14.764 -1.6444  0.9612  1.7422
13278TIP3    H261250   2.092   4.647  14.736 -1.2149  1.1616  0.0069
13279TIP3   OH261251   0.088   5.949  15.264 -0.3546 -0.4242 -0.4108
13279TIP3    H161252   0.184   5.953  15.269 -0.3291 -0.0642 -1.1770
13279TIP3    H261253   0.070   5.892  15.189 -0.7193  2.7727 -2.9264
13280TIP3   OH261254   0.059   1.322  16.796  0.6396  0.1865 -0.0662
13280TIP3    H161255   0.106   1.241  16.816  1.4178  0.4172 -0.9601
13280TIP3    H261256  -0.033   1.301  16.817  0.6740 -1.2438 -1.1808
13281TIP3   OH261257   3.145   4.096   3.956  0.3259  0.0078  0.0280
13281TIP3    H161258   3.231   4.126   3.986 -0.3721  2.5993 -0.3047
13281TIP3    H261259   3.084   4.128   4.023 -0.5753 -0.0005 -0.7677
13282TIP3   OH261260   4.759   0.630  14.441 -0.3096 -0.2272 -0.3914
13282TIP3    H161261   4.852   0.618  14.459  0.2961  2.7042 -0.9329
13282TIP3    H261262   4.756   0.694  14.370 -2.7589 -0.7060 -0.8410
13283TIP3   OH261263   4.816   5.688   4.497  0.2209  0.3003 -0.4226
13283TIP3    H161264   4.845   5.762   4.444  1.1912 -0.4762 -1.0116
13283TIP3    H261265   4.891   5.667   4.553  0.1495 -0.5618 -0.6329
13284TIP3   OH261266   2.832   3.321  13.592  0.0419 -0.1054  0.1428
13284TIP3    H161267   2.855   3.228  13.589 -0.0013 -0.1680  1.3131
13284TIP3    H261268   2.796   3.339  13.505  2.8024 -0.4452 -1.1993
13285TIP3   OH261269   5.098   0.738  12.540  0.2551 -0.1197  0.5193
13285TIP3    H161270   5.059   0.823  12.562 -1.5089 -0.9188  0.6569
13285TIP3    H261271   5.023   0.682  12.518  1.5104 -0.9895 -1.9611
13286TIP3   OH261272   0.607   6.732   4.747  0.0808 -0.0730  0.0912
13286TIP3    H161273   0.611   6.660   4.683 -0.7407  0.7337 -0.8894
13286TIP3    H261274   0.696   6.735   4.783 -0.0910 -2.1570  0.8284
13287TIP3   OH261275   2.543   5.503  12.272 -0.2496  0.2106  0.1654
13287TIP3    H161276   2.494   5.499  12.190 -3.3700  1.0714  1.8003
13287TIP3    H261277   2.556   5.412  12.297 -1.3273 -0.0582 -0.2148
13288TIP3   OH261278   2.673   6.475   5.356 -0.1044 -0.2562 -0.2288
13288TIP3    H161279   2.642   6.481   5.447 -0.2679  0.2071 -0.3117
13288TIP3    H261280   2.764   6.503   5.359 -0.3842  0.7140 -0.3503
13289TIP3   OH261281   6.096   2.740   2.101 -0.0072  0.0853  0.2065
13289TIP3    H161282   6.039   2.679   2.148  0.1633  0.0982  0.4370
13289TIP3    H261283   6.043   2.818   2.089 -0.6293 -0.5070 -1.1303
13290TIP3   OH261284   5.536   2.160   0.672  0.0051 -0.0990  0.4369
13290TIP3    H161285   5.526   2.081   0.620  0.8601 -1.4217  2.1864
13290TIP3    H261286   5.602   2.212   0.626 -0.1553 -0.6487 -0.4297
13291TIP3   OH261287   3.218   2.683  12.914  0.0311 -0.8145  0.0559
13291TIP3    H161288   3.127   2.659  12.933  0.1492 -0.3479  1.3180
13291TIP3    H261289   3.270   2.622  12.967  0.4196 -0.2480  0.3351
13292TIP3   OH261290   3.227   1.548  15.512 -0.3324  0.5934 -0.4431
13292TIP3    H161291   3.208   1.466  15.559 -1.2061  1.2512  0.3949
13292TIP3    H261292   3.321   1.560  15.522 -0.3908  0.3561  0.5625
13293TIP3   OH261293   2.828   6.499   0.686 -0.0787  0.0950 -0.6645
13293TIP3    H161294   2.791   6.569   0.739  0.7369 -0.0138  0.0784
13293TIP3    H261295   2.795   6.419   0.725  1.5713 -0.0432  0.5679
13294TIP3   OH261296   4.392   2.148  11.010  0.0980  0.2377 -0.1532
13294TIP3    H161297   4.408   2.120  10.920 -0.8555 -0.9097  0.0123
13294TIP3    H261298   4.436   2.082  11.064 -0.6851  0.0166  0.2279
13295TIP3   OH261299   2.266   0.908  14.955  0.0884  1.0634 -0.4207
13295TIP3    H161300   2.284   0.860  15.036  1.1724  0.3703 -1.0350
13295TIP3    H261301   2.345   0.894  14.902 -0.8920  0.8778 -1.8806
13296TIP3   OH261302   2.941   1.944  11.194  0.1116  0.3098 -0.3210
13296TIP3    H161303   2.935   1.864  11.246 -0.1647 -0.0659 -0.9209
13296TIP3    H261304   2.937   2.015  11.259 -0.1915 -0.1497  0.1709
13297TIP3   OH261305   5.565   0.907   0.278 -0.5848  0.4927  0.7635
13297TIP3    H161306   5.660   0.912   0.265 -0.0943  0.2252  3.6007
13297TIP3    H261307   5.538   0.827   0.233  0.8259 -0.3078  1.2944
13298TIP3   OH261308   6.210   6.338  16.422 -0.3395 -0.6385 -0.5217
13298TIP3    H161309   6.119   6.364  16.438 -0.3240 -0.6643 -0.3894
13298TIP3    H261310   6.258   6.421  16.421  0.0251 -0.7718  1.9157
13299TIP3   OH261311   2.851   4.011  11.744  0.9692  0.0094 -0.5884
13299TIP3    H161312   2.859   4.032  11.837 -0.9863 -0.2172 -0.3184
13299TIP3    H261313   2.939   3.988  11.717  1.5909  0.0933  1.2164
13300TIP3   OH261314   3.762   1.636   2.577 -0.4777  0.1530 -0.4730
13300TIP3    H161315   3.721   1.711   2.620 -1.3001  0.4547 -1.7162
13300TIP3    H261316   3.847   1.669   2.548  0.4091 -0.2696  1.5076
13301TIP3   OH261317   4.264   2.711  11.759  0.1925 -0.0270 -0.0698
13301TIP3    H161318   4.350   2.750  11.741  0.1996  0.1135  0.2691
13301TIP3    H261319   4.210   2.739  11.685  0.6099 -0.6715 -0.6298
13302TIP3   OH261320   0.701   4.407  13.618 -0.1079 -0.5264 -0.2120
13302TIP3    H161321   0.607   4.394  13.603 -0.3289  0.2080  0.4588
13302TIP3    H261322   0.709   4.411  13.714  0.5694 -0.3097 -0.2752
13303TIP3   OH261323   1.232   3.832   3.967  0.9592 -0.4007  0.5191
13303TIP3    H161324   1.177   3.905   3.939 -0.0676 -0.0460  3.1481
13303TIP3    H261325   1.318   3.850   3.930  0.3506  1.3117 -0.1445
13304TIP3   OH261326   2.175   2.338   4.050 -0.0339  0.4886 -0.4961
13304TIP3    H161327   2.247   2.294   4.095  0.5529  1.4497 -0.4573
13304TIP3    H261328   2.104   2.339   4.114  0.0101 -0.2088 -0.4287
13305TIP3   OH261329   1.298   0.069   2.550  0.1759  0.2807  0.6302
13305TIP3    H161330   1.306   0.051   2.456  1.3612  2.9935  0.1175
13305TIP3    H261331   1.388   0.070   2.582 -0.2654 -2.0177  2.1965
13306TIP3   OH261332   4.341   6.022   3.903 -0.0896 -0.3905  0.0173
13306TIP3    H161333   4.338   5.934   3.867 -1.1983 -1.1709  1.8491
13306TIP3    H261334   4.285   6.074   3.846 -0.5839 -1.2085 -0.2500
13307TIP3   OH261335   1.063   4.302  12.068  0.6144  0.1040  0.3912
13307TIP3    H161336   1.117   4.380  12.081 -1.0975  1.7938 -1.8849
13307TIP3    H261337   0.993   4.310  12.134  0.2108  0.7479 -0.1038
13308TIP3   OH261338   1.818   5.426  13.217  0.0797  0.3258 -0.0086
13308TIP3    H161339   1.901   5.378  13.229 -0.3825 -0.4839  0.0239
13308TIP3    H261340   1.793   5.453  13.305  0.5187  0.9575 -0.0651
13309TIP3   OH261341   2.353   6.589   3.171  0.1029 -0.1393  0.0937
13309TIP3    H161342   2.424   6.647   3.195  0.6878 -1.4699  1.8158
13309TIP3    H261343   2.384   6.542   3.094  0.9154 -0.3491  0.5383
13310TIP3   OH261344   4.555   1.567   2.503  0.2191 -0.3194  0.2385
13310TIP3    H161345   4.627   1.517   2.542  1.1534  0.1872 -0.7466
13310TIP3    H261346   4.577   1.658   2.520  1.6264  0.0505 -2.8394
13311TIP3   OH261347   3.679   5.863  15.792 -0.2439 -0.0242  0.0830
13311TIP3    H161348   3.758   5.913  15.770  0.8918 -1.9661 -0.5070
13311TIP3    H261349   3.681   5.856  15.888  0.1194  0.2306  0.0975
13312TIP3   OH261350   6.668   1.848  12.548 -0.2751 -0.0839  0.5033
13312TIP3    H161351   6.740   1.912  12.548 -1.9342  1.9094 -0.8615
13312TIP3    H261352   6.590   1.899  12.569 -1.5906 -1.7938  0.0126
13313TIP3   OH261353   4.771   4.563  13.394 -0.2175 -0.1756  0.1307
13313TIP3    H161354   4.706   4.537  13.460 -0.5882 -3.3694 -1.2704
13313TIP3    H261355   4.848   4.509  13.415  0.9818  1.4353  0.0340
13314TIP3   OH261356   1.246   4.755  12.755 -0.0020 -0.1598  0.7491
13314TIP3    H161357   1.226   4.805  12.834 -2.5761  1.0550 -0.5619
13314TIP3    H261358   1.199   4.672  12.766  0.3580 -0.3569  0.8380
13315TIP3   OH261359   3.503   4.258   2.794  0.2670 -0.4961 -0.1087
13315TIP3    H161360   3.428   4.288   2.741  0.8809 -1.0628 -1.3478
13315TIP3    H261361   3.574   4.318   2.772  0.0461  0.4237  1.5360
13316TIP3   OH261362   4.730   1.173  12.141 -0.2450 -0.3728 -0.1114
13316TIP3    H161363   4.685   1.089  12.133  1.4909 -1.7787  3.1684
13316TIP3    H261364   4.686   1.217  12.214 -0.3380  1.1269 -1.0162
13317TIP3   OH261365   5.281   6.582  11.408 -0.0497  0.1610  0.0733
13317TIP3    H161366   5.347   6.616  11.468  1.1613 -0.0394 -1.0899
13317TIP3    H261367   5.217   6.538  11.465  2.1418 -1.8850  1.1387
13318TIP3   OH261368   6.061   6.328   1.263  0.0462  0.0892 -0.5331
13318TIP3    H161369   6.094   6.271   1.193  0.1773 -0.6806  0.1288
13318TIP3    H261370   6.109   6.410   1.252  0.8990 -0.4095 -0.6694
13319TIP3   OH261371   0.976   2.789  16.399 -0.1712 -0.5172  0.3451
13319TIP3    H161372   1.020   2.755  16.478 -2.3303 -0.5363  1.6182
13319TIP3    H261373   1.039   2.773  16.329  2.4403  0.7423  2.2101
13320TIP3   OH261374   1.123   0.400   3.512 -0.2024  0.0622 -0.1682
13320TIP3    H161375   1.168   0.420   3.594 -1.4409  0.7590  0.3578
13320TIP3    H261376   1.175   0.446   3.445 -0.5937  1.5767  0.5349
13321TIP3   OH261377   4.109   2.615   2.891 -0.1942 -0.0223 -0.0042
13321TIP3    H161378   4.026   2.642   2.854 -0.5067 -0.0680  0.6459
13321TIP3    H261379   4.175   2.659   2.837 -0.5612 -1.5058 -1.7535
13322TIP3   OH261380   1.518   3.452   5.321 -0.1684  0.2561 -0.0756
13322TIP3    H161381   1.435   3.437   5.366 -0.0637 -1.1573 -0.3066
13322TIP3    H261382   1.560   3.523   5.370 -1.1398  0.4208  0.5413
13323TIP3   OH261383   3.915   5.422   0.348 -0.0120  0.6831  0.6705
13323TIP3    H161384   3.868   5.409   0.431 -0.5734 -0.3927  0.2042
13323TIP3    H261385   3.974   5.347   0.342  0.1163  0.8207  0.1519
13324TIP3   OH261386   3.162   0.132   3.285  0.6555  0.3083 -1.0601
13324TIP3    H161387   3.167   0.145   3.379  1.7057 -1.9005 -0.7452
13324TIP3    H261388   3.071   0.108   3.269  0.5745  0.2588 -0.5445
13325TIP3   OH261389   4.026   4.885   4.902  0.2049 -0.2598  0.2448
13325TIP3    H161390   4.118   4.900   4.923  0.0658 -0.2541  0.8440
13325TIP3    H261391   3.986   4.972   4.906  0.2085 -0.2341 -0.2068
13326TIP3   OH261392   3.121   3.667  17.010 -0.0845 -0.7613  0.2385
13326TIP3    H161393   3.152   3.617  16.935 -1.0589 -0.5944 -0.2925
13326TIP3    H261394   3.105   3.602  17.078  1.2300 -0.8687  0.4777
13327TIP3   OH261395   2.289   0.107   1.447  0.2664  0.1628  0.1280
13327TIP3    H161396   2.362   0.138   1.500  0.2714 -1.6689  1.3034
13327TIP3    H261397   2.225   0.178   1.450  1.0474  0.8599  1.0466
13328TIP3   OH261398   1.658   1.362  10.706  0.4636  0.4826 -0.5568
13328TIP3    H161399   1.744   1.324  10.725  0.9220  1.8326  0.2335
13328TIP3    H261400   1.612   1.359  10.790 -0.4325 -0.6010 -1.0667
13329TIP3   OH261401   6.588   3.382   4.957 -0.3505  0.1159  0.2766
13329TIP3    H161402   6.592   3.435   5.037  1.9456 -0.2558  0.4895
13329TIP3    H261403   6.615   3.295   4.986  1.5243  0.1998 -1.0131
13330TIP3   OH261404   2.418   5.615  10.795  0.1239  0.2342 -0.4559
13330TIP3    H161405   2.512   5.599  10.799 -0.0935 -1.3263 -0.8972
13330TIP3    H261406   2.380   5.530  10.770 -1.4092  0.7880 -0.1286
13331TIP3   OH261407   1.101   4.193  15.974  0.3515  0.1382 -0.0426
13331TIP3    H161408   1.094   4.122  16.038  3.0467  2.8378  3.6770
13331TIP3    H261409   1.153   4.155  15.903  0.4299 -2.0374  1.0906
13332TIP3   OH261410   5.895   3.550  11.780  0.4441  0.1819  0.2895
13332TIP3    H161411   5.816   3.573  11.731  1.1137  1.6927 -0.1211
13332TIP3    H261412   5.904   3.619  11.846  1.3390 -0.0558  0.4292
13333TIP3   OH261413   0.139   4.857   1.444 -0.2510 -0.1448  0.2975
13333TIP3    H161414   0.134   4.765   1.416  0.9832  0.2586 -1.4635
13333TIP3    H261415   0.147   4.906   1.362  0.6310  1.4090  1.2591
13334TIP3   OH261416   1.988   4.478   1.941  0.5994 -0.6203  0.3382
13334TIP3    H161417   1.991   4.554   1.883 -1.6272 -1.1831 -0.6234
13334TIP3    H261418   2.046   4.414   1.900  1.0164 -0.1097  0.1211
13335TIP3   OH261419   4.313   6.805   0.569 -0.1406 -0.5807 -0.2539
13335TIP3    H161420   4.396   6.758   0.584 -0.2976 -0.7110  0.2122
13335TIP3    H261421   4.322   6.840   0.480  0.3219 -0.7888 -0.2956
13336TIP3   OH261422   5.869   2.782   1.025 -0.3447  0.1279 -0.7857
13336TIP3    H161423   5.936   2.743   1.082 -0.9740  0.7528  0.4328
13336TIP3    H261424   5.832   2.708   0.978 -0.6652 -0.6068  0.5639
13337TIP3   OH261425   1.680   4.761   4.376  0.0300  0.0990  0.2952
13337TIP3    H161426   1.756   4.741   4.322 -0.8212  0.2502 -1.0071
13337TIP3    H261427   1.647   4.843   4.340 -0.7825 -0.0011  0.7973
13338TIP3   OH261428   0.099   5.827   0.954  0.0233  0.5050 -0.0993
13338TIP3    H161429   0.160   5.882   0.905  0.7029  0.3620  0.5563
13338TIP3    H261430   0.115   5.849   1.046  0.1967 -0.6473  0.1729
13339TIP3   OH261431   6.384   1.369  11.837 -0.1228 -0.1482 -0.4959
13339TIP3    H161432   6.420   1.320  11.910 -0.0599 -0.8207 -0.9654
13339TIP3    H261433   6.303   1.406  11.870 -0.2693 -0.7358 -0.1874
13340TIP3   OH261434   5.766   6.002   1.128  0.2535 -0.0730  0.2700
13340TIP3    H161435   5.793   5.936   1.191  0.2818  0.3932  0.7533
13340TIP3    H261436   5.683   6.036   1.162  0.6417  0.7097  0.4703
13341TIP3   OH261437   0.208   0.870  16.324 -0.1714 -0.3395  0.9568
13341TIP3    H161438   0.145   0.811  16.282 -0.7563  1.6305 -1.1170
13341TIP3    H261439   0.280   0.813  16.351 -2.2422 -2.4843  2.2872
13342TIP3   OH261440   6.048   4.616   5.941 -0.0893  0.5974  0.3630
13342TIP3    H161441   6.137   4.584   5.926 -0.8196 -1.1913 -0.3606
13342TIP3    H261442   6.040   4.621   6.036  0.3845 -0.4425  0.4730
13343TIP3   OH261443   3.431   5.715  12.760  0.3231 -0.6652  0.1395
13343TIP3    H161444   3.437   5.674  12.847 -0.2203 -0.9825  0.0317
13343TIP3    H261445   3.516   5.758  12.748  0.9411 -1.8055  0.2348
13344TIP3   OH261446   3.636   6.106   2.542  0.3271 -1.0688  0.1690
13344TIP3    H161447   3.649   6.121   2.636  2.2546  0.2984 -0.2596
13344TIP3    H261448   3.619   6.193   2.506  2.6351 -1.0700 -1.1216
13345TIP3   OH261449   2.528   4.978  13.083 -0.5936  0.6138 -0.3982
13345TIP3    H161450   2.520   5.070  13.106  0.9602  0.9738 -1.1511
13345TIP3    H261451   2.484   4.970  12.998 -0.7107  0.6648 -0.3420
13346TIP3   OH261452   5.957   4.078  16.176  0.1512  0.1910 -0.0190
13346TIP3    H161453   5.969   4.129  16.095 -0.6264  0.5772  0.0980
13346TIP3    H261454   5.884   4.121  16.220 -1.9704 -2.2315 -0.9069
13347TIP3   OH261455   3.320   2.625  11.579 -0.0286  0.3121 -0.0967
13347TIP3    H161456   3.291   2.542  11.541  0.1634  0.3595 -0.3490
13347TIP3    H261457   3.393   2.652  11.524  0.2030  0.4218  0.2629
13348TIP3   OH261458   0.876   4.714   3.201  0.7379 -0.3758 -0.8718
13348TIP3    H161459   0.850   4.792   3.154  1.4692  0.7608  0.5072
13348TIP3    H261460   0.948   4.743   3.258  0.6871 -1.9256  0.0581
13349TIP3   OH261461   5.364   0.004  10.917 -0.3670 -0.2999 -0.1466
13349TIP3    H161462   5.322  -0.082  10.917 -0.0236 -0.4920  1.1132
13349TIP3    H261463   5.291   0.066  10.926 -0.4588 -0.6476  2.3521
13350TIP3   OH261464   0.936   5.898   1.186 -0.2946 -0.1387  0.1597
13350TIP3    H161465   0.872   5.876   1.119 -0.5086 -1.4531  0.7682
13350TIP3    H261466   0.936   5.823   1.246  0.0158  0.9062  1.5334
13351TIP3   OH261467   0.031   2.402  16.463 -0.3644  0.5924  0.7108
13351TIP3    H161468   0.120   2.389  16.495  0.4220 -0.5976 -1.6865
13351TIP3    H261469   0.034   2.482  16.412  0.0494 -0.6941 -1.4146
13352TIP3   OH261470   5.660   0.146  11.596  0.1825  0.3179  0.6951
13352TIP3    H161471   5.598   0.209  11.557  2.0792  1.9836  0.1915
13352TIP3    H261472   5.722   0.128  11.526  1.6087  0.5464  1.8560
13353TIP3   OH261473   2.864   2.354  15.760  0.6571 -0.0030 -0.0071
13353TIP3    H161474   2.899   2.266  15.772 -0.2959 -0.4489 -0.3972
13353TIP3    H261475   2.940   2.411  15.768  1.2486 -0.8413  0.4817
13354TIP3   OH261476   0.126   0.858   4.483  0.3088  0.1766  0.0002
13354TIP3    H161477   0.190   0.869   4.553  0.1995 -0.8035  0.2752
13354TIP3    H261478   0.158   0.913   4.412  1.1399  0.1528  0.3471
13355TIP3   OH261479   5.081   0.857   4.706 -0.1470  0.0391  0.0050
13355TIP3    H161480   5.007   0.889   4.653 -0.5579 -0.8067  0.0508
13355TIP3    H261481   5.119   0.936   4.744 -2.2661  0.3819  1.6288
13356TIP3   OH261482   3.366   0.501  14.441  0.1549  0.1359  0.4598
13356TIP3    H161483   3.386   0.414  14.475 -0.8233 -0.2586  0.0485
13356TIP3    H261484   3.448   0.530  14.400  0.4153 -0.6996  0.3704
13357TIP3   OH261485   0.501   2.470   1.065 -0.1110 -0.2915 -0.4395
13357TIP3    H161486   0.539   2.553   1.095 -1.0885  0.2204 -0.5659
13357TIP3    H261487   0.520   2.467   0.972  0.7096 -0.6516 -0.2662
13358TIP3   OH261488   2.767   2.644  14.025  0.0315 -0.5201  0.2443
13358TIP3    H161489   2.690   2.664  14.078 -0.4202 -2.1699  0.2569
13358TIP3    H261490   2.818   2.583  14.079  0.2884 -1.0730 -0.6038
13359TIP3   OH261491   6.775   5.802  14.426  0.4292  0.1244 -0.4717
13359TIP3    H161492   6.806   5.815  14.516  1.1925  1.2351 -0.8806
13359TIP3    H261493   6.704   5.866  14.416 -0.7470 -1.0821 -0.1707
13360TIP3   OH261494   0.923   2.851  13.041 -0.0076  0.4015 -0.2444
13360TIP3    H161495   0.860   2.922  13.027 -1.2545 -0.3481  1.2582
13360TIP3    H261496   0.881   2.794  13.105  0.9388 -1.7360 -1.4221
13361TIP3   OH261497   2.081   4.602   0.704 -0.1692  0.0827 -0.0652
13361TIP3    H161498   2.174   4.622   0.692 -0.3128  1.4913  0.8878
13361TIP3    H261499   2.054   4.658   0.777 -1.4917 -1.1855  0.4548
13362TIP3   OH261500   6.618   0.142   5.900 -0.2841  0.7532 -0.1075
13362TIP3    H161501   6.575   0.099   5.826 -0.2479  2.4718 -1.1621
13362TIP3    H261502   6.697   0.089   5.914 -0.2383  0.4447 -1.3549
13363TIP3   OH261503   2.720   2.660   1.129  0.7313  0.5090 -0.4938
13363TIP3    H161504   2.750   2.751   1.127 -1.0423  1.1271 -0.7404
13363TIP3    H261505   2.733   2.632   1.219  0.4289  1.3407 -0.1846
13364TIP3   OH261506   0.107   0.647   3.718 -0.4171  0.3346  0.0141
13364TIP3    H161507   0.182   0.630   3.662 -1.0749 -0.5903 -0.6319
13364TIP3    H261508   0.106   0.573   3.779 -0.3949  0.7079  0.4634
13365TIP3   OH261509   4.241   6.566  10.970 -0.1528  0.1466 -0.0782
13365TIP3    H161510   4.274   6.654  10.984 -2.5780  1.0803  0.2223
13365TIP3    H261511   4.190   6.572  10.889 -1.6277 -0.5430  0.7567
13366TIP3   OH261512   0.323   1.441  14.894  0.5776 -0.4065  0.6260
13366TIP3    H161513   0.358   1.529  14.901  1.9599 -0.9921  1.6999
13366TIP3    H261514   0.255   1.436  14.961 -0.3581  0.1989 -0.2637
13367TIP3   OH261515   6.782   2.573   5.080 -0.3821 -0.1669 -0.3261
13367TIP3    H161516   6.844   2.530   5.021 -0.1757 -0.6386  0.2203
13367TIP3    H261517   6.768   2.510   5.150 -1.7449 -0.1991 -0.6037
13368TIP3   OH261518   5.566   2.557  10.991 -0.0765  0.0496  0.2289
13368TIP3    H161519   5.615   2.574  10.910 -0.7004 -0.1250 -0.1962
13368TIP3    H261520   5.629   2.515  11.049  0.6171  0.9365  0.1416
13369TIP3   OH261521   4.006   5.104   0.670  0.2255 -0.1528  0.0956
13369TIP3    H161522   4.077   5.120   0.609  0.5836 -2.0528 -0.0396
13369TIP3    H261523   4.035   5.030   0.723 -1.2606 -0.4008  0.6353
13370TIP3   OH261524   0.543   2.759   2.108 -0.2574 -0.7225 -0.0521
13370TIP3    H161525   0.634   2.729   2.109 -0.0233 -0.0446  1.4846
13370TIP3    H261526   0.528   2.792   2.196 -1.4937  0.7187 -0.7592
13371TIP3   OH261527   0.756   4.454  11.946  0.3651 -0.2754  0.2821
13371TIP3    H161528   0.780   4.443  12.038  0.9930 -1.4436 -0.0024
13371TIP3    H261529   0.738   4.365  11.915 -1.6596  0.2794 -0.2628
13372TIP3   OH261530   4.123   2.385   0.012  0.5259  0.4916 -0.4999
13372TIP3    H161531   4.143   2.479   0.014 -0.2745  0.6676 -0.4379
13372TIP3    H261532   4.186   2.346   0.073  1.7238  0.8028 -1.4843
13373TIP3   OH261533   6.385   4.446   0.721  0.5963 -0.5397  0.3263
13373TIP3    H161534   6.361   4.372   0.777  1.2256 -2.3826 -1.6890
13373TIP3    H261535   6.474   4.469   0.748  0.9704 -1.5442  0.0193
13374TIP3   OH261536   0.314   1.452  15.249 -0.4655  0.2433 -0.2884
13374TIP3    H161537   0.288   1.419  15.335 -1.3994 -0.8295 -0.9502
13374TIP3    H261538   0.287   1.383  15.188  2.1894 -0.0553 -1.2552
13375TIP3   OH261539   0.477   1.257  13.458 -0.2598  0.5064 -0.2068
13375TIP3    H161540   0.506   1.346  13.477  1.1739 -0.5115  3.2472
13375TIP3    H261541   0.556   1.213  13.425  0.6764 -0.6556  3.1292
13376TIP3   OH261542   1.381   4.257   4.792  0.5551  0.2864  0.2354
13376TIP3    H161543   1.386   4.232   4.884  1.9122 -0.3395  0.0112
13376TIP3    H261544   1.402   4.351   4.792 -2.8785  1.2076  0.8858
13377TIP3   OH261545   2.313   4.475   5.704 -0.2272  0.3555 -0.3990
13377TIP3    H161546   2.380   4.407   5.707  0.8942  1.4341  0.0352
13377TIP3    H261547   2.257   4.450   5.631  0.3022 -0.8979 -0.3985
13378TIP3   OH261548   0.377   4.523  12.151  0.0105 -0.2897  0.0549
13378TIP3    H161549   0.433   4.577  12.096 -2.4278  0.9001 -1.4109
13378TIP3    H261550   0.398   4.550  12.241  0.6862  1.2185 -0.5203
13379TIP3   OH261551   5.349   5.952   2.245  0.0344 -0.1915 -0.2705
13379TIP3    H161552   5.258   5.924   2.249  0.1032 -0.3433  0.2793
13379TIP3    H261553   5.375   5.939   2.153 -0.0442 -1.5627 -0.1191
13380TIP3   OH261554   1.653   3.809   0.670 -0.5650 -0.7719  0.0271
13380TIP3    H161555   1.694   3.896   0.666 -1.3342 -0.4319 -0.5162
13380TIP3    H261556   1.584   3.818   0.735 -1.8651 -0.4387 -1.3502
13381TIP3   OH261557   5.830   1.651  14.749  0.2085 -0.4077 -0.1969
13381TIP3    H161558   5.764   1.716  14.727 -0.0918 -0.9064 -0.7870
13381TIP3    H261559   5.841   1.599  14.669  0.5248 -1.0108  0.2286
13382TIP3   OH261560   2.965   4.365  11.773 -0.0535 -0.9156  0.1526
13382TIP3    H161561   2.973   4.461  11.778  0.3292 -0.7613 -2.0613
13382TIP3    H261562   2.922   4.340  11.855  0.3410  1.0812  1.0346
13383TIP3   OH261563   1.709   6.780   0.872  0.0693  0.5247 -0.0189
13383TIP3    H161564   1.725   6.692   0.908  0.3276  0.8732  0.7254
13383TIP3    H261565   1.748   6.840   0.935 -2.6123  1.3400  1.0144
13384TIP3   OH261566   3.224   6.380  13.565 -0.6080  0.5373 -0.6256
13384TIP3    H161567   3.274   6.338  13.495 -1.1929 -2.7678  0.7898
13384TIP3    H261568   3.134   6.349  13.552 -0.7558 -0.0681  1.4512
13385TIP3   OH261569   0.211   1.259  12.807  0.3232 -0.3136 -0.8336
13385TIP3    H161570   0.150   1.186  12.818 -0.9896  0.7127 -1.0317
13385TIP3    H261571   0.294   1.226  12.839 -0.2325 -1.9087 -0.9680
13386TIP3   OH261572   3.206   0.437   0.036  0.0309 -0.2589 -0.2461
13386TIP3    H161573   3.245   0.518   0.004 -1.6305  0.7584  0.1830
13386TIP3    H261574   3.199   0.381  -0.041  1.4930 -0.1389 -0.4854
13387TIP3   OH261575   3.232   5.457  15.165 -0.5168 -0.1867 -0.3462
13387TIP3    H161576   3.174   5.530  15.187  0.1291  0.6166 -1.2295
13387TIP3    H261577   3.184   5.379  15.193 -1.8280  0.4807 -0.6739
13388TIP3   OH261578   4.094   3.927   2.891 -0.1231  0.6223 -0.3399
13388TIP3    H161579   4.123   3.917   2.982  3.1715  0.6824 -1.2326
13388TIP3    H261580   4.057   4.015   2.888 -0.7727  0.4205  1.0376
13389TIP3   OH261581   1.040   5.445  12.140 -0.2670 -0.1064 -0.5047
13389TIP3    H161582   1.045   5.487  12.054 -0.9468 -2.5844 -1.8445
13389TIP3    H261583   0.957   5.475  12.177 -1.0262 -0.6959 -1.6817
13390TIP3   OH261584   0.629   2.529  15.405  0.2673  0.6910 -0.2216
13390TIP3    H161585   0.559   2.584  15.440 -0.2698  0.0525 -0.2716
13390TIP3    H261586   0.660   2.479  15.481 -0.3396 -0.0921 -0.4664
13391TIP3   OH261587   2.131   6.075   3.642 -0.3426  0.4355  0.3712
13391TIP3    H161588   2.114   6.111   3.729 -0.5491 -0.2054  0.6043
13391TIP3    H261589   2.136   6.151   3.585  1.3363  0.9921  1.1831
13392TIP3   OH261590   1.673   1.036   3.175  0.3226 -0.2017  0.1436
13392TIP3    H161591   1.597   1.092   3.190  1.3053  0.8225  1.4768
13392TIP3    H261592   1.662   0.964   3.238 -0.1114 -0.6902 -0.4692
13393TIP3   OH261593   4.159   3.461  14.802  0.0770  0.7388  0.2000
13393TIP3    H161594   4.245   3.496  14.782 -0.1726  1.1108 -0.2456
13393TIP3    H261595   4.168   3.422  14.888  1.2616 -1.1602 -0.7261
13394TIP3   OH261596   0.845   5.933  14.049 -0.3862 -0.9950 -0.4205
13394TIP3    H161597   0.896   5.938  13.969  1.8266 -1.2465  0.8984
13394TIP3    H261598   0.834   5.839  14.065  2.2277 -1.1106  1.3005
13395TIP3   OH261599   0.900   1.148  12.565  0.5859 -0.2867 -0.2389
13395TIP3    H161600   0.956   1.225  12.558 -0.2450  0.2430 -1.5507
13395TIP3    H261601   0.878   1.126  12.475 -1.8943  0.0043  0.2008
13396TIP3   OH261602   4.947   0.661   4.843 -0.2635 -0.3120  0.6674
13396TIP3    H161603   5.018   0.712   4.804 -1.2643  1.1326  0.6686
13396TIP3    H261604   4.877   0.663   4.777 -0.8081 -0.5479  1.2306
13397TIP3   OH261605   0.748   4.792  16.397 -0.4810  0.3931 -0.0982
13397TIP3    H161606   0.814   4.788  16.328  1.7046  1.2854  1.8077
13397TIP3    H261607   0.714   4.881  16.392 -1.5861 -0.0662 -1.0809
13398TIP3   OH261608   0.534   4.509   1.877  0.3420 -0.2277 -0.0773
13398TIP3    H161609   0.443   4.487   1.857  0.0937  1.1561 -0.5900
13398TIP3    H261610   0.584   4.429   1.857 -0.7314 -0.9604  0.1010
13399TIP3   OH261611   1.366   5.188  15.337 -0.2109  0.1098  0.6446
13399TIP3    H161612   1.388   5.124  15.269  0.8576  1.5061 -0.3821
13399TIP3    H261613   1.412   5.157  15.414  1.9571  0.6567 -0.3628
13400TIP3   OH261614   1.824   1.496   2.519 -0.7354  0.2171 -0.2402
13400TIP3    H161615   1.795   1.545   2.596 -1.8398 -0.4686 -0.2085
13400TIP3    H261616   1.900   1.447   2.551 -0.8456  0.3629  0.2658
13401TIP3   OH261617   4.436   6.396   3.264 -0.5619 -0.0206  0.2753
13401TIP3    H161618   4.485   6.379   3.184  0.3255 -0.5901  0.9302
13401TIP3    H261619   4.469   6.480   3.295 -0.7634  0.1041  0.1547
13402TIP3   OH261620   5.139   3.039  12.505  0.5218  0.2465  0.0650
13402TIP3    H161621   5.186   3.119  12.529  0.1899  0.7716 -0.9389
13402TIP3    H261622   5.111   3.054  12.414  0.7702 -1.1609 -0.2725
13403TIP3   OH261623   1.742   2.304  12.094  0.3424 -0.4138 -0.3278
13403TIP3    H161624   1.766   2.358  12.169  0.9474 -3.3432  1.7795
13403TIP3    H261625   1.825   2.269  12.062 -0.2218 -2.8066  0.6462
13404TIP3   OH261626   3.528   1.936   1.770 -0.6166 -0.2357  0.1284
13404TIP3    H161627   3.622   1.954   1.766 -0.7136  0.5624  0.9496
13404TIP3    H261628   3.489   1.994   1.705 -0.8106  1.7876  1.9394
13405TIP3   OH261629   5.557   2.188  12.666  0.2817  0.2174  0.6220
13405TIP3    H161630   5.547   2.124  12.595  0.8994  0.4586  0.3061
13405TIP3    H261631   5.521   2.269  12.630  1.4244  0.5778  0.2199
13406TIP3   OH261632   3.595   4.352  16.254  0.2271  0.3694  0.3792
13406TIP3    H161633   3.637   4.398  16.327  0.9769  1.4053 -0.6657
13406TIP3    H261634   3.567   4.422  16.195 -2.1006 -0.3504  0.5514
13407TIP3   OH261635   1.413   2.596   0.102 -0.0243  0.2351  0.4134
13407TIP3    H161636   1.430   2.504   0.082  2.3126  0.7179 -0.0775
13407TIP3    H261637   1.460   2.612   0.184  0.7542  1.3068 -0.2231
13408TIP3   OH261638   5.072   1.662  14.817  0.2877 -0.3735  0.1653
13408TIP3    H161639   5.091   1.704  14.901 -0.2883 -0.2590  0.2426
13408TIP3    H261640   5.157   1.651  14.776  0.5954 -0.6526  0.8718
13409TIP3   OH261641   2.552   3.449   1.845  0.2754  0.1704 -0.1580
13409TIP3    H161642   2.488   3.420   1.910 -0.7843  0.3048 -1.1146
13409TIP3    H261643   2.612   3.505   1.894 -0.9811  0.9367  0.5489
13410TIP3   OH261644   2.053   2.865   2.992  0.6740  0.4622  0.0576
13410TIP3    H161645   1.987   2.798   2.973  0.4465  0.4417  0.8786
13410TIP3    H261646   2.076   2.851   3.084  0.3373  1.7381  0.3672
13411TIP3   OH261647   0.577   5.945   3.809 -0.2105  0.2721 -0.0578
13411TIP3    H161648   0.494   5.921   3.850 -0.4826  0.2281 -0.6288
13411TIP3    H261649   0.586   5.885   3.735 -0.4559  1.3040 -0.9580
13412TIP3   OH261650   0.024   4.062  15.655  0.2072 -0.1942 -0.5832
13412TIP3    H161651   0.085   4.110  15.710  0.1711  1.1779 -1.6866
13412TIP3    H261652  -0.060   4.066  15.702  0.4733 -0.2282 -0.1013
13413TIP3   OH261653   1.305   2.534  11.982 -0.3917 -0.4947 -0.0314
13413TIP3    H161654   1.362   2.501  12.051  0.6753 -1.0187 -1.1249
13413TIP3    H261655   1.266   2.456  11.943 -2.8089 -0.0998  1.4271
13414TIP3   OH261656   5.351   3.405  15.955  0.4322 -0.4784  0.4967
13414TIP3    H161657   5.384   3.316  15.939  0.6513 -0.4739  0.9217
13414TIP3    H261658   5.297   3.424  15.878  2.0443 -0.1908 -0.6140
13415TIP3   OH261659   1.223   1.117   1.201  0.3845  0.1351  0.2064
13415TIP3    H161660   1.295   1.058   1.226 -0.8190 -0.6901  1.9657
13415TIP3    H261661   1.151   1.093   1.260 -1.6074  0.4309 -1.9780
13416TIP3   OH261662   4.077   3.453   3.405 -0.1884  0.2747  0.3335
13416TIP3    H161663   4.103   3.489   3.320  0.0745 -0.3478  0.1453
13416TIP3    H261664   4.160   3.430   3.447 -0.3228  0.5121  0.7333
13417TIP3   OH261665   2.818   4.676  14.276 -0.3391 -0.0852 -0.2980
13417TIP3    H161666   2.809   4.661  14.370 -2.3697  1.5839 -0.1419
13417TIP3    H261667   2.776   4.600  14.235 -0.7012 -0.1551  0.1913
13418TIP3   OH261668   6.791   0.767  11.603 -0.7282  0.3890 -0.4205
13418TIP3    H161669   6.839   0.816  11.670 -0.4184  1.2061 -1.2264
13418TIP3    H261670   6.713   0.734  11.648  0.9559 -1.7187  1.1875
13419TIP3   OH261671   2.897   6.701  12.105  0.1058  0.4844  0.3379
13419TIP3    H161672   2.891   6.626  12.046 -1.5424  0.5376  0.3789
13419TIP3    H261673   2.857   6.773  12.056 -0.0719  0.8583  1.0165
13420TIP3   OH261674   2.310   0.949  16.954  0.6228 -0.2150  0.4331
13420TIP3    H161675   2.360   1.026  16.928 -1.9814  1.3270 -0.2891
13420TIP3    H261676   2.342   0.879  16.897  1.2212  0.9507 -0.6923
13421TIP3   OH261677   1.868   4.479   2.990  0.2852  0.6525  0.2084
13421TIP3    H161678   1.820   4.483   3.072 -0.9111 -2.4587 -0.1762
13421TIP3    H261679   1.800   4.481   2.922  1.0280  0.5384 -0.5632
13422TIP3   OH261680   0.247   4.663  14.101  0.2122  0.0056 -0.3376
13422TIP3    H161681   0.276   4.579  14.136 -1.1867 -0.3872 -0.0612
13422TIP3    H261682   0.203   4.641  14.018  0.0825  0.4911 -0.4019
13423TIP3   OH261683   3.114   0.646  12.116 -0.5577 -0.5721  0.4565
13423TIP3    H161684   3.096   0.714  12.051 -0.8778  0.4478  1.5674
13423TIP3    H261685   3.123   0.694  12.199 -2.6154 -1.9986  1.6069
13424TIP3   OH261686   1.684   4.154   4.131 -0.2226  0.1231 -0.2139
13424TIP3    H161687   1.607   4.112   4.170 -0.2827  0.4011 -0.0283
13424TIP3    H261688   1.699   4.232   4.185 -1.3576  1.4784 -1.7743
13425TIP3   OH261689   3.991   6.669   2.914  0.2811 -0.3778 -0.0820
13425TIP3    H161690   3.960   6.578   2.924  0.4196 -0.2891  1.3984
13425TIP3    H261691   3.914   6.722   2.935  1.0315 -0.1621  2.3993
13426TIP3   OH261692   1.332   4.378   3.452 -0.1673  0.1412 -0.3444
13426TIP3    H161693   1.368   4.317   3.516 -2.9833  0.3212  1.5579
13426TIP3    H261694   1.249   4.340   3.426 -0.7314  1.8448 -1.1902
13427TIP3   OH261695   5.517   4.641   4.260 -0.4292  0.5193  0.1095
13427TIP3    H161696   5.590   4.672   4.313 -0.5369  0.1117  0.5004
13427TIP3    H261697   5.450   4.709   4.268  0.6537  1.9320 -1.9206
13428TIP3   OH261698   5.935   6.686  13.909 -0.0822 -0.7888 -0.4673
13428TIP3    H161699   5.928   6.685  13.813  0.6333 -1.6866 -0.5186
13428TIP3    H261700   5.969   6.773  13.929 -1.2647 -0.1930 -0.9423
13429TIP3   OH261701   4.252   2.211   6.211 -0.3034  0.2006 -0.5654
13429TIP3    H161702   4.225   2.294   6.251 -1.8397  1.1192 -3.2533
13429TIP3    H261703   4.348   2.213   6.213 -0.3218  0.9717  1.3855
13430TIP3   OH261704   1.987   0.464   0.788 -0.5586  0.3746  0.3090
13430TIP3    H161705   2.080   0.479   0.807 -0.9536  1.3972  1.5700
13430TIP3    H261706   1.955   0.548   0.755 -1.3497  0.4566  1.2402
13431TIP3   OH261707   4.917   6.035  13.033  0.2136 -0.0634  0.2090
13431TIP3    H161708   4.880   6.055  12.947 -1.9526  1.8852  1.4710
13431TIP3    H261709   4.926   5.939  13.034  1.2567 -0.0696 -2.4700
13432TIP3   OH261710   1.428   6.350   4.378 -0.1514 -0.1338 -0.4849
13432TIP3    H161711   1.523   6.340   4.366 -0.1541 -2.5393  0.9755
13432TIP3    H261712   1.390   6.306   4.302 -0.0826 -1.2752  0.1243
13433TIP3   OH261713   2.139   1.532  16.897 -0.2048  0.2926 -0.2584
13433TIP3    H161714   2.144   1.578  16.981  1.5545 -0.5366  0.1411
13433TIP3    H261715   2.103   1.596  16.836 -0.1502  1.3713  0.8148
13434TIP3   OH261716   6.387   2.145   1.450 -0.5514 -0.2464 -0.2876
13434TIP3    H161717   6.410   2.057   1.420  0.8874  0.3937 -1.1525
13434TIP3    H261718   6.360   2.192   1.371 -2.8584 -0.3241  0.3914
13435TIP3   OH261719   0.536   6.345   3.882  0.6725 -0.2021  0.0844
13435TIP3    H161720   0.518   6.429   3.926 -0.8773 -0.0870 -0.7176
13435TIP3    H261721   0.480   6.282   3.927 -0.9917 -0.0727 -1.6854
13436TIP3   OH261722   1.319   1.648  15.370  0.1830 -0.3052  0.4890
13436TIP3    H161723   1.230   1.616  15.384  0.2587 -0.2679  1.0554
13436TIP3    H261724   1.352   1.593  15.299 -0.2092 -0.4742  0.4312
13437TIP3   OH261725   0.962   6.092  14.633  0.3808  0.5382  0.4087
13437TIP3    H161726   1.038   6.105  14.576 -0.6531 -3.2770 -2.2386
13437TIP3    H261727   0.952   5.997  14.639 -3.9502  0.8262  0.9437
13438TIP3   OH261728   2.425   1.282  16.401  0.0966  0.1986 -0.5361
13438TIP3    H161729   2.412   1.355  16.461  2.0469  0.3571 -0.2508
13438TIP3    H261730   2.339   1.241  16.394 -0.1950  0.1421  2.4110
13439TIP3   OH261731   3.640   3.003  15.857  0.2545  0.0299  0.8565
13439TIP3    H161732   3.645   3.062  15.782  1.0200  1.2790  1.8596
13439TIP3    H261733   3.597   2.925  15.822  1.6676  0.0690 -1.2107
13440TIP3   OH261734   3.399   5.327  11.573  0.1010  0.4488 -0.6120
13440TIP3    H161735   3.351   5.246  11.556 -0.7805  0.9267 -0.4044
13440TIP3    H261736   3.401   5.373  11.489  2.5312 -0.7634 -1.3227
13441TIP3   OH261737   2.563   0.106  13.877  0.9499 -0.3975 -0.1597
13441TIP3    H161738   2.582   0.196  13.853 -0.3859 -0.2319 -0.6781
13441TIP3    H261739   2.476   0.110  13.917  0.1871 -1.6602 -1.5993
13442TIP3   OH261740   3.770   5.223   3.541  0.0982  0.2139 -0.5091
13442TIP3    H161741   3.679   5.215   3.569  0.0107  0.0799 -0.8210
13442TIP3    H261742   3.820   5.228   3.623 -0.2641  1.2658 -0.3388
13443TIP3   OH261743   0.567   5.011  15.789  0.6868 -0.1139  0.0108
13443TIP3    H161744   0.501   4.997  15.858  0.9564 -0.0101  0.2899
13443TIP3    H261745   0.608   4.925  15.778  1.0516  0.0077  0.4003
13444TIP3   OH261746   1.104   5.724   5.285  0.1965 -0.4589 -0.0551
13444TIP3    H161747   1.194   5.757   5.293  0.8497 -1.9340 -0.9558
13444TIP3    H261748   1.099   5.689   5.196 -1.0369 -1.0484  0.2294
13445TIP3   OH261749   4.582   2.655  12.702  0.1010  0.5191  0.3906
13445TIP3    H161750   4.569   2.597  12.777 -2.5674 -0.2728 -0.5516
13445TIP3    H261751   4.510   2.718  12.708  0.1777  0.8008 -1.1849
13446TIP3   OH261752   3.561   2.482   4.240 -0.3345 -0.0470 -0.5459
13446TIP3    H161753   3.630   2.548   4.234  0.2609 -0.6682 -0.5595
13446TIP3    H261754   3.485   2.531   4.274  0.0403  0.6827 -0.7337
13447TIP3   OH261755   5.598   0.784  12.968  0.0824 -0.3420  0.0555
13447TIP3    H161756   5.533   0.727  13.009 -0.2411  0.1850  0.2814
13447TIP3    H261757   5.679   0.734  12.972  0.1719 -0.1155  1.8091
13448TIP3   OH261758   0.494   4.777  11.420  0.0912 -0.0693 -0.1569
13448TIP3    H161759   0.432   4.761  11.349  0.3732 -2.1350 -0.0019
13448TIP3    H261760   0.490   4.871  11.435 -2.8183 -0.0896 -0.3212
13449TIP3   OH261761   1.711   3.400  16.873  0.1514  0.0466  0.0181
13449TIP3    H161762   1.680   3.489  16.892 -0.3949 -0.5187  2.0871
13449TIP3    H261763   1.804   3.411  16.852 -0.4539  1.3392 -2.3115
13450TIP3   OH261764   5.635   3.942  12.822 -0.3439 -0.5053  0.2182
13450TIP3    H161765   5.563   3.901  12.774  0.4863 -1.8536  0.0837
13450TIP3    H261766   5.596   3.968  12.906 -1.0985 -0.7883 -0.0397
13451TIP3   OH261767   2.408   6.146   4.407 -0.4633  0.4775  0.0515
13451TIP3    H161768   2.502   6.152   4.427 -0.3401  1.8273 -0.7775
13451TIP3    H261769   2.384   6.056   4.428  1.3988 -0.3921 -1.2993
13452TIP3   OH261770   3.048   3.838  11.526  0.2036  0.3488  0.1176
13452TIP3    H161771   3.092   3.756  11.502 -0.5648  0.3728 -1.5505
13452TIP3    H261772   2.955   3.816  11.524  0.0511  0.7853  1.6488
13453TIP3   OH261773   1.099   0.932   6.009  0.8174  1.0303 -0.1960
13453TIP3    H161774   1.192   0.935   6.033  0.8733  1.4101 -0.4492
13453TIP3    H261775   1.058   0.998   6.066  0.0719 -1.5664  2.5388
13454TIP3   OH261776   2.884   6.528  13.924 -0.7548 -0.1587 -0.0584
13454TIP3    H161777   2.937   6.552  14.000  0.5244 -2.0958 -0.2670
13454TIP3    H261778   2.870   6.610  13.877  2.8889  0.3579 -0.4941
13455TIP3   OH261779   1.624   3.034   4.359  0.5526 -0.0488  1.0941
13455TIP3    H161780   1.606   3.105   4.422  0.6843 -0.0993  1.1899
13455TIP3    H261781   1.557   3.045   4.291  2.0688  1.7317 -0.2181
13456TIP3   OH261782   2.373   3.086  14.589 -0.0648  0.2038  0.3756
13456TIP3    H161783   2.278   3.082  14.585 -0.1075 -1.0636  2.0584
13456TIP3    H261784   2.401   2.995  14.596  1.3413  0.4932 -0.9630
13457TIP3   OH261785   1.165   5.550  10.967  0.1621 -0.2303 -0.4254
13457TIP3    H161786   1.216   5.547  10.887  1.1550  2.8375  0.0016
13457TIP3    H261787   1.228   5.532  11.037  0.2997  1.5134 -0.0557
13458TIP3   OH261788   4.844   1.465  12.159 -0.3595 -0.1708 -0.4406
13458TIP3    H161789   4.809   1.526  12.225  0.5381  0.8702 -0.8959
13458TIP3    H261790   4.776   1.399  12.150 -0.7682 -0.0098  1.0946
13459TIP3   OH261791   3.048   1.202  15.818 -0.0359  0.0079  0.6616
13459TIP3    H161792   3.111   1.236  15.755  0.2114  0.2830  1.0515
13459TIP3    H261793   3.096   1.138  15.869 -0.3559 -0.5398  0.2872
13460TIP3   OH261794   1.619   1.572   0.478  0.2574 -0.1071 -0.2929
13460TIP3    H161795   1.687   1.504   0.480 -0.2980 -0.6670 -0.0707
13460TIP3    H261796   1.597   1.586   0.570 -1.0926 -1.1420 -0.4118
13461TIP3   OH261797   0.213   2.245  12.945 -0.0214  0.4529 -0.3589
13461TIP3    H161798   0.294   2.253  12.894 -0.0978 -1.1322 -0.7843
13461TIP3    H261799   0.145   2.280  12.888  0.4549  2.8125  0.4126
13462TIP3   OH261800   3.103   3.132   3.992 -0.1023 -0.0803  0.7420
13462TIP3    H161801   3.094   3.039   4.012  0.0475  0.0878  1.6613
13462TIP3    H261802   3.049   3.176   4.058  0.3862  0.5137  0.7583
13463TIP3   OH261803   4.823   6.545  10.323  0.3297 -0.2476  0.3919
13463TIP3    H161804   4.874   6.609  10.372  0.4625  0.3151 -0.4571
13463TIP3    H261805   4.781   6.596  10.254 -1.7988 -0.5922  1.3479
13464TIP3   OH261806   2.603   0.121   2.872  0.5824  0.3964  0.2422
13464TIP3    H161807   2.600   0.094   2.780  1.0771 -0.3328  0.4339
13464TIP3    H261808   2.513   0.144   2.893  0.8866  3.5287 -1.2723
13465TIP3   OH261809   4.830   6.702   3.744  0.4836  0.3567  0.1053
13465TIP3    H161810   4.738   6.727   3.752  0.6499  1.2738 -0.6356
13465TIP3    H261811   4.829   6.608   3.727 -0.2975  0.3005  0.4666
13466TIP3   OH261812   3.837   4.824  15.736 -0.0921 -0.0813 -0.0248
13466TIP3    H161813   3.896   4.853  15.805 -0.3638  0.9023 -0.1994
13466TIP3    H261814   3.894   4.786  15.669  0.3842  1.1803 -0.3560
13467TIP3   OH261815   5.419   4.377   5.641  0.2553  0.3693 -0.1077
13467TIP3    H161816   5.487   4.385   5.708  0.5660  2.4344 -0.5980
13467TIP3    H261817   5.337   4.388   5.689  0.4749  1.8655 -0.0351
13468TIP3   OH261818   1.177   1.259  15.381  0.1100  0.0938 -0.0575
13468TIP3    H161819   1.139   1.209  15.453  0.9213 -0.6093 -0.1046
13468TIP3    H261820   1.112   1.253  15.310 -0.7933  0.9759  0.6585
13469TIP3   OH261821   1.357   4.990  14.466 -0.1375 -0.3976 -0.1166
13469TIP3    H161822   1.318   5.036  14.541 -2.4644 -0.0306 -1.4724
13469TIP3    H261823   1.316   4.903  14.467  1.6851 -1.3040  0.4264
13470TIP3   OH261824   4.061   4.110   2.286  0.0119  0.0768  0.1878
13470TIP3    H161825   4.088   4.058   2.362  1.6160 -0.7979 -0.9192
13470TIP3    H261826   4.071   4.200   2.314 -0.7392 -0.2128  1.4458
13471TIP3   OH261827   5.782   1.908  10.560  0.0012 -0.1982 -0.6642
13471TIP3    H161828   5.778   1.823  10.603 -0.9894 -0.2851 -0.9091
13471TIP3    H261829   5.704   1.954  10.591  0.7325  0.7818 -0.2219
13472TIP3   OH261830   2.695   6.139   3.889  0.1612 -0.1751  0.0195
13472TIP3    H161831   2.654   6.055   3.871  0.8579 -0.3511 -0.7783
13472TIP3    H261832   2.788   6.120   3.901 -0.0006  0.1642  2.2642
13473TIP3   OH261833   5.886   0.517   2.749  0.4135  0.3107 -0.6205
13473TIP3    H161834   5.852   0.513   2.839  0.2199  0.1092 -0.7014
13473TIP3    H261835   5.854   0.601   2.716 -1.0857 -0.4190 -1.1176
13474TIP3   OH261836   2.391   6.535   1.378  0.5720 -0.0595 -0.3436
13474TIP3    H161837   2.337   6.482   1.435 -0.3834  0.7591 -0.4575
13474TIP3    H261838   2.444   6.588   1.437  1.3755 -0.9557 -0.2314
13475TIP3   OH261839   0.029   1.622   2.593 -0.0406  0.4950  0.0936
13475TIP3    H161840   0.044   1.644   2.501  0.0087 -2.5355 -0.7056
13475TIP3    H261841  -0.019   1.698   2.628  1.1048  2.3107 -2.0217
13476TIP3   OH261842   1.931   1.556   4.219 -0.4141  0.4774  1.1162
13476TIP3    H161843   1.916   1.592   4.306 -1.2036  1.2741  0.6620
13476TIP3    H261844   1.965   1.630   4.168  0.5436 -0.1068  0.8683
13477TIP3   OH261845   1.957   2.140  12.851 -0.2929  0.5083  0.3657
13477TIP3    H161846   1.913   2.206  12.797 -0.0657  0.9672  0.7379
13477TIP3    H261847   1.947   2.058  12.801 -1.8199  0.5343  0.5648
13478TIP3   OH261848   5.724   2.736   3.197 -0.3306  0.2071  0.0785
13478TIP3    H161849   5.658   2.687   3.245 -0.1677 -0.0791  0.0099
13478TIP3    H261850   5.807   2.695   3.221 -0.1635  0.6422  0.2601
13479TIP3   OH261851   6.344   4.684   2.782 -0.3973  0.4889  0.0909
13479TIP3    H161852   6.320   4.776   2.777  0.7814  0.7402 -2.6406
13479TIP3    H261853   6.440   4.684   2.783 -0.3368 -0.6908 -1.6577
13480TIP3   OH261854   6.551   4.905   4.728  0.2647  0.0052  0.0746
13480TIP3    H161855   6.469   4.905   4.677  0.5474  0.6326 -0.3928
13480TIP3    H261856   6.532   4.962   4.803  0.2069 -0.0226  0.0817
13481TIP3   OH261857   5.118   6.220  13.980 -0.0769 -0.2901 -0.5855
13481TIP3    H161858   5.140   6.152  14.044  1.4275 -0.4207 -1.2137
13481TIP3    H261859   5.042   6.265  14.019  1.7490  0.7162  2.1142
13482TIP3   OH261860   5.293   0.173  13.692  0.1781  0.4100  0.3602
13482TIP3    H161861   5.247   0.254  13.712 -0.8063 -0.5428  2.1347
13482TIP3    H261862   5.226   0.115  13.656  0.4310 -0.2613  0.9446
13483TIP3   OH261863   3.208   1.864   1.651  0.9605  0.2401  0.4068
13483TIP3    H161864   3.292   1.892   1.615  0.8822  1.0288  0.8113
13483TIP3    H261865   3.225   1.777   1.688  1.4661  0.1750  0.0241
13484TIP3   OH261866   3.350   6.662  14.237  0.4889 -0.0125 -0.0088
13484TIP3    H161867   3.327   6.612  14.158  0.0131 -0.2764  0.2889
13484TIP3    H261868   3.392   6.741  14.204  0.9899 -0.4675 -0.5059
13485TIP3   OH261869   1.073   5.545   5.497  0.5902 -0.1799 -0.7399
13485TIP3    H161870   1.158   5.525   5.457  0.2796 -2.0620 -0.5582
13485TIP3    H261871   1.043   5.623   5.451  1.9266 -0.1069 -1.5629
13486TIP3   OH261872   5.647   1.068   6.134  0.2567  0.0123  0.0371
13486TIP3    H161873   5.729   1.022   6.153  0.3143 -0.5693 -1.4730
13486TIP3    H261874   5.592   1.051   6.210  1.6353  0.7266  1.2626
13487TIP3   OH261875   0.141   1.295   3.440  0.2744  0.4231  0.0990
13487TIP3    H161876   0.214   1.277   3.381 -0.4235 -0.2056 -0.5816
13487TIP3    H261877   0.070   1.239   3.409 -0.1215  0.1110  1.5130
13488TIP3   OH261878   4.393   2.165  16.061  0.3733  0.2091  0.5766
13488TIP3    H161879   4.323   2.115  16.102 -0.4352  0.7653 -0.0986
13488TIP3    H261880   4.456   2.180  16.132 -0.8054  0.8339  1.5340
13489TIP3   OH261881   0.267   2.884   2.556 -0.4966  0.4163  0.2356
13489TIP3    H161882   0.314   2.827   2.496 -2.4965 -1.7962  0.6485
13489TIP3    H261883   0.298   2.858   2.643 -0.5483  0.8036  0.3721
13490TIP3   OH261884   3.766   2.762   3.220  0.4406 -0.1784  0.5280
13490TIP3    H161885   3.691   2.762   3.279  1.1317 -0.0142  1.4159
13490TIP3    H261886   3.827   2.699   3.257  1.1916  0.4485  0.3920
13491TIP3   OH261887   6.350   6.398   0.116 -0.0869 -0.2699 -0.2331
13491TIP3    H161888   6.328   6.429   0.028  1.3116  0.9784 -0.1761
13491TIP3    H261889   6.319   6.467   0.174  0.2609 -0.4377  0.1501
13492TIP3   OH261890   1.960   1.683  14.849  0.5340  0.0950  0.5109
13492TIP3    H161891   1.898   1.657  14.917 -0.6383 -2.7647 -1.4512
13492TIP3    H261892   2.046   1.670  14.889 -0.1253 -1.3652  1.5422
13493TIP3   OH261893   4.455   5.002   2.273 -0.2091 -0.0767  0.5710
13493TIP3    H161894   4.550   4.999   2.281 -0.0559  0.0988 -0.9029
13493TIP3    H261895   4.432   5.092   2.299 -0.0472 -0.2892  1.4785
13494TIP3   OH261896   3.473   4.593   1.794 -0.0131 -0.0412  0.5031
13494TIP3    H161897   3.399   4.636   1.838 -0.2095 -0.4321  0.5685
13494TIP3    H261898   3.447   4.501   1.790  0.9075 -0.3540  1.4205
13495TIP3   OH261899   0.500   5.564   5.484 -0.0223 -0.3032 -0.4725
13495TIP3    H161900   0.521   5.541   5.394  0.5961  1.9460 -0.9695
13495TIP3    H261901   0.405   5.578   5.484  0.1258  0.8922 -1.1297
13496TIP3   OH261902   2.616   2.392  15.409  0.2216  0.5799 -0.2788
13496TIP3    H161903   2.705   2.372  15.436  1.2936  0.1875 -3.5536
13496TIP3    H261904   2.615   2.487  15.397 -0.3408  0.7930  1.2432
13497TIP3   OH261905   3.592   5.341   5.390 -0.5213  0.2197 -0.7895
13497TIP3    H161906   3.532   5.395   5.441  0.3803 -0.1149  0.7094
13497TIP3    H261907   3.678   5.382   5.404  0.2151 -1.6807  0.5651
13498TIP3   OH261908   3.894   5.700  16.483  0.4518  0.5996 -0.1256
13498TIP3    H161909   3.977   5.701  16.435  0.0413 -0.3636 -0.8978
13498TIP3    H261910   3.844   5.629  16.442  0.2396 -0.5544  1.9882
13499TIP3   OH261911   0.926   2.280   2.548 -0.0330  0.1394 -0.2531
13499TIP3    H161912   0.940   2.368   2.515  1.2450 -0.3652 -1.1300
13499TIP3    H261913   1.014   2.243   2.558 -0.5389 -1.0786 -0.0553
13500TIP3   OH261914   5.951   2.909  12.933  1.1891 -0.0999  0.3967
13500TIP3    H161915   5.938   2.815  12.920 -0.4560  0.2947 -1.3396
13500TIP3    H261916   5.883   2.950  12.880  2.1054  2.0957  0.7976
13501TIP3   OH261917   1.565   3.600   5.726 -0.6085 -0.2466 -0.1821
13501TIP3    H161918   1.566   3.508   5.700  1.3330 -0.9338  2.0458
13501TIP3    H261919   1.509   3.603   5.803 -0.0614  0.3016  0.2004
13502TIP3   OH261920   3.159   1.574  15.027 -0.3463 -0.1638  0.1385
13502TIP3    H161921   3.167   1.641  15.095 -0.8723 -2.2353  2.3641
13502TIP3    H261922   3.247   1.536  15.021 -0.1185  0.4905 -0.9193
13503TIP3   OH261923   2.722   0.974   3.168  0.5144 -0.2162 -0.3432
13503TIP3    H161924   2.719   1.045   3.104  2.7511  0.9890  0.7395
13503TIP3    H261925   2.792   0.916   3.138  1.0041 -0.0974  0.5073
13504TIP3   OH261926   2.282   4.995  12.740  0.0030 -0.4148  0.0917
13504TIP3    H161927   2.239   5.063  12.688  0.4235  0.5343  0.9314
13504TIP3    H261928   2.335   5.044  12.803  0.9535 -1.5378  0.2044
13505TIP3   OH261929   3.631   6.200  14.657  0.3411  0.1894 -0.0149
13505TIP3    H161930   3.705   6.253  14.626  1.3984 -0.5106  1.2132
13505TIP3    H261931   3.620   6.225  14.748 -0.1123 -0.6405  0.1644
13506TIP3   OH261932   6.791   2.030  13.811 -0.1777  0.1065  0.1767
13506TIP3    H161933   6.749   1.949  13.839 -0.8552  0.6566  0.7840
13506TIP3    H261934   6.873   2.002  13.770 -0.4658 -0.8870  0.2633
13507TIP3   OH261935   0.253   6.716  15.276 -0.2764  0.8242  0.3421
13507TIP3    H161936   0.284   6.802  15.247  1.0941 -0.6454 -3.0564
13507TIP3    H261937   0.313   6.654  15.235 -2.0826 -1.8459  1.4695
13508TIP3   OH261938   1.539   0.970   4.290  0.3836  0.2679  0.0360
13508TIP3    H161939   1.517   1.059   4.317  1.0645  0.0391  1.4467
13508TIP3    H261940   1.456   0.923   4.296  0.5068  0.2239  1.8625
13509TIP3   OH261941   4.859   3.835   0.770 -0.2991  0.2160 -0.5860
13509TIP3    H161942   4.825   3.753   0.734  2.2609 -1.2198  0.0246
13509TIP3    H261943   4.879   3.816   0.861 -1.2725  2.0986  0.0865
13510TIP3   OH261944   1.789   1.970   2.838  0.2706 -0.4493  0.3956
13510TIP3    H161945   1.805   1.887   2.884 -0.1681 -1.0783 -0.5534
13510TIP3    H261946   1.724   2.014   2.892 -0.3365 -1.2321  0.3246
13511TIP3   OH261947   6.402   2.022  13.884  0.7225 -0.2480 -0.3392
13511TIP3    H161948   6.339   2.041  13.953  2.8492  0.1731  1.5815
13511TIP3    H261949   6.438   2.107  13.860  1.5700 -0.6108 -0.3894
13512TIP3   OH261950   1.644   6.050  14.747  0.0788 -0.7724 -0.4088
13512TIP3    H161951   1.681   6.125  14.794  0.0116 -0.6375 -0.5694
13512TIP3    H261952   1.626   5.986  14.815  2.2907 -1.5763 -0.4835
13513TIP3   OH261953   3.816   2.162  14.805 -0.2021 -0.9337  0.1961
13513TIP3    H161954   3.742   2.123  14.760  0.1871 -0.6741 -0.7014
13513TIP3    H261955   3.783   2.246  14.837 -0.0969 -0.4577 -0.8951
13514TIP3   OH261956   2.488   1.516  15.187  0.3087 -0.2173 -0.6466
13514TIP3    H161957   2.557   1.563  15.140 -0.0917  0.4321 -0.5861
13514TIP3    H261958   2.516   1.519  15.279  0.2512 -0.0466 -0.6348
13515TIP3   OH261959   2.338   2.611  11.044  0.0327 -0.1384  0.1007
13515TIP3    H161960   2.392   2.551  10.993  1.2347  0.0134  1.1526
13515TIP3    H261961   2.300   2.670  10.979  0.3025 -0.8990 -0.7628
13516TIP3   OH261962   1.409   3.246  12.728  0.2945  0.0213  0.0584
13516TIP3    H161963   1.409   3.311  12.798 -0.2383 -1.0827  1.1371
13516TIP3    H261964   1.428   3.163  12.773  0.0950 -0.6963 -1.1322
13517TIP3   OH261965   2.141   2.580   2.778  0.2258 -0.5061 -0.2293
13517TIP3    H161966   2.181   2.528   2.847 -0.0869  0.1250  0.4466
13517TIP3    H261967   2.129   2.519   2.705  1.1764 -1.0206  0.0271
13518TIP3   OH261968   6.462   0.313  11.097 -0.0162  0.3798  0.3511
13518TIP3    H161969   6.395   0.244  11.089 -0.1904  0.1027  3.0069
13518TIP3    H261970   6.418   0.393  11.069 -0.1009 -0.3774 -1.9022
13519TIP3   OH261971   0.428   1.307   3.837 -0.2133 -0.5751  0.3663
13519TIP3    H161972   0.348   1.351   3.868  0.4730  2.0188 -1.2248
13519TIP3    H261973   0.499   1.358   3.875  0.7906 -2.9201  1.8492
13520TIP3   OH261974   5.397   0.400  14.694  0.2073 -0.2368  0.5383
13520TIP3    H161975   5.374   0.323  14.641  1.4794  0.4665 -1.1377
13520TIP3    H261976   5.489   0.387  14.716  0.9532  1.5751 -1.2664
13521TIP3   OH261977   1.427   0.786  15.733 -0.0414 -0.9906 -0.0722
13521TIP3    H161978   1.477   0.705  15.748  0.6199 -0.7001 -0.6198
13521TIP3    H261979   1.353   0.759  15.678  1.3127 -0.9214 -2.0513
13522TIP3   OH261980   2.640   4.499  12.706 -0.4523  0.3249 -0.2427
13522TIP3    H161981   2.650   4.541  12.621 -1.7303  0.0281 -0.5499
13522TIP3    H261982   2.723   4.516  12.751  0.3033  0.3447 -1.6007
13523TIP3   OH261983   2.532   1.048  12.077  0.0703  0.0108 -0.0612
13523TIP3    H161984   2.534   1.110  12.150  0.6176  1.7933 -1.5057
13523TIP3    H261985   2.616   1.003  12.080 -0.0398 -0.1515  0.5816
13524TIP3   OH261986   4.919   0.578  12.315  0.3853 -0.2056  0.0377
13524TIP3    H161987   4.990   0.515  12.314 -1.2617 -2.1917  1.3223
13524TIP3    H261988   4.865   0.555  12.239  0.6230  0.7458 -0.4379
13525TIP3   OH261989   6.277   6.533  16.664 -0.1468 -1.0488  0.7507
13525TIP3    H161990   6.212   6.603  16.679  1.2276  0.2745  0.8291
13525TIP3    H261991   6.350   6.578  16.622  0.4945 -2.6199  0.1511
13526TIP3   OH261992   5.665   4.486   3.473 -0.0574  0.3283 -0.2410
13526TIP3    H161993   5.654   4.432   3.551  1.9789  0.2737  0.0561
13526TIP3    H261994   5.744   4.453   3.432 -0.7076  0.8311 -1.9731
13527TIP3   OH261995   3.485   3.070   2.831 -0.0068 -0.0635  0.0096
13527TIP3    H161996   3.557   3.025   2.787 -0.2468 -0.3399 -0.1125
13527TIP3    H261997   3.406   3.026   2.797 -0.2227  0.1297  0.2573
13528TIP3   OH261998   5.488   3.320  11.939 -0.4038 -0.1342 -0.2899
13528TIP3    H161999   5.457   3.253  11.879 -1.0259  1.0152 -1.3057
13528TIP3    H262000   5.418   3.385  11.941  0.8975  1.3652 -0.7744
13529TIP3   OH262001   1.269   5.450   3.284  0.3122 -0.2239  0.1705
13529TIP3    H162002   1.227   5.370   3.315 -0.1692  0.6691  1.9965
13529TIP3    H262003   1.331   5.473   3.354  2.0519 -0.1680 -1.3326
13530TIP3   OH262004   3.327   1.917   4.696  0.4098 -0.1707 -0.2097
13530TIP3    H162005   3.331   2.011   4.677 -0.4573 -0.1177 -0.1868
13530TIP3    H262006   3.256   1.909   4.759  0.5485 -0.8325 -0.1354
13531TIP3   OH262007   2.510   3.419  14.932  0.0684  0.0402 -0.2472
13531TIP3    H162008   2.574   3.481  14.967  0.0265 -0.3254  0.4816
13531TIP3    H262009   2.459   3.471  14.869  1.0345  0.3502 -0.8017
13532TIP3   OH262010   5.482   0.142  11.866 -0.0491 -0.3758  0.5390
13532TIP3    H162011   5.462   0.062  11.913  0.1640 -1.2386 -0.7740
13532TIP3    H262012   5.550   0.116  11.803 -0.7262  0.5639 -0.6325
13533TIP3   OH262013   2.425   4.433   1.304 -0.5974  0.3222 -0.0230
13533TIP3    H162014   2.436   4.405   1.395 -2.8241  2.7808  1.1470
13533TIP3    H262015   2.486   4.506   1.294  0.2775 -0.4993 -0.8301
13534TIP3   OH262016   5.950   6.764   3.183  0.3789 -0.1047 -0.0567
13534TIP3    H162017   5.972   6.684   3.230 -1.4561 -0.5858  0.0574
13534TIP3    H262018   6.021   6.825   3.204  2.2907 -1.9296 -0.8263
13535TIP3   OH262019   0.026   0.973  16.601  0.2787 -0.1872  0.2997
13535TIP3    H162020   0.012   0.899  16.542  0.2962  0.5658 -0.6543
13535TIP3    H262021   0.038   1.048  16.544  1.6277  0.3406  1.2327
13536TIP3   OH262022   0.062   3.766   3.126  0.1138  0.1962  0.2747
13536TIP3    H162023   0.038   3.674   3.117  0.4135  0.2275 -1.1486
13536TIP3    H262024   0.037   3.790   3.215  0.1388 -1.2898  0.6982
13537TIP3   OH262025   1.818   4.124  16.631 -0.0587  0.2513 -0.1482
13537TIP3    H162026   1.887   4.095  16.572  0.5806 -0.2902  0.8314
13537TIP3    H262027   1.767   4.186  16.580 -0.7666 -1.7206 -1.9303
13538TIP3   OH262028   2.789   4.513  11.100  0.1513  0.0991 -0.0470
13538TIP3    H162029   2.803   4.537  11.191 -0.2178 -0.4030  0.1454
13538TIP3    H262030   2.701   4.545  11.079  0.7977  1.5591 -0.6889
13539TIP3   OH262031   6.213   5.101   5.905  0.0857 -0.3712  0.6993
13539TIP3    H162032   6.234   5.149   5.985  0.2168  0.9687 -0.1096
13539TIP3    H262033   6.171   5.166   5.848  0.4082 -1.1757 -0.4977
13540TIP3   OH262034   5.640   1.495   4.650 -0.3696 -0.0600  0.0901
13540TIP3    H162035   5.734   1.498   4.671 -0.5891 -0.0315  1.1565
13540TIP3    H262036   5.625   1.572   4.595  0.1206  0.3191  0.4664
13541TIP3   OH262037   1.704   0.449   1.575  0.2441 -0.6651  0.5911
13541TIP3    H162038   1.714   0.381   1.508  0.2106  0.6743 -0.8402
13541TIP3    H262039   1.721   0.531   1.528  0.4578  0.3171  2.2962
13542TIP3   OH262040   4.362   1.227  12.306  0.8459  0.1206  0.0921
13542TIP3    H162041   4.279   1.265  12.334 -0.8188 -1.9685 -1.6585
13542TIP3    H262042   4.383   1.271  12.224  1.0342  0.0767  0.1163
13543TIP3   OH262043   3.399   4.715   5.264 -0.9387  0.5464 -0.9228
13543TIP3    H162044   3.380   4.632   5.308 -0.9739  0.5344 -0.9608
13543TIP3    H262045   3.457   4.692   5.191  0.2638  0.7428 -0.0558
13544TIP3   OH262046   1.582   3.275  13.689  0.2678 -0.2761 -0.0997
13544TIP3    H162047   1.613   3.336  13.756  0.0111 -1.1479  0.8387
13544TIP3    H262048   1.486   3.281  13.694  0.2273 -1.1555  0.3976
13545TIP3   OH262049   4.313   6.773  16.981  0.5116  0.2042 -0.4011
13545TIP3    H162050   4.355   6.781  16.896  0.0062  1.8578 -0.5304
13545TIP3    H262051   4.219   6.769  16.960  0.4289 -0.1950  0.0413
13546TIP3   OH262052   4.882   1.786  15.410 -0.0904  0.2755  0.0760
13546TIP3    H162053   4.836   1.832  15.480 -1.1378 -0.3320 -0.2038
13546TIP3    H262054   4.878   1.845  15.335  1.2658  1.0462  0.5692
13547TIP3   OH262055   5.685   4.763  11.244 -0.2650  0.1291  0.0040
13547TIP3    H162056   5.701   4.852  11.274 -1.9865  0.6030 -0.3553
13547TIP3    H262057   5.765   4.737  11.199  0.0205  1.7408 -0.4567
13548TIP3   OH262058   0.674   1.699   5.353  0.5969  0.7998  0.1653
13548TIP3    H162059   0.681   1.630   5.420  0.1998  2.9685  2.5907
13548TIP3    H262060   0.764   1.729   5.341  0.6122  0.7039  0.0350
13549TIP3   OH262061   3.144   1.716  14.476 -0.3331 -0.0819 -0.5230
13549TIP3    H162062   3.098   1.783  14.527 -0.3285 -0.2272 -0.3302
13549TIP3    H262063   3.196   1.766  14.413  0.2297  0.1212  0.0888
13550TIP3   OH262064   0.736   5.716   0.389  0.0011  0.0670 -0.1761
13550TIP3    H162065   0.702   5.800   0.420 -0.7910  0.2400 -1.4613
13550TIP3    H262066   0.659   5.669   0.357  0.2340 -1.6558  1.5373
13551TIP3   OH262067   4.454   3.843  15.761 -0.1811 -0.3879 -0.4313
13551TIP3    H162068   4.405   3.839  15.679  0.0563 -2.9495 -0.5053
13551TIP3    H262069   4.543   3.818  15.737 -0.2791 -1.9365  0.7061
13552TIP3   OH262070   2.940   4.601   5.130  0.2234  0.3447  0.6427
13552TIP3    H162071   2.933   4.528   5.192 -0.9726 -0.9039 -0.8644
13552TIP3    H262072   2.860   4.595   5.078  0.8963  1.7386 -0.6119
13553TIP3   OH262073   3.399   6.199  11.186  0.4760  0.3017 -0.3860
13553TIP3    H162074   3.318   6.147  11.191  1.1091 -0.7020 -0.3585
13553TIP3    H262075   3.386   6.267  11.252  0.4163 -0.9817  0.9944
13554TIP3   OH262076   0.740   2.569   4.607 -0.3338  0.9782 -0.1278
13554TIP3    H162077   0.659   2.519   4.622 -0.4412  1.5996  1.5542
13554TIP3    H262078   0.809   2.503   4.612 -0.6458  0.6220 -0.4066
13555TIP3   OH262079   1.413   4.154  15.134 -0.3232 -0.1206 -0.0311
13555TIP3    H162080   1.499   4.197  15.141 -0.5398  0.6158 -1.5920
13555TIP3    H262081   1.424   4.072  15.182  1.1810  0.0651  0.0032
13556TIP3   OH262082   1.699   2.714   4.848  0.2366 -0.1857 -0.1994
13556TIP3    H162083   1.743   2.796   4.827 -1.9308  1.0468 -0.2508
13556TIP3    H262084   1.639   2.736   4.919  0.8408 -2.1724  1.0148
13557TIP3   OH262085   6.346   4.880   0.537 -0.3367 -1.0644 -0.0972
13557TIP3    H162086   6.434   4.851   0.563 -0.3065 -1.7096 -0.9004
13557TIP3    H262087   6.311   4.807   0.486 -1.2614 -0.7184  0.0336
13558TIP3   OH262088   4.279   4.017  12.965  0.0087  0.2880  0.0373
13558TIP3    H162089   4.211   4.085  12.965 -0.0125  0.3085  1.8084
13558TIP3    H262090   4.232   3.937  12.990  0.2067 -0.2133 -1.1316
13559TIP3   OH262091   1.924   6.051  16.655 -0.0460  0.4563 -0.2174
13559TIP3    H162092   1.905   6.088  16.568 -0.0398  1.1604  0.0803
13559TIP3    H262093   1.892   6.116  16.717 -2.0422 -0.9734  0.3648
13560TIP3   OH262094   1.711   2.607  12.145 -0.0524  0.4618 -0.2181
13560TIP3    H162095   1.713   2.678  12.209 -1.3541  0.9649 -0.6883
13560TIP3    H262096   1.800   2.602  12.111  0.4817  0.6555  1.1146
13561TIP3   OH262097   5.310   0.411  12.909 -0.4927 -0.7925 -0.0594
13561TIP3    H162098   5.311   0.323  12.870 -0.7264 -0.0918 -1.7148
13561TIP3    H262099   5.399   0.423  12.941 -0.8438 -2.2109  1.6304
13562TIP3   OH262100   3.628   5.943  12.940  0.3667 -0.5225 -0.7306
13562TIP3    H162101   3.681   5.994  13.001 -0.7452  1.8875 -1.6421
13562TIP3    H262102   3.672   5.953  12.856  0.5672 -1.7902 -0.7954
13563TIP3   OH262103   0.121   6.156   1.486 -0.1147 -0.3816  0.7673
13563TIP3    H162104   0.208   6.195   1.475  0.3617 -1.1660  1.6872
13563TIP3    H262105   0.099   6.170   1.578 -2.0247  1.9370  0.0829
13564TIP3   OH262106   1.739   4.212   1.886  0.5944 -0.0929  0.0339
13564TIP3    H162107   1.767   4.238   1.974  0.7252  2.4952 -0.7011
13564TIP3    H262108   1.697   4.290   1.850  0.4950 -1.1025 -2.2010
13565TIP3   OH262109   4.216   3.613  14.330  0.4336 -0.4474 -0.0514
13565TIP3    H162110   4.266   3.591  14.251  1.6094 -1.0573  0.8315
13565TIP3    H262111   4.185   3.528  14.363  1.3883 -0.3845  1.0533
13566TIP3   OH262112   6.104   5.351  15.005  0.0817  0.1804 -0.0719
13566TIP3    H162113   6.065   5.309  15.082  1.5593  0.8981  1.1254
13566TIP3    H262114   6.148   5.280  14.959  1.7796  0.1609  1.4421
13567TIP3   OH262115   4.141   2.917  16.765  0.0402 -0.0974 -0.1471
13567TIP3    H162116   4.104   2.846  16.714 -0.0931  0.1342 -0.3772
13567TIP3    H262117   4.065   2.964  16.799  0.1246  0.0481 -0.1577
13568TIP3   OH262118   5.434   2.166   0.200  0.3150 -0.3346  0.2047
13568TIP3    H162119   5.513   2.176   0.147  0.0674 -0.9691 -0.2946
13568TIP3    H262120   5.383   2.098   0.155 -0.5763  0.1559  0.4472
13569TIP3   OH262121   0.587   6.229   2.498  0.4642 -0.4120 -0.6639
13569TIP3    H162122   0.668   6.280   2.500  0.8996 -1.0999  1.1415
13569TIP3    H262123   0.521   6.291   2.466  1.0483  1.2234  1.1355
13570TIP3   OH262124   1.857   4.094  14.251 -0.5244 -0.2025  0.5927
13570TIP3    H162125   1.878   4.036  14.324  0.2993  0.0715  0.5769
13570TIP3    H262126   1.761   4.096  14.250 -0.6152 -2.2672  0.0418
13571TIP3   OH262127   6.431   0.291   3.701  0.1227 -0.1801 -0.2282
13571TIP3    H162128   6.480   0.324   3.776 -2.4603  1.5575  0.8481
13571TIP3    H262129   6.467   0.338   3.626 -0.6414  2.0349  0.7081
13572TIP3   OH262130   6.577   3.815  15.084 -0.2492 -0.5190  0.4761
13572TIP3    H162131   6.492   3.849  15.058  0.1571  2.0556  2.1494
13572TIP3    H262132   6.640   3.872  15.040  0.5809 -1.0780  0.9008
13573TIP3   OH262133   4.067   5.828  11.132 -0.4565  0.0749 -0.2855
13573TIP3    H162134   4.152   5.872  11.130 -0.6594  0.5139  0.5267
13573TIP3    H262135   4.081   5.748  11.081  0.4704  0.1002 -0.0918
13574TIP3   OH262136   2.019   0.393  12.402  0.0777 -0.8843 -0.0437
13574TIP3    H162137   2.111   0.380  12.423 -0.0788 -1.5118  0.2727
13574TIP3    H262138   2.012   0.373  12.308  0.2697 -0.7858 -0.0788
13575TIP3   OH262139   3.216   4.067  12.483 -0.6988 -0.3881 -0.1772
13575TIP3    H162140   3.230   4.150  12.528 -1.6566 -0.1072 -0.3735
13575TIP3    H262141   3.279   4.007  12.523 -1.9377 -0.3214  2.0402
13576TIP3   OH262142   2.862   1.095   2.856  0.3389  0.2522 -0.3850
13576TIP3    H162143   2.948   1.065   2.826  0.8427 -0.7352  1.9066
13576TIP3    H262144   2.860   1.188   2.832  2.1711  0.3662 -0.2312
13577TIP3   OH262145   3.488   4.914  15.935  0.8999  0.1235 -0.1128
13577TIP3    H162146   3.537   4.994  15.915  1.2344  0.2442  1.0991
13577TIP3    H262147   3.414   4.943  15.987  1.4583 -0.4058  1.0316
13578TIP3   OH262148   2.025   0.107   5.998  0.2886 -0.3190  0.1843
13578TIP3    H162149   2.115   0.090   6.025 -0.3193 -1.0873  1.8475
13578TIP3    H262150   2.013   0.201   6.016  1.3591  0.3047 -2.0311
13579TIP3   OH262151   2.192   3.595   5.190 -0.1062 -0.1705  0.4585
13579TIP3    H162152   2.141   3.538   5.133  0.2997  0.4789 -0.5844
13579TIP3    H262153   2.128   3.632   5.251 -0.5376 -0.9062  0.4655
13580TIP3   OH262154   0.434   1.202  11.893 -0.1834  0.1556 -0.2565
13580TIP3    H162155   0.527   1.179  11.892  0.2929  1.6580  2.4799
13580TIP3    H262156   0.416   1.231  11.982 -3.2257  0.2789 -0.7798
13581TIP3   OH262157   0.132   4.954   5.521 -0.2598  0.2672  0.1649
13581TIP3    H162158   0.146   4.861   5.540  0.5106  0.1805 -0.7803
13581TIP3    H262159   0.057   4.978   5.576 -0.6287 -0.9689  0.2353
13582TIP3   OH262160   2.505   4.796   3.138  0.0594  0.1362 -1.0124
13582TIP3    H162161   2.598   4.813   3.148  0.2737 -1.0844 -0.8369
13582TIP3    H262162   2.481   4.841   3.056  1.3814 -1.7105 -2.4939
13583TIP3   OH262163   1.988   1.043   1.269 -0.1440 -0.2335 -1.3186
13583TIP3    H162164   2.073   1.015   1.236  1.1016 -1.0098  2.0662
13583TIP3    H262165   1.965   0.977   1.334 -0.5903  2.7061  1.7918
13584TIP3   OH262166   2.432   6.264  12.620  0.7025 -0.2949 -0.3356
13584TIP3    H162167   2.502   6.267  12.684 -1.3704  0.2724  2.0569
13584TIP3    H262168   2.451   6.338  12.561  1.0875  1.1115  1.4596
13585TIP3   OH262169   6.537   1.676  15.031 -0.0180 -0.2577  0.4940
13585TIP3    H162170   6.444   1.659  15.045 -0.0744  0.0178  0.4753
13585TIP3    H262171   6.541   1.770  15.014  0.0117 -0.6014 -1.5958
13586TIP3   OH262172   3.633   0.699   5.645  0.2089 -0.2437  0.6304
13586TIP3    H162173   3.656   0.692   5.737  0.1182  0.7871  0.7476
13586TIP3    H262174   3.654   0.790   5.622  2.2044 -1.0132 -0.9095
13587TIP3   OH262175   4.879   3.951   3.304 -0.6905  0.1667 -0.4632
13587TIP3    H162176   4.815   4.000   3.356 -0.0865 -0.0198  0.4943
13587TIP3    H262177   4.956   4.009   3.300 -0.6000  0.0235 -0.8427
13588TIP3   OH262178   1.162   6.759   3.359 -0.2251  0.0696  0.0993
13588TIP3    H162179   1.118   6.822   3.415  0.7425 -0.5225  1.5993
13588TIP3    H262180   1.111   6.679   3.367  0.7986 -0.4924  1.5012
13589TIP3   OH262181   0.674   1.886  14.404 -0.3707 -0.1323  0.0115
13589TIP3    H162182   0.682   1.800  14.445 -2.8332 -1.4284 -1.8963
13589TIP3    H262183   0.590   1.883  14.358  0.7532  2.2356 -2.5641
13590TIP3   OH262184   5.125   4.903   4.629 -0.1300  0.1621 -0.0122
13590TIP3    H162185   5.148   4.964   4.559 -0.1124 -1.2718 -1.3242
13590TIP3    H262186   5.174   4.934   4.705 -0.8669  2.3091 -0.3388
13591TIP3   OH262187   0.423   3.470   0.997 -0.1969 -0.1484 -0.1373
13591TIP3    H162188   0.416   3.399   0.933 -0.9025 -0.8323  0.6662
13591TIP3    H262189   0.357   3.449   1.063  0.9560  0.1636  1.1645
13592TIP3   OH262190   3.228   0.727  13.406  0.3945  0.2372 -0.0456
13592TIP3    H162191   3.298   0.721  13.341  0.6196 -0.8425  0.2810
13592TIP3    H262192   3.267   0.773  13.480  0.2104  1.2471 -0.5546
13593TIP3   OH262193   0.827   1.039   0.831  0.4652  0.9025 -0.0242
13593TIP3    H162194   0.795   0.987   0.758 -1.3220 -0.5966  1.7040
13593TIP3    H262195   0.750   1.086   0.863  0.2110 -1.3719  3.1410
13594TIP3   OH262196   5.758   3.144  16.151 -0.0891 -0.2089 -0.2626
13594TIP3    H162197   5.664   3.155  16.139 -0.1240  1.1017  1.0389
13594TIP3    H262198   5.767   3.098  16.234  0.4332  0.5774  0.1297
13595TIP3   OH262199   5.034   5.212  14.811 -0.1982 -0.2905  0.3181
13595TIP3    H162200   5.055   5.190  14.721  1.0377  1.7114  0.0688
13595TIP3    H262201   4.969   5.282  14.804  0.2097  0.1612  0.9752
13596TIP3   OH262202   4.823   4.944  11.413  0.5004  0.0425  0.6936
13596TIP3    H162203   4.772   4.983  11.342  0.0209 -1.1647  0.3501
13596TIP3    H262204   4.883   5.014  11.440 -0.7613  1.2308  0.5604
13597TIP3   OH262205   3.112   0.306   0.735 -0.5525  0.3468  1.0988
13597TIP3    H162206   3.196   0.259   0.738 -0.4332  0.1466 -2.0371
13597TIP3    H262207   3.047   0.238   0.715 -1.3181  0.6870  2.3205
13598TIP3   OH262208   3.193   4.883   6.406  0.4816 -0.7513  0.4259
13598TIP3    H162209   3.203   4.888   6.501  2.7260 -1.0388  0.2642
13598TIP3    H262210   3.132   4.954   6.384 -0.2308 -0.8255  2.0834
13599TIP3   OH262211   4.890   5.942   2.379 -0.4972 -0.1957  0.2417
13599TIP3    H162212   4.801   5.942   2.415 -1.2888 -2.4642 -1.4373
13599TIP3    H262213   4.879   5.914   2.288  1.5975  3.1672 -1.2500
13600TIP3   OH262214   4.480   4.258   1.295  0.2240 -0.4407  0.3625
13600TIP3    H162215   4.526   4.273   1.212  0.3357  0.5991  0.5960
13600TIP3    H262216   4.537   4.198   1.343  0.1902 -0.9947 -0.2892
13601TIP3   OH262217   1.094   0.341  14.015  0.2506 -0.7751  0.2855
13601TIP3    H162218   1.053   0.256  13.996 -0.8235 -0.2254  0.0559
13601TIP3    H262219   1.026   0.405  13.993  0.9802  0.1361  0.6516
13602TIP3   OH262220   6.786   1.651  10.987 -0.1965 -0.7101  0.2031
13602TIP3    H162221   6.819   1.605  11.065  2.6198 -2.1007 -1.6366
13602TIP3    H262222   6.820   1.599  10.913 -2.3161  0.8264 -1.9743
13603TIP3   OH262223   3.344   3.841  16.487 -0.2106 -0.2480 -0.0929
13603TIP3    H162224   3.312   3.841  16.397 -0.3346 -1.2071 -0.0669
13603TIP3    H262225   3.283   3.783  16.533 -0.4703  0.6615  0.7331
13604TIP3   OH262226   4.380   2.821   0.167  0.1684 -0.1674 -0.2204
13604TIP3    H162227   4.473   2.832   0.150  0.4156 -1.2890  0.3037
13604TIP3    H262228   4.342   2.907   0.148  1.5984  0.9299  1.5707
13605TIP3   OH262229   1.311   2.381  14.560 -0.9088  0.7057  0.2543
13605TIP3    H162230   1.327   2.373  14.654 -0.0619  1.3632  0.1815
13605TIP3    H262231   1.264   2.301  14.536  0.6263 -0.4214  0.8734
13606TIP3   OH262232   1.205   5.319  13.469 -0.1034 -0.4599 -0.2674
13606TIP3    H162233   1.160   5.366  13.539 -0.1742 -0.6269 -0.2015
13606TIP3    H262234   1.150   5.244  13.451  0.2123 -0.7386 -0.0939
13607TIP3   OH262235   2.884   4.698   0.593 -0.2808  0.5399  0.2651
13607TIP3    H162236   2.824   4.628   0.619 -1.6803  2.4662  2.8160
13607TIP3    H262237   2.968   4.655   0.582 -1.0337 -1.5586  1.9294
13608TIP3   OH262238   1.298   6.157  11.171 -0.2301  0.0118  1.0570
13608TIP3    H162239   1.387   6.189  11.155 -0.2361  0.0481  1.0953
13608TIP3    H262240   1.259   6.151  11.084 -1.0816  2.5850  1.1718
13609TIP3   OH262241   1.985   5.828   3.627 -0.1532  0.4385  0.3840
13609TIP3    H162242   2.014   5.919   3.623  1.9308 -0.2020 -0.8351
13609TIP3    H262243   1.991   5.805   3.719 -0.2745  1.4008  0.6445
13610TIP3   OH262244   4.528   5.624   4.586 -0.0696  0.2172 -0.1867
13610TIP3    H162245   4.539   5.532   4.563 -2.2141 -0.3489  0.8469
13610TIP3    H262246   4.616   5.661   4.578  0.5575 -1.5148 -2.2171
13611TIP3   OH262247   6.362   5.100   4.484  0.3125  0.2686 -0.4084
13611TIP3    H162248   6.277   5.132   4.454  1.5615  2.7361 -1.6088
13611TIP3    H262249   6.353   5.097   4.579 -0.5158  2.6669 -0.3210
13612TIP3   OH262250   0.203   4.658  16.310  0.7300  0.1211 -0.0111
13612TIP3    H162251   0.134   4.685  16.371  1.1114 -1.0380  0.9681
13612TIP3    H262252   0.281   4.649  16.364  1.1790 -0.5068 -0.7365
13613TIP3   OH262253   1.638   5.279   5.290  0.0276 -0.1414  0.1726
13613TIP3    H162254   1.544   5.295   5.304  0.2588 -0.6855  2.8958
13613TIP3    H262255   1.641   5.195   5.243 -0.8363  1.4428 -3.0199
13614TIP3   OH262256   1.000   6.668   0.144  0.4484  0.6648 -0.7846
13614TIP3    H162257   1.010   6.753   0.102  0.8509  0.2563 -1.5497
13614TIP3    H262258   0.952   6.686   0.225  0.7600  1.6488 -0.8031
13615TIP3   OH262259   6.675   1.380   0.073 -0.3459  0.0869 -0.1446
13615TIP3    H162260   6.706   1.462   0.034 -0.5907 -0.4733 -1.5921
13615TIP3    H262261   6.583   1.375   0.048 -0.0988 -1.0694 -0.9013
13616TIP3   OH262262   5.734   4.226   0.544 -0.7679 -0.8865 -0.6714
13616TIP3    H162263   5.797   4.293   0.519  0.1887 -1.7130 -0.5367
13616TIP3    H262264   5.774   4.183   0.620 -1.7394 -1.0821 -0.2606
13617TIP3   OH262265   4.266   3.247   5.298 -0.4188  0.1259 -0.1220
13617TIP3    H162266   4.337   3.211   5.245 -1.6501  1.3293 -2.7550
13617TIP3    H262267   4.263   3.340   5.274 -1.5120  0.5672  1.5623
13618TIP3   OH262268   0.518   5.655   1.835 -0.2349 -0.0654 -0.1323
13618TIP3    H162269   0.442   5.645   1.779  0.7410  0.5970 -1.6416
13618TIP3    H262270   0.528   5.749   1.846 -1.0113 -0.1855  2.0689
13619TIP3   OH262271   6.687   2.283  16.902  0.4635 -0.3023  0.1520
13619TIP3    H162272   6.618   2.328  16.951 -2.5500 -2.3648 -1.8497
13619TIP3    H262273   6.720   2.347  16.840 -0.0467  0.5577  0.7585
13620TIP3   OH262274   4.408   5.400   0.101  0.0409 -0.5118 -0.1012
13620TIP3    H162275   4.336   5.430   0.045  0.1142 -0.2085 -0.0331
13620TIP3    H262276   4.473   5.470   0.097 -0.1674 -0.2543  0.7555
13621TIP3   OH262277   6.027   0.974  17.093 -0.3241 -0.2032  0.7836
13621TIP3    H162278   5.971   0.928  17.031 -1.2039  1.8093  0.0173
13621TIP3    H262279   6.110   0.925  17.092 -0.7924 -1.0258 -0.9192
13622TIP3   OH262280   5.995   4.549  11.764 -0.4826 -0.1916  0.0891
13622TIP3    H162281   5.971   4.515  11.677  0.5296  1.9481 -1.0942
13622TIP3    H262282   5.956   4.636  11.767 -0.8598 -0.3883  1.9987
13623TIP3   OH262283   3.284   1.642   4.999  0.5114 -0.1630  0.3309
13623TIP3    H162284   3.363   1.649   4.946  1.3323 -1.1082  1.3769
13623TIP3    H262285   3.304   1.691   5.079  1.0405 -2.4554  1.6826
13624TIP3   OH262286   1.859   5.897  14.659 -0.6708  0.3637 -0.2414
13624TIP3    H162287   1.814   5.981  14.670  0.2202  0.6415  1.6621
13624TIP3    H262288   1.907   5.884  14.741 -0.6717 -1.9534 -0.5378
13625TIP3   OH262289   1.890   1.111   0.638  0.0576  0.1604 -1.0212
13625TIP3    H162290   1.890   1.183   0.575 -0.3581  1.2881  0.2095
13625TIP3    H262291   1.799   1.103   0.666  0.6323  2.0568  1.9291
13626TIP3   OH262292   2.757   4.697   5.458 -0.5564 -0.4446  0.3367
13626TIP3    H162293   2.797   4.689   5.545  2.7254 -1.0812 -1.0759
13626TIP3    H262294   2.762   4.790   5.437  3.4068 -0.7724 -1.0128
13627TIP3   OH262295   4.202   4.406  12.120 -0.0836  0.2809 -0.0696
13627TIP3    H162296   4.231   4.495  12.100 -1.7766  0.5401 -1.7289
13627TIP3    H262297   4.180   4.407  12.213  0.6061  1.3857  0.0890
13628TIP3   OH262298   1.704   5.207  15.455 -0.0069  0.1800 -0.1249
13628TIP3    H162299   1.643   5.240  15.522 -0.8105 -1.8572  0.2507
13628TIP3    H262300   1.647   5.161  15.392  1.0148 -0.6922 -0.4437
13629TIP3   OH262301   1.473   5.223  11.128  0.3320 -0.5171  0.5756
13629TIP3    H162302   1.397   5.192  11.178  0.2188 -0.0356  0.7054
13629TIP3    H262303   1.452   5.314  11.107  2.0283  0.5273  2.9320
13630TIP3   OH262304   6.450   0.297  14.773  0.3888  0.3053 -0.0310
13630TIP3    H162305   6.504   0.228  14.734 -1.7111 -2.3974  1.4527
13630TIP3    H262306   6.423   0.352  14.700  2.1752 -0.4142 -1.2893
13631TIP3   OH262307   5.056   5.481  15.988 -1.0988 -0.5913 -0.0240
13631TIP3    H162308   5.057   5.513  16.078 -0.8803  0.4545 -0.3904
13631TIP3    H262309   5.018   5.393  15.995 -3.5290  0.4382  0.7753
13632TIP3   OH262310   1.388   6.021   0.187  0.3344 -0.0328  0.0724
13632TIP3    H162311   1.319   5.985   0.132 -1.0153  0.6308  1.2762
13632TIP3    H262312   1.396   5.959   0.259  0.7364  0.0848  0.1311
13633TIP3   OH262313   3.965   4.552  16.512  0.4291 -0.2078 -0.0083
13633TIP3    H162314   4.026   4.479  16.500  0.9240  0.2492 -0.3099
13633TIP3    H262315   3.974   4.576  16.605 -0.1784 -0.9120  0.2401
13634TIP3   OH262316   4.825   3.492  16.935 -0.0609  0.4081  0.2782
13634TIP3    H162317   4.920   3.491  16.927 -0.1547 -0.8660 -1.0084
13634TIP3    H262318   4.793   3.499  16.845 -1.1893 -0.6485  0.5664
13635TIP3   OH262319   1.755   2.349   0.885  0.2300  0.0706 -0.0130
13635TIP3    H162320   1.694   2.311   0.822  2.2228 -1.7985 -0.9410
13635TIP3    H262321   1.767   2.440   0.855 -2.0856  0.5258  0.2600
13636TIP3   OH262322   6.477   4.302   4.577  0.3746  0.3524 -0.6169
13636TIP3    H162323   6.436   4.387   4.564  0.9289  0.7384  0.0927
13636TIP3    H262324   6.500   4.272   4.488 -1.2169  0.2150 -1.0133
13637TIP3   OH262325   6.032   2.683  15.865 -0.3705  0.4008  0.5624
13637TIP3    H162326   5.986   2.663  15.947 -3.1541  0.0659 -0.9488
13637TIP3    H262327   5.976   2.748  15.821  0.6257  0.0120 -1.4034
13638TIP3   OH262328   2.647   4.674  14.516 -0.1181 -0.2169 -0.2332
13638TIP3    H162329   2.593   4.630  14.582 -0.1704  1.1664  0.6903
13638TIP3    H262330   2.583   4.721  14.461  0.0763  1.0634  0.5923
13639TIP3   OH262331   0.683   1.501  11.907 -0.8077 -0.2784  0.2733
13639TIP3    H162332   0.655   1.559  11.836 -0.6268  0.0649  0.4774
13639TIP3    H262333   0.776   1.487  11.891 -0.9094 -0.7348  0.0725
13640TIP3   OH262334   1.809   5.405   0.192 -0.5535  0.1064  0.2448
13640TIP3    H162335   1.734   5.373   0.141 -0.9556 -0.1030  0.9629
13640TIP3    H262336   1.816   5.344   0.265  1.3264 -0.8469 -0.6524
13641TIP3   OH262337   0.639   2.279   2.582 -0.3491 -0.3815  0.5548
13641TIP3    H162338   0.652   2.363   2.539 -1.8870 -0.2309  0.3344
13641TIP3    H262339   0.726   2.238   2.582  0.1981  0.7319 -0.3146
13642TIP3   OH262340   4.521   2.521  15.287  0.2298 -0.3793 -0.0030
13642TIP3    H162341   4.544   2.455  15.351 -1.2909 -1.0873 -0.1482
13642TIP3    H262342   4.508   2.601  15.338 -1.4141 -1.0340  0.6806
13643TIP3   OH262343   3.993   0.561   2.882  0.0420  0.7690 -0.7900
13643TIP3    H162344   4.054   0.528   2.817 -1.1860 -1.9902 -0.7027
13643TIP3    H262345   3.908   0.563   2.838 -0.9156 -1.6408  0.6922
13644TIP3   OH262346   1.039   5.865   2.604  0.3781 -0.6449  0.1000
13644TIP3    H162347   1.087   5.836   2.526 -0.7303  0.0300 -0.8628
13644TIP3    H262348   1.001   5.949   2.579 -1.9323 -1.4733  0.5309
13645TIP3   OH262349   3.476   2.476  12.336 -0.7445  0.3500 -0.2625
13645TIP3    H162350   3.529   2.556  12.330 -1.4619  0.9172  0.6206
13645TIP3    H262351   3.533   2.407  12.303  0.0523  1.1549 -0.6197
13646TIP3   OH262352   3.283   6.272  14.950  0.2533  0.3770  0.0853
13646TIP3    H162353   3.293   6.353  14.901  0.0727  0.4115  0.1019
13646TIP3    H262354   3.189   6.253  14.945  0.0339  0.9987  1.3862
13647TIP3   OH262355   0.335   6.774   1.620  0.1866  0.1732 -0.0309
13647TIP3    H162356   0.260   6.745   1.568  0.6103  0.4729 -0.8274
13647TIP3    H262357   0.371   6.693   1.657 -1.2690  0.1392  1.4192
13648TIP3   OH262358   2.623   3.162   1.440  0.1805  0.5724 -0.2700
13648TIP3    H162359   2.618   3.071   1.468  1.6374 -0.1565 -2.1466
13648TIP3    H262360   2.595   3.213   1.516 -0.1753 -1.4086  0.9776
13649TIP3   OH262361   1.567   2.539  15.215 -0.0260  0.1186 -0.1664
13649TIP3    H162362   1.570   2.538  15.120  0.4291 -1.3873 -0.1637
13649TIP3    H262363   1.539   2.628  15.238 -0.2387  0.4637 -1.6929
13650TIP3   OH262364   6.055   0.375   4.282  0.2884  0.1363  0.5258
13650TIP3    H162365   6.016   0.460   4.262  3.2563  2.2445  2.8269
13650TIP3    H262366   6.069   0.377   4.377  1.5238 -2.4760  0.4913
13651TIP3   OH262367   1.172   3.817   3.367 -0.0446 -0.3543  0.1531
13651TIP3    H162368   1.216   3.843   3.448 -0.3366  0.4736  0.0547
13651TIP3    H262369   1.085   3.856   3.374  0.5341  1.3821 -1.4069
13652TIP3   OH262370   2.297   1.856  11.973 -0.1724  0.1614 -0.6736
13652TIP3    H162371   2.289   1.855  12.068 -2.9871  1.1525 -0.8048
13652TIP3    H262372   2.280   1.766  11.946 -0.2772  0.0569 -0.2583
13653TIP3   OH262373   1.177   4.946   2.830 -0.0296 -0.4148 -0.7594
13653TIP3    H162374   1.262   4.909   2.808  0.5694 -0.9014  2.0156
13653TIP3    H262375   1.136   4.881   2.887  1.1015  2.7553  4.4335
13654TIP3   OH262376   2.805   6.055  14.593 -0.5904 -0.2043  0.0228
13654TIP3    H162377   2.859   6.130  14.568 -0.3876 -0.7313 -1.1455
13654TIP3    H262378   2.770   6.079  14.679 -0.3862  1.1571 -0.2517
13655TIP3   OH262379   1.883   4.186   3.916  0.3956 -0.1041 -0.5175
13655TIP3    H162380   1.888   4.094   3.890 -0.1906 -0.2887  0.0113
13655TIP3    H262381   1.825   4.187   3.991 -0.3026  0.8098 -1.0507
13656TIP3   OH262382   5.513   4.534   1.222 -0.2962 -0.0124 -0.3694
13656TIP3    H162383   5.591   4.492   1.257 -0.4000  1.1381  1.3605
13656TIP3    H262384   5.445   4.467   1.227  0.7243 -1.3938 -2.9172
13657TIP3   OH262385   1.906   3.169  17.052 -0.4543  0.3371 -0.3148
13657TIP3    H162386   1.949   3.128  17.127  1.1478  0.8441 -0.9178
13657TIP3    H262387   1.904   3.262  17.073  0.0564  0.4884 -0.9158
13658TIP3   OH262388   4.660   0.572   5.393  0.3606 -0.3862  0.0151
13658TIP3    H162389   4.690   0.561   5.484  1.5557  0.3034 -0.2626
13658TIP3    H262390   4.716   0.512   5.343 -0.4050 -0.8802 -0.2542
13659TIP3   OH262391   6.775   2.526   4.039 -0.2211  0.0438  0.3114
13659TIP3    H162392   6.756   2.437   4.008  0.8533  0.3039 -1.2283
13659TIP3    H262393   6.763   2.581   3.961 -1.0173  1.2850  1.2723
13660TIP3   OH262394   5.828   1.302   6.290 -0.5119 -0.2157  0.0973
13660TIP3    H162395   5.910   1.297   6.338 -0.3438 -0.0383 -0.1730
13660TIP3    H262396   5.776   1.228   6.323 -0.3066 -0.2356  0.3772
13661TIP3   OH262397   1.144   6.750  15.560 -1.1145  0.7745  0.8697
13661TIP3    H162398   1.149   6.819  15.626  3.3000  0.9665  0.6441
13661TIP3    H262399   1.155   6.796  15.477 -0.0665  0.0230  0.5688
13662TIP3   OH262400   3.548   1.253   5.196  0.1350 -0.0254  0.4507
13662TIP3    H162401   3.591   1.180   5.240 -1.0137  0.6156  2.7727
13662TIP3    H262402   3.513   1.216   5.115  1.6663 -1.4398  0.4015
13663TIP3   OH262403   1.819   1.798   5.038  0.3373  0.2167 -0.2781
13663TIP3    H162404   1.868   1.726   4.998  0.0608  0.3938 -0.9418
13663TIP3    H262405   1.828   1.783   5.132  1.2559 -0.0329 -0.3891
13664TIP3   OH262406   2.144   3.287  12.806 -0.0381  0.0687  0.9916
13664TIP3    H162407   2.056   3.270  12.837 -0.6867  1.7032  0.1574
13664TIP3    H262408   2.132   3.338  12.726  1.6577  0.2752  0.8297
13665TIP3   OH262409   1.648   5.689  14.687 -0.5331  0.3582  0.2900
13665TIP3    H162410   1.694   5.636  14.622  0.0975  0.6074  0.5203
13665TIP3    H262411   1.682   5.778  14.672  1.4637  0.0575  2.5274
13666TIP3   OH262412   2.781   0.310  16.159  0.0690  0.2760 -0.1298
13666TIP3    H162413   2.721   0.238  16.180  0.2521 -0.6889 -2.5797
13666TIP3    H262414   2.758   0.335  16.070 -0.0378  3.3812  0.6423
13667TIP3   OH262415   2.343   2.369  10.887 -0.2577 -0.2694 -0.2676
13667TIP3    H162416   2.362   2.313  10.812  0.2099 -1.3704  0.6519
13667TIP3    H262417   2.250   2.389  10.879  0.1628  1.2171 -2.1767
13668TIP3   OH262418   0.032   6.802   4.327 -0.2386  0.8693 -0.2763
13668TIP3    H162419  -0.002   6.871   4.383 -1.4581 -0.7128  1.0412
13668TIP3    H262420   0.033   6.724   4.383 -0.9228 -0.6571 -2.2438
13669TIP3   OH262421   4.608   0.033   2.070  0.3669  0.2122  0.5647
13669TIP3    H162422   4.560   0.113   2.091  1.3151  1.1079 -0.5265
13669TIP3    H262423   4.671   0.023   2.141 -0.6329 -0.3241  1.3944
13670TIP3   OH262424   5.136   4.885   5.341 -0.2135  0.2044  0.0375
13670TIP3    H162425   5.044   4.909   5.328 -0.2380 -1.1497 -3.1417
13670TIP3    H262426   5.181   4.968   5.354 -1.8248  0.8810  1.9446
13671TIP3   OH262427   5.680   1.755   4.474 -0.2564 -0.4610  0.2377
13671TIP3    H162428   5.681   1.826   4.538 -0.3168 -0.7564  0.5733
13671TIP3    H262429   5.772   1.737   4.456 -0.2082 -1.1296  1.0980
13672TIP3   OH262430   2.532   0.666  17.082 -0.1416  0.0306  0.1292
13672TIP3    H162431   2.490   0.657  16.996 -3.4375 -0.4138  1.6557
13672TIP3    H262432   2.508   0.754  17.111 -0.5894 -0.4641  1.3230
13673TIP3   OH262433   0.255   3.857   3.600 -0.2778  0.3886  0.2956
13673TIP3    H162434   0.326   3.908   3.562 -0.7508  1.7684  1.1789
13673TIP3    H262435   0.293   3.816   3.678  0.7641 -2.6488 -1.6323
13674TIP3   OH262436   2.367   1.416  13.852  0.7886 -0.0850 -0.1564
13674TIP3    H162437   2.382   1.503  13.814  0.1552  0.1508  0.1345
13674TIP3    H262438   2.453   1.374  13.849  1.4082  1.0395  0.9346
13675TIP3   OH262439   1.793   2.702  16.852  0.3196 -0.0550 -0.2115
13675TIP3    H162440   1.731   2.770  16.824  0.2331 -0.4584 -1.0191
13675TIP3    H262441   1.785   2.700  16.947  0.9798  1.6972 -0.0785
13676TIP3   OH262442   6.300   2.325  14.087  0.2214 -0.2818 -0.2220
13676TIP3    H162443   6.371   2.378  14.124  0.2452 -0.3983 -0.0998
13676TIP3    H262444   6.279   2.261  14.156 -1.1796  0.8466  0.4466
13677TIP3   OH262445   0.684   3.559   4.342  0.1251 -0.2687 -0.1983
13677TIP3    H162446   0.619   3.614   4.298  1.6721  0.8918 -1.1367
13677TIP3    H262447   0.652   3.551   4.432 -1.9979 -0.8784 -0.9519
13678TIP3   OH262448   5.074   2.299  11.154  0.3007  0.1797  0.6021
13678TIP3    H162449   4.997   2.246  11.176 -0.5683  1.2122  0.1758
13678TIP3    H262450   5.110   2.257  11.076  0.0730 -0.2277  0.7128
13679TIP3   OH262451   4.470   2.892   5.105  0.3710 -0.0801 -0.4349
13679TIP3    H162452   4.545   2.847   5.143  0.7505  1.1319  0.3253
13679TIP3    H262453   4.394   2.849   5.143  0.6922 -0.8350 -0.6373
13680TIP3   OH262454   1.009   3.125   2.609 -0.2116  0.2508  0.3348
13680TIP3    H162455   0.978   3.041   2.576  0.0174 -0.3661  1.6405
13680TIP3    H262456   0.937   3.186   2.592 -0.9238 -0.5047  0.5991
13681TIP3   OH262457   1.024   5.839  15.610  0.0650 -0.6317  0.0317
13681TIP3    H162458   1.107   5.793  15.600  0.9087  0.8438 -0.0328
13681TIP3    H262459   0.996   5.820  15.699  2.2346  1.5534  1.3082
13682TIP3   OH262460   2.032   5.923   0.629  0.5724  0.3273  0.3843
13682TIP3    H162461   2.064   5.974   0.555  1.1447  0.3562  0.6459
13682TIP3    H262462   2.040   5.981   0.705 -2.8957  1.4285  0.0536
13683TIP3   OH262463   6.379   1.872   5.619  0.2405 -0.0384  0.1915
13683TIP3    H162464   6.327   1.921   5.683  0.8052  0.3584  0.3643
13683TIP3    H262465   6.352   1.907   5.534  1.4680  1.4578  0.3636
13684TIP3   OH262466   1.165   5.114   3.156  0.1323 -0.2080  0.2493
13684TIP3    H162467   1.087   5.091   3.206  0.1998  0.0956  0.4971
13684TIP3    H262468   1.221   5.037   3.161  0.5778  0.1789  1.4983
13685TIP3   OH262469   0.861   4.706  15.919 -0.3464 -0.7805  0.0512
13685TIP3    H162470   0.821   4.780  15.874 -0.6869 -0.9565  0.0665
13685TIP3    H262471   0.880   4.738  16.007  3.5210  0.7377 -1.1299
13686TIP3   OH262472   4.951   3.666  16.561 -0.4550  0.1538 -0.1095
13686TIP3    H162473   5.022   3.607  16.585 -0.4440  1.2565  3.0579
13686TIP3    H262474   4.980   3.706  16.479  1.5661 -0.9893 -0.0181
13687TIP3   OH262475   5.040   6.368  12.114 -0.3065  0.3334  0.2224
13687TIP3    H162476   5.031   6.358  12.209  2.4345  0.0438  0.5183
13687TIP3    H262477   4.960   6.414  12.087 -1.6967 -0.6025  2.4626
13688TIP3   OH262478   2.891   6.415  13.259  0.0956  0.6773  0.1123
13688TIP3    H162479   2.876   6.486  13.196  3.3188  1.1837 -0.2883
13688TIP3    H262480   2.940   6.456  13.330  1.5024 -0.9815  0.1594
13689TIP3   OH262481   2.508   6.583  16.850 -0.2374  0.3451 -0.0151
13689TIP3    H162482   2.415   6.588  16.873  0.2178  1.0238  1.8011
13689TIP3    H262483   2.554   6.616  16.927  1.4590  1.8589 -1.5634
13690TIP3   OH262484   4.663   1.554   3.117 -0.2959 -0.4110  0.3395
13690TIP3    H162485   4.588   1.539   3.059 -1.3039  3.7234  0.2632
13690TIP3    H262486   4.739   1.539   3.061 -1.0691 -2.1921 -0.3100
13691TIP3   OH262487   0.051   5.530   3.064 -0.1042 -0.2134  0.1438
13691TIP3    H162488   0.136   5.572   3.052 -0.1457  0.0428  0.7075
13691TIP3    H262489  -0.011   5.588   3.020 -0.6140  2.0792  3.4900
13692TIP3   OH262490   4.447   5.453  12.159  0.6618 -0.4250  0.4515
13692TIP3    H162491   4.460   5.400  12.080 -0.9699  0.3174 -0.3494
13692TIP3    H262492   4.501   5.409  12.226  2.4730 -0.7900 -1.1607
13693TIP3   OH262493   4.659   4.417   3.870  0.0278  0.0484 -0.2447
13693TIP3    H162494   4.671   4.511   3.860 -0.8404  0.0823 -1.0744
13693TIP3    H262495   4.741   4.387   3.910  0.0528  1.2364  0.6758
13694TIP3   OH262496   0.790   0.766  16.234  0.1387 -0.4075 -0.0634
13694TIP3    H162497   0.829   0.818  16.304 -2.5935  0.7717  0.7390
13694TIP3    H262498   0.706   0.810  16.217 -1.3972 -3.3930 -0.7789
13695TIP3   OH262499   3.236   6.115  17.016  0.0418 -0.3407 -0.1061
13695TIP3    H162500   3.157   6.091  16.966  0.0385 -0.7057  0.0736
13695TIP3    H262501   3.218   6.203  17.048 -0.0451 -0.1852 -0.5724
13696TIP3   OH262502   5.692   2.933   2.410  0.1666  0.4768  0.5415
13696TIP3    H162503   5.772   2.898   2.370  1.3649 -0.2522  3.3009
13696TIP3    H262504   5.661   2.862   2.466 -1.3012  1.4645  1.0265
13697TIP3   OH262505   2.552   2.953  17.095  0.0282  0.4920  0.0013
13697TIP3    H162506   2.554   2.897  17.017 -1.2537  0.0181  0.2847
13697TIP3    H262507   2.618   3.020  17.077  1.2798 -0.8109 -0.5556
13698TIP3   OH262508   1.955   4.280   3.342 -0.1700 -0.3378  0.4886
13698TIP3    H162509   1.915   4.244   3.262  1.4902  1.2925 -1.1511
13698TIP3    H262510   2.032   4.225   3.357 -0.3617 -0.5071  0.8950
13699TIP3   OH262511   4.495   2.686  10.896 -0.1350  0.3552 -0.1387
13699TIP3    H162512   4.460   2.607  10.938  0.3040 -0.5566 -1.4371
13699TIP3    H262513   4.553   2.723  10.963  1.9811 -2.0611 -0.4579
13700TIP3   OH262514   3.548   5.336  14.270 -0.3301 -0.0234 -0.0349
13700TIP3    H162515   3.571   5.357  14.179  4.3973  0.0146  0.8802
13700TIP3    H262516   3.533   5.421  14.311 -0.8994  0.0684 -0.4189
13701TIP3   OH262517   1.464   0.876   0.482  0.7483 -0.0020 -0.5027
13701TIP3    H162518   1.400   0.898   0.550 -0.5782 -3.3638 -0.4626
13701TIP3    H262519   1.417   0.885   0.400  0.8686 -0.3898 -0.6207
13702TIP3   OH262520   5.503   3.872  12.252  0.0844 -0.0831 -0.5380
13702TIP3    H162521   5.563   3.936  12.290  0.1586 -0.0963 -0.6341
13702TIP3    H262522   5.554   3.791  12.247 -0.7554 -0.8531  1.9807
13703TIP3   OH262523   0.800   3.945  17.009  0.4199 -0.0233  0.0483
13703TIP3    H162524   0.754   4.006  16.951 -0.3037 -1.6332 -1.1721
13703TIP3    H262525   0.730   3.895  17.052  0.9693 -1.2462 -0.4195
13704TIP3   OH262526   5.595   0.912   0.571  0.3232  0.2995 -0.0841
13704TIP3    H162527   5.500   0.911   0.583  0.3044 -2.0166 -0.0790
13704TIP3    H262528   5.607   0.937   0.479 -0.2801  0.6936 -0.0607
13705TIP3   OH262529   6.401   5.398  13.550 -0.0596  0.1026 -1.1281
13705TIP3    H162530   6.387   5.318  13.498  2.4298 -1.7730  0.7994
13705TIP3    H262531   6.335   5.393  13.619 -0.0245 -0.2168 -1.1155
13706TIP3   OH262532   2.892   0.688  11.693 -0.0005  0.1869  0.2525
13706TIP3    H162533   2.938   0.749  11.752  0.0115  1.8942 -1.4423
13706TIP3    H262534   2.961   0.630  11.660  0.3114  0.4441  0.4435
13707TIP3   OH262535   6.173   5.601   5.455  0.0057 -0.1174  0.0522
13707TIP3    H162536   6.131   5.519   5.430  2.0926 -1.9448  2.0671
13707TIP3    H262537   6.236   5.618   5.385 -2.0411  1.2137 -1.6118
13708TIP3   OH262538   3.164   5.196  10.800  0.2805  0.3327 -0.3116
13708TIP3    H162539   3.133   5.146  10.725  1.0869  0.7149 -0.9024
13708TIP3    H262540   3.215   5.133  10.851  1.9787  0.7147 -1.4693
13709TIP3   OH262541   1.689   4.719   3.282  0.1155  0.4247  0.3248
13709TIP3    H162542   1.777   4.684   3.265 -0.4895 -1.0180  0.0404
13709TIP3    H262543   1.685   4.728   3.377 -0.3250 -2.0946  0.6137
13710TIP3   OH262544   5.031   4.163   0.334  0.4767 -0.4353 -0.1074
13710TIP3    H162545   4.997   4.133   0.419 -1.2525  0.7797 -0.3208
13710TIP3    H262546   5.061   4.083   0.291 -0.0159 -1.2759  1.0419
13711TIP3   OH262547   5.649   2.891  15.140 -0.8150 -0.4926  0.1829
13711TIP3    H162548   5.736   2.891  15.180 -1.4390 -0.7973  1.6149
13711TIP3    H262549   5.651   2.963  15.077  0.0505  0.3873  1.1837
13712TIP3   OH262550   3.517   3.203  15.381  0.2263 -0.2194  0.6080
13712TIP3    H162551   3.585   3.191  15.447  2.1239 -0.1630 -1.2477
13712TIP3    H262552   3.529   3.292  15.348 -0.7581 -0.1985  0.2521
13713TIP3   OH262553   5.064   0.315  15.175 -0.0484 -0.9841  0.2048
13713TIP3    H162554   5.149   0.313  15.220  0.3553  0.0284 -0.4757
13713TIP3    H262555   5.066   0.239  15.117  0.5175 -0.8264  0.0058
13714TIP3   OH262556   0.426   3.380   4.051  0.2610 -0.4038 -0.3301
13714TIP3    H162557   0.416   3.473   4.071 -0.4826 -0.6224  0.3721
13714TIP3    H262558   0.411   3.336   4.135  1.5755 -1.1088 -0.4436
13715TIP3   OH262559   5.502   2.827   2.871 -0.5828 -0.0974  0.6371
13715TIP3    H162560   5.494   2.909   2.821  1.8548  0.2556  0.7380
13715TIP3    H262561   5.513   2.855   2.962  2.6372 -0.3455  0.4075
13716TIP3   OH262562   0.753   6.804  15.820  0.4493 -0.0275 -0.9584
13716TIP3    H162563   0.685   6.868  15.802  1.1461  0.3421 -2.3815
13716TIP3    H262564   0.828   6.832  15.768  1.5762 -0.6401  0.2774
13717TIP3   OH262565   3.268   3.516  10.392  0.7293 -0.0011  0.6537
13717TIP3    H162566   3.290   3.441  10.337 -0.2561  0.3274 -0.2150
13717TIP3    H262567   3.297   3.592  10.342  0.0987  0.2890  0.7282
13718TIP3   OH262568   2.897   0.790  16.407  0.0835  0.3539  0.0543
13718TIP3    H162569   2.901   0.874  16.361 -1.7744  0.3944 -0.0821
13718TIP3    H262570   2.919   0.725  16.341 -3.6841  0.2958 -1.3723
13719TIP3   OH262571   2.739   5.212  15.507  0.3670 -0.4142  0.3400
13719TIP3    H162572   2.800   5.183  15.575 -0.0206  1.7986  1.7148
13719TIP3    H262573   2.774   5.174  15.427  2.1623 -1.2144  1.4287
13720TIP3   OH262574   2.214   2.128   2.648 -0.7328  0.0330 -0.4137
13720TIP3    H162575   2.179   2.210   2.613  0.7598  1.1445  0.5464
13720TIP3    H262576   2.151   2.102   2.715 -0.8564  0.8121 -0.2188
13721TIP3   OH262577   5.028   6.790  13.071 -0.0270  0.4530 -0.1681
13721TIP3    H162578   5.041   6.713  13.016 -0.1063 -0.2045  0.7165
13721TIP3    H262579   5.099   6.786  13.135 -0.1234  1.0243 -0.0216
13722TIP3   OH262580   4.823   6.103  13.443 -0.2864 -0.2018  0.1328
13722TIP3    H162581   4.912   6.136  13.426 -0.6475  0.9561  0.4040
13722TIP3    H262582   4.831   6.059  13.528 -0.0993  0.4541  0.4653
13723TIP3   OH262583   3.771   4.591  14.889  0.0811 -0.1378  0.3268
13723TIP3    H162584   3.856   4.579  14.931  0.8408 -0.8269 -1.3028
13723TIP3    H262585   3.749   4.504  14.854  0.8050  0.8480 -2.9471
13724TIP3   OH262586   1.504   2.184  11.467 -0.1448  0.2439 -0.2740
13724TIP3    H162587   1.431   2.246  11.470 -0.1306  0.3462 -1.5888
13724TIP3    H262588   1.468   2.103  11.502 -0.6271  0.5499 -0.0553
13725TIP3   OH262589   0.713   6.148   2.174 -0.3136  0.2328  0.0660
13725TIP3    H162590   0.792   6.161   2.122  0.8174  0.2424  1.7170
13725TIP3    H262591   0.743   6.100   2.252 -2.1090 -0.6476  0.2691
13726TIP3   OH262592   3.150   3.956  12.150 -0.0163 -0.0459  0.3136
13726TIP3    H162593   3.103   3.900  12.089  1.8646  0.9101 -2.2250
13726TIP3    H262594   3.151   3.908  12.233 -3.0198 -1.2477 -0.2349
13727TIP3   OH262595   6.632   1.124  16.094 -0.0782 -0.0469 -0.0693
13727TIP3    H162596   6.539   1.121  16.120 -0.9346  1.1799 -2.6421
13727TIP3    H262597   6.660   1.033  16.096 -2.1872 -0.8340 -1.8075
13728TIP3   OH262598   0.816   4.027  14.331 -0.1243  0.0190 -0.4997
13728TIP3    H162599   0.761   3.951  14.316 -1.1063  0.0646  2.1921
13728TIP3    H262600   0.902   3.991  14.354 -0.5485 -0.3280  0.6284
13729TIP3   OH262601   6.180   1.846  13.080  0.0854  0.0037  0.1751
13729TIP3    H162602   6.141   1.898  13.010  0.4237  0.5705  0.4037
13729TIP3    H262603   6.106   1.799  13.119 -0.3703  1.0513  0.5987
13730TIP3   OH262604   3.603   3.147  10.515  0.4357 -0.1832  0.4933
13730TIP3    H162605   3.599   3.063  10.470  0.2495 -0.0482  0.2585
13730TIP3    H262606   3.616   3.212  10.445  0.9834 -0.0538  0.7087
13731TIP3   OH262607   3.389   6.800  15.227 -0.3294 -0.0666  0.5505
13731TIP3    H162608   3.484   6.807  15.217 -0.1437 -0.9567  1.6158
13731TIP3    H262609   3.374   6.711  15.259 -1.6190 -0.3182 -0.6508
13732TIP3   OH262610   0.566   6.650  12.831 -0.2984 -0.5980  0.3585
13732TIP3    H162611   0.479   6.663  12.867 -0.8697 -0.5653 -0.9928
13732TIP3    H262612   0.565   6.562  12.796 -0.1309 -0.2331 -0.5783
13733TIP3   OH262613   2.374   5.977  15.799 -0.6086 -0.0691  0.2630
13733TIP3    H162614   2.387   5.960  15.892  1.2359  2.9361  0.6988
13733TIP3    H262615   2.406   5.898  15.756  2.7681  0.0564  2.1292
13734TIP3   OH262616   2.238   5.248  11.372 -0.0272 -0.0982 -0.3395
13734TIP3    H162617   2.257   5.171  11.320 -0.1049 -0.8848  0.7508
13734TIP3    H262618   2.265   5.224  11.461 -2.4836  0.1287  0.5444
13735TIP3   OH262619   0.249   5.728  13.923  0.0848  0.0578 -0.0067
13735TIP3    H162620   0.299   5.809  13.913 -2.2836  1.4886 -1.4869
13735TIP3    H262621   0.260   5.682  13.840  0.1220 -0.3257  0.2087
13736TIP3   OH262622   5.684   0.455   4.309 -0.2581  0.0477  0.5145
13736TIP3    H162623   5.712   0.375   4.353  0.8407 -0.9752 -1.9056
13736TIP3    H262624   5.763   0.488   4.267 -1.7152 -0.6408 -3.0790
13737TIP3   OH262625   2.886   1.344   5.895 -0.4243  0.3488  0.4165
13737TIP3    H162626   2.909   1.255   5.920 -1.7141 -0.2559 -0.4103
13737TIP3    H262627   2.860   1.387   5.977  0.6280  0.1206  0.8840
13738TIP3   OH262628   2.131   5.263  13.546  0.3765 -0.2215  0.2674
13738TIP3    H162629   2.204   5.202  13.551  0.3175 -0.2637  0.6695
13738TIP3    H262630   2.153   5.332  13.609  0.0446 -0.2634  0.4315
13739TIP3   OH262631   5.134   1.015   0.884  0.1388 -0.6921 -0.2487
13739TIP3    H162632   5.182   1.096   0.870 -0.6213 -0.0010  0.9961
13739TIP3    H262633   5.201   0.951   0.908  0.6758 -0.2913 -0.6703
13740TIP3   OH262634   6.725   2.952   0.331  0.2566  0.2419 -0.2313
13740TIP3    H162635   6.815   2.919   0.332  0.8724  1.7742 -1.4566
13740TIP3    H262636   6.708   2.975   0.240 -0.4719  2.3127  0.3636
13741TIP3   OH262637   4.668   6.580  13.747  0.2808 -0.1049  0.1431
13741TIP3    H162638   4.717   6.647  13.699 -0.0493  0.0236 -0.0176
13741TIP3    H262639   4.596   6.628  13.788 -0.8717 -0.5813 -1.2323
13742TIP3   OH262640   2.176   3.155   5.724  0.3536  0.2654  0.1144
13742TIP3    H162641   2.116   3.135   5.653  0.7513  0.5877 -0.3255
13742TIP3    H262642   2.161   3.087   5.789  0.2393 -0.2493 -0.4415
13743TIP3   OH262643   5.304   4.574   0.429 -0.2565 -0.1112 -0.6872
13743TIP3    H162644   5.380   4.520   0.452 -0.1853  0.5135  0.6352
13743TIP3    H262645   5.328   4.615   0.346  1.3937  1.0338  0.2998
13744TIP3   OH262646   1.742   6.625  12.485  0.0220 -0.2523 -0.3935
13744TIP3    H162647   1.740   6.702  12.429  1.9364  0.9997  1.1587
13744TIP3    H262648   1.802   6.565  12.441 -1.1808 -0.7654 -1.4067
13745TIP3   OH262649   3.664   0.176   2.296 -0.1069 -0.5403 -0.4047
13745TIP3    H162650   3.678   0.246   2.233  2.5993 -0.6771 -0.0639
13745TIP3    H262651   3.643   0.099   2.243 -2.0642  0.2060 -0.8264
13746TIP3   OH262652   4.948   4.101  13.752  0.1811 -0.8865 -0.5847
13746TIP3    H162653   4.907   4.066  13.831  1.5486 -1.3640 -0.0506
13746TIP3    H262654   4.878   4.149  13.708 -0.6686 -0.7881  0.8028
13747TIP3   OH262655   0.972   4.006  12.849  0.5282  0.3148  0.1462
13747TIP3    H162656   1.049   4.044  12.891  1.6976 -1.4536 -0.2882
13747TIP3    H262657   0.921   3.969  12.921 -0.2410  1.9860  0.4928
13748TIP3   OH262658   3.889   6.459  15.621 -0.9712 -0.0693 -0.7905
13748TIP3    H162659   3.871   6.465  15.527 -2.2056 -0.1495 -0.5763
13748TIP3    H262660   3.835   6.386  15.651 -1.1644  0.4295  0.1049
13749TIP3   OH262661   5.691   3.142   1.656 -0.4715 -0.2282  0.1601
13749TIP3    H162662   5.665   3.059   1.616 -1.6493  0.1197  0.1552
13749TIP3    H262663   5.654   3.209   1.598  0.7441  0.3207 -0.0208
13750TIP3   OH262664   1.261   6.288  14.736  0.3543  0.2806  0.0895
13750TIP3    H162665   1.269   6.349  14.662  1.4969  2.0837  1.5931
13750TIP3    H262666   1.330   6.223  14.720  0.0309  0.1442 -0.8425
13751TIP3   OH262667   0.467   6.752  12.298  0.0096 -0.5714  0.1497
13751TIP3    H162668   0.468   6.686  12.368  1.4551 -1.6193 -0.7983
13751TIP3    H262669   0.514   6.710  12.225 -1.7818  0.3045 -1.6161
13752TIP3   OH262670   3.208   5.795   5.903 -0.4208  0.8946 -0.7897
13752TIP3    H162671   3.131   5.748   5.935  0.0739  0.5610 -0.0772
13752TIP3    H262672   3.239   5.844   5.979  0.1565  0.9199 -1.0415
13753TIP3   OH262673   3.809   5.320   0.883 -0.4160 -0.4346 -0.2928
13753TIP3    H162674   3.823   5.312   0.789  0.8408  0.3741 -0.1963
13753TIP3    H262675   3.741   5.387   0.892 -0.3416 -0.3130 -0.6212
13754TIP3   OH262676   2.225   6.754  10.808  0.3688  0.0230 -0.0452
13754TIP3    H162677   2.249   6.669  10.845 -0.6128 -0.3230 -0.1533
13754TIP3    H262678   2.136   6.741  10.774 -0.7588  1.7021  1.9815
13755TIP3   OH262679   6.041   1.087  12.012 -0.4529  0.3946  0.6368
13755TIP3    H162680   5.988   1.042  11.947  0.5877  1.4995 -1.0866
13755TIP3    H262681   6.121   1.034  12.020  0.3695  1.3612 -0.6979
13756TIP3   OH262682   2.768   1.730  13.401  0.3613 -0.6625  0.1403
13756TIP3    H162683   2.689   1.681  13.420  0.4844 -0.9203 -0.0112
13756TIP3    H262684   2.832   1.701  13.466 -0.1246  0.7016  1.2934
13757TIP3   OH262685   5.863   0.229  12.198 -0.2450  0.0277 -0.3443
13757TIP3    H162686   5.869   0.207  12.291 -1.1514 -0.8324 -0.4725
13757TIP3    H262687   5.937   0.287  12.183 -0.0532  0.1439  0.9035
13758TIP3   OH262688   0.748   6.537  16.353  0.0768 -0.4084 -0.4924
13758TIP3    H162689   0.711   6.596  16.287 -0.8436  0.3588  0.6641
13758TIP3    H262690   0.691   6.548  16.429  1.0762 -1.3135  0.4195
13759TIP3   OH262691   0.994   0.396  14.806 -0.1236 -0.1016  0.1992
13759TIP3    H162692   0.904   0.421  14.782  0.7732  2.0947 -1.2231
13759TIP3    H262693   1.024   0.467  14.863  0.2809 -1.5418  1.8391
13760TIP3   OH262694   1.903   3.594   2.975  0.6588  0.4286  0.5737
13760TIP3    H162695   1.876   3.567   3.063  2.4188  1.9702  1.6856
13760TIP3    H262696   1.998   3.584   2.975  0.8250  1.6187 -0.7219
13761TIP3   OH262697   2.623   5.202   2.124 -0.0294  0.1247 -0.3152
13761TIP3    H162698   2.640   5.295   2.109  2.0131 -0.2395 -0.5019
13761TIP3    H262699   2.636   5.190   2.218  1.5288 -0.2692 -0.5484
13762TIP3   OH262700   6.589   4.441   0.876 -0.0709 -0.1020  0.6241
13762TIP3    H162701   6.666   4.385   0.874 -0.0508 -0.2062 -2.9608
13762TIP3    H262702   6.623   4.530   0.881  0.0523 -0.2314  2.7164
13763TIP3   OH262703   6.528   6.332  16.886 -0.4428  0.1510  0.4498
13763TIP3    H162704   6.578   6.273  16.942  0.8764  0.2205 -0.6259
13763TIP3    H262705   6.439   6.329  16.922 -0.4185 -2.4468  0.4660
13764TIP3   OH262706   1.349   4.929   6.060  0.3423  0.4729  1.0218
13764TIP3    H162707   1.338   4.848   6.010 -2.6631  0.9371  0.7517
13764TIP3    H262708   1.428   4.969   6.024 -0.5744 -0.2008 -1.9681
13765TIP3   OH262709   5.903   2.536   0.850  0.5156 -0.0011 -0.7663
13765TIP3    H162710   5.995   2.563   0.854  0.4480  0.4159 -1.7295
13765TIP3    H262711   5.860   2.607   0.803 -0.8552  1.2241  2.0890
13766TIP3   OH262712   4.729   2.266  14.719  0.2471 -0.3857 -0.5306
13766TIP3    H162713   4.642   2.299  14.743  1.0363  0.8077  0.8485
13766TIP3    H262714   4.789   2.336  14.744  1.6380 -1.2380 -1.3441
13767TIP3   OH262715   6.427   0.641  14.817 -0.0231 -0.2524  0.1609
13767TIP3    H162716   6.442   0.726  14.858 -0.8860 -0.6027  1.2348
13767TIP3    H262717   6.423   0.579  14.890 -1.8269 -0.8585 -0.3979
13768TIP3   OH262718   6.574   5.839   4.466  0.5951 -0.3710 -0.0847
13768TIP3    H162719   6.495   5.798   4.501  0.9785 -1.9514 -0.9841
13768TIP3    H262720   6.612   5.886   4.541 -0.0135 -1.4637  0.9329
13769TIP3   OH262721   1.737   4.580  15.557  0.0961  0.2427  0.7833
13769TIP3    H162722   1.731   4.492  15.520 -0.8885  0.6019  0.0498
13769TIP3    H262723   1.829   4.605  15.546  0.3753 -0.6775  0.9834
13770TIP3   OH262724   3.559   4.659   0.208 -0.0537  0.5040 -0.6135
13770TIP3    H162725   3.525   4.744   0.238  0.8037  0.1762  1.4517
13770TIP3    H262726   3.538   4.599   0.279  0.2773 -0.8115 -1.5967
13771TIP3   OH262727   5.096   4.442   3.675 -0.0436  0.6131 -0.5875
13771TIP3    H162728   5.099   4.536   3.657 -2.8276  1.1168  1.0160
13771TIP3    H262729   5.176   4.424   3.726  0.9076  1.9076 -1.5621
13772TIP3   OH262730   4.873   1.266   0.157  0.4373  0.4943  0.8437
13772TIP3    H162731   4.779   1.253   0.175  0.2492 -1.2894 -1.0391
13772TIP3    H262732   4.913   1.181   0.177  1.2552  0.5173 -0.5827
13773TIP3   OH262733   2.706   6.723   0.821 -0.5055 -0.1776  0.0493
13773TIP3    H162734   2.660   6.723   0.905 -0.8102 -2.6074 -0.0549
13773TIP3    H262735   2.638   6.737   0.756 -0.5639 -0.2543  0.0937
13774TIP3   OH262736   5.913   3.583  12.155 -0.4989 -0.0227 -0.3469
13774TIP3    H162737   5.886   3.589  12.247  0.4789  0.2045 -0.0602
13774TIP3    H262738   5.976   3.511  12.154 -0.2490  0.1994 -0.7679
13775TIP3   OH262739   2.358   3.696   5.423 -0.3324  0.0334  0.1044
13775TIP3    H162740   2.297   3.625   5.442 -0.3965  0.0663  0.0223
13775TIP3    H262741   2.412   3.703   5.501 -1.0424  0.6293  0.5499
13776TIP3   OH262742   4.600   3.514   0.370  0.0479 -0.3210 -0.1385
13776TIP3    H162743   4.528   3.471   0.325  0.8088 -1.7306 -0.0687
13776TIP3    H262744   4.647   3.561   0.301 -1.9094  2.1748  0.0647
13777TIP3   OH262745   1.201   0.276   0.434 -0.7267  0.2076 -0.3160
13777TIP3    H162746   1.240   0.294   0.519  2.6836 -1.5678 -1.3074
13777TIP3    H262747   1.116   0.236   0.454 -1.2266  2.2353  2.0897
13778TIP3   OH262748   5.084   3.168  12.948 -0.0555  0.5154 -0.2190
13778TIP3    H162749   5.096   3.237  13.013  0.4543  2.9714 -2.7503
13778TIP3    H262750   5.172   3.147  12.917 -0.2976 -0.5062 -0.2824
13779TIP3   OH262751   6.010   0.422  13.261 -0.4201 -0.6616 -0.3334
13779TIP3    H162752   5.950   0.348  13.258  0.7535 -1.6454 -0.7352
13779TIP3    H262753   6.092   0.388  13.224  0.0965  0.9011 -0.7164
13780TIP3   OH262754   1.884   4.467   3.874 -0.2348  0.3838 -0.9322
13780TIP3    H162755   1.789   4.473   3.870 -0.4222 -0.1190  1.2846
13780TIP3    H262756   1.902   4.378   3.903  0.9465  0.3160 -1.7972
13781TIP3   OH262757   2.592   6.369  15.633 -0.3873  0.3689  0.0117
13781TIP3    H162758   2.636   6.453  15.621  0.3052  0.0466  0.2412
13781TIP3    H262759   2.598   6.327  15.547  2.7312 -1.0617  0.7874
13782TIP3   OH262760   0.350   2.991  15.480 -0.4905 -0.2877  0.0615
13782TIP3    H162761   0.310   2.947  15.555  0.1618  1.8043  1.7320
13782TIP3    H262762   0.289   3.062  15.458  0.2229  0.2492 -0.2073
13783TIP3   OH262763   3.524   5.461   1.148  0.7987  1.2907  0.0100
13783TIP3    H162764   3.490   5.549   1.167 -0.2325  1.2734 -1.5651
13783TIP3    H262765   3.446   5.408   1.132  1.4686  0.5066 -0.7277
13784TIP3   OH262766   3.543   2.176   4.573  0.4086  0.3937  0.6795
13784TIP3    H162767   3.593   2.112   4.623  0.4750 -2.7676 -2.9848
13784TIP3    H262768   3.606   2.210   4.508 -0.7733  0.7214 -0.3344
13785TIP3   OH262769   3.396   6.081   2.970  0.1075 -0.4376 -0.5147
13785TIP3    H162770   3.312   6.038   2.981 -1.1118  1.6805 -1.0136
13785TIP3    H262771   3.376   6.163   2.925  2.3960  0.3161 -0.3175
13786TIP3   OH262772   6.676   0.584  12.705 -0.2478 -0.0106  0.1250
13786TIP3    H162773   6.605   0.608  12.646 -0.6290  0.9257  0.9257
13786TIP3    H262774   6.658   0.493  12.728  0.3095 -0.6252 -1.7157
13787TIP3   OH262775   5.866   1.751   4.932  0.1748 -0.3354 -0.6690
13787TIP3    H162776   5.797   1.719   4.990  0.2337 -0.4738 -0.6762
13787TIP3    H262777   5.821   1.810   4.872 -0.0911 -1.0952 -1.2267
13788TIP3   OH262778   2.739   3.931   3.843 -0.0650 -0.4454  0.3843
13788TIP3    H162779   2.762   3.986   3.768  0.1972 -1.5306 -0.3708
13788TIP3    H262780   2.654   3.894   3.821 -0.2613 -0.3014  0.8994
13789TIP3   OH262781   0.133   4.954   1.176 -0.4939  0.2904 -0.4457
13789TIP3    H162782   0.226   4.970   1.162 -0.3982 -0.4415 -0.7363
13789TIP3    H262783   0.089   5.030   1.138  0.0256  1.3486  0.9912
13790TIP3   OH262784   0.392   2.880  11.211 -0.3472 -0.9776  0.1554
13790TIP3    H162785   0.408   2.843  11.125  0.3337 -1.7236  0.5968
13790TIP3    H262786   0.305   2.848  11.235 -0.7657 -0.3405 -0.4603
13791TIP3   OH262787   4.106   5.452   2.697 -0.6204  0.1179 -0.5103
13791TIP3    H162788   4.135   5.363   2.677 -1.0125 -0.2467  0.4537
13791TIP3    H262789   4.141   5.470   2.784 -0.8286  0.7746 -0.5559
13792TIP3   OH262790   3.001   2.878   4.050  0.6208  0.0802  0.1855
13792TIP3    H162791   3.051   2.797   4.039  1.9078  0.6920  1.2504
13792TIP3    H262792   2.914   2.849   4.079 -0.4028 -1.1122 -3.5875
13793TIP3   OH262793   2.282   1.370  10.976 -0.2933  0.7242 -0.1616
13793TIP3    H162794   2.263   1.460  10.950  0.3118  1.4007  1.6354
13793TIP3    H262795   2.197   1.335  11.004 -0.7122  0.3849 -1.7443
13794TIP3   OH262796   5.603   0.335   2.597  0.0085  0.3356 -0.3971
13794TIP3    H162797   5.599   0.246   2.633 -1.1417  0.2515 -0.6976
13794TIP3    H262798   5.694   0.345   2.569  0.6494 -0.0398  1.3827
13795TIP3   OH262799   2.587   0.036  10.370  0.0468  0.1855 -0.4646
13795TIP3    H162800   2.616   0.049  10.280 -0.0839 -0.2304 -0.5685
13795TIP3    H262801   2.573   0.125  10.403 -0.0704  0.3382 -0.9095
13796TIP3   OH262802   4.439   3.924   2.314  0.0693 -0.1046 -0.0660
13796TIP3    H162803   4.378   3.859   2.279  1.2043 -0.4038 -1.5920
13796TIP3    H262804   4.424   3.922   2.409  1.3694 -4.0802  0.2408
13797TIP3   OH262805   1.347   2.007  15.964  0.3360  0.0682  0.0401
13797TIP3    H162806   1.422   1.960  15.928  0.8986  0.3321  0.8241
13797TIP3    H262807   1.298   1.941  16.013  1.0913  0.2569  1.0892
13798TIP3   OH262808   0.014   1.345   1.011  0.3615  0.0787  0.5069
13798TIP3    H162809  -0.043   1.299   1.073  1.5554 -4.0517 -1.1487
13798TIP3    H262810  -0.043   1.410   0.970 -1.4858  0.1818  3.0321
13799TIP3   OH262811   6.067   6.241  13.280  0.0605  0.0963  0.1247
13799TIP3    H162812   6.003   6.226  13.211  0.6462 -0.4967 -0.2981
13799TIP3    H262813   6.147   6.200  13.248  0.5807  0.5979  0.7643
13800TIP3   OH262814   6.382   0.737  13.120 -0.2588 -0.3307 -0.0227
13800TIP3    H162815   6.372   0.738  13.215 -0.6462  1.2357 -0.0479
13800TIP3    H262816   6.302   0.778  13.087 -0.6160 -1.8084 -1.0975
13801TIP3   OH262817   2.599   3.931   1.148  0.0740 -0.4428  0.0789
13801TIP3    H162818   2.601   4.023   1.122 -0.8774 -0.3437  0.3028
13801TIP3    H262819   2.669   3.922   1.213 -0.8758  0.5174  1.2747
13802TIP3   OH262820   4.596   0.991   2.009 -0.0059  0.0830 -0.2898
13802TIP3    H162821   4.627   1.077   1.981  1.2776 -1.1601 -3.0002
13802TIP3    H262822   4.501   1.001   2.018  0.2193  1.9663  0.3389
13803TIP3   OH262823   5.075   6.015  16.302 -0.2780 -0.1140  0.2899
13803TIP3    H162824   5.070   5.947  16.234 -0.7853  0.4110 -0.2113
13803TIP3    H262825   5.047   6.095  16.258  0.7616  0.5292  0.7452
13804TIP3   OH262826   1.442   5.481   3.927 -0.0240  0.3966  0.2802
13804TIP3    H162827   1.383   5.449   3.859 -0.6115  2.4922 -0.2626
13804TIP3    H262828   1.446   5.575   3.913  2.8546  0.4406  0.7941
13805TIP3   OH262829   4.210   1.907   5.269 -0.4535  0.8338  0.2277
13805TIP3    H162830   4.294   1.949   5.289  0.3468 -0.0961 -1.0018
13805TIP3    H262831   4.198   1.843   5.339  0.6710 -0.1190 -0.4097
13806TIP3   OH262832   3.265   3.950  16.212  0.6229 -0.0525 -0.3131
13806TIP3    H162833   3.182   3.937  16.259  1.2669 -0.0796  0.8739
13806TIP3    H262834   3.290   4.040  16.233  1.5098 -0.4478  0.3994
13807TIP3   OH262835   3.334   4.313   2.588 -0.4650 -0.6269 -0.2366
13807TIP3    H162836   3.273   4.270   2.647 -0.6569  1.2312  1.0165
13807TIP3    H262837   3.281   4.340   2.513 -0.2891 -2.6810 -1.1716
13808TIP3   OH262838   4.057   3.649  10.466  0.0095 -0.2523 -0.7181
13808TIP3    H162839   4.114   3.609  10.532 -1.8203 -0.7797  0.6464
13808TIP3    H262840   4.073   3.743  10.473 -0.1815 -0.2984  0.5620
13809TIP3   OH262841   4.851   1.097   0.814  0.0680 -0.1872  0.2610
13809TIP3    H162842   4.939   1.078   0.847  1.3607  0.2567 -2.6500
13809TIP3    H262843   4.865   1.143   0.731 -2.9095 -0.6512 -0.6312
13810TIP3   OH262844   6.360   3.580  16.346  0.2389  0.9127 -0.5068
13810TIP3    H162845   6.447   3.544  16.330  1.0469  2.9047 -0.8373
13810TIP3    H262846   6.308   3.548  16.272 -1.1020 -5.1052  2.4000
13811TIP3   OH262847   4.371   3.866  10.717 -0.2215 -0.6514 -0.2578
13811TIP3    H162848   4.314   3.837  10.645  0.7268 -0.7513 -0.9834
13811TIP3    H262849   4.452   3.818  10.704  0.7919  1.0425 -0.4810
13812TIP3   OH262850   4.120   0.917  15.563 -0.1801  0.0882  0.4138
13812TIP3    H162851   4.070   0.973  15.504  1.6322  2.3532  0.8846
13812TIP3    H262852   4.171   0.860  15.504  0.4195  1.2284 -0.2070
13813TIP3   OH262853   0.030   0.178  13.424  0.2174  0.5738 -0.3054
13813TIP3    H162854   0.055   0.263  13.459  0.6965  0.4678 -0.3849
13813TIP3    H262855  -0.002   0.128  13.499 -0.4489  0.9562 -0.3243
13814TIP3   OH262856   5.161   2.439   4.807  0.0599  0.2622 -0.3855
13814TIP3    H162857   5.200   2.376   4.747  3.0248  1.2821  0.3046
13814TIP3    H262858   5.187   2.408   4.894  2.6117  2.8723 -0.0661
13815TIP3   OH262859   2.481   1.343   1.445  0.3905 -0.2254  0.4534
13815TIP3    H162860   2.575   1.363   1.438  0.0819  1.9622  1.5685
13815TIP3    H262861   2.459   1.366   1.535 -1.7661  2.0784 -0.5492
13816TIP3   OH262862   0.738   5.986   2.427  0.0565  0.0543 -0.0817
13816TIP3    H162863   0.699   6.047   2.489  1.4678  0.6063  0.3119
13816TIP3    H262864   0.764   5.911   2.479  1.4829  0.6296  0.0922
13817TIP3   OH262865   0.465   5.297  14.312 -0.4988 -0.4408  0.1025
13817TIP3    H162866   0.433   5.325  14.398 -1.2992  2.4267 -1.0169
13817TIP3    H262867   0.390   5.251  14.273 -1.1981  0.9196 -0.1928
13818TIP3   OH262868   2.919   1.062  15.163 -0.2461 -0.6810 -0.2772
13818TIP3    H162869   2.898   1.125  15.232 -0.6253 -1.9845  0.8338
13818TIP3    H262870   3.014   1.069  15.152 -0.2033 -0.3436  0.2522
13819TIP3   OH262871   1.003   1.471  14.540  0.8318 -0.6648 -0.0377
13819TIP3    H162872   1.000   1.532  14.467  1.1162  1.4047  1.5965
13819TIP3    H262873   0.925   1.417  14.530 -0.0070  0.6859 -0.9558
13820TIP3   OH262874   3.294   5.995  16.296 -0.3482 -0.4435  0.2274
13820TIP3    H162875   3.383   6.013  16.325 -0.5258  0.2688  0.3316
13820TIP3    H262876   3.282   6.051  16.219 -0.8751 -0.1589  0.5096
13821TIP3   OH262877   4.664   0.400   4.585 -0.4340  0.5565  0.3870
13821TIP3    H162878   4.612   0.394   4.505 -2.2952 -0.1832  1.5829
13821TIP3    H262879   4.606   0.441   4.648  0.8601  0.7694  1.4794
13822TIP3   OH262880   6.118   0.281   1.035  0.4383  0.0522  0.1389
13822TIP3    H162881   6.039   0.331   1.053 -0.9022 -2.1145  0.7117
13822TIP3    H262882   6.166   0.280   1.117  0.2712  0.0734  0.2371
13823TIP3   OH262883   0.767   5.781  10.879  0.3828 -0.0938 -0.0367
13823TIP3    H162884   0.696   5.743  10.931  0.2011  0.2711 -0.0133
13823TIP3    H262885   0.723   5.816  10.801  0.4741  0.5710  0.2098
13824TIP3   OH262886   0.638   0.594  10.994 -0.0608  0.2368 -0.4120
13824TIP3    H162887   0.675   0.511  11.025 -1.4740  0.3873  1.8558
13824TIP3    H262888   0.711   0.655  10.997  0.5076 -0.4422 -0.1161
13825TIP3   OH262889   3.139   2.941   2.058 -0.0852 -0.4613 -0.3371
13825TIP3    H162890   3.214   2.973   2.009  0.4328 -1.5286 -0.2687
13825TIP3    H262891   3.141   2.846   2.046 -1.1071 -0.5560  0.1108
13826TIP3   OH262892   1.305   2.402   6.048 -0.6667  0.1751 -0.7307
13826TIP3    H162893   1.258   2.372   5.970 -1.0779 -2.1850  0.3345
13826TIP3    H262894   1.398   2.393   6.025 -0.7867 -0.2562 -1.0515
13827TIP3   OH262895   5.035   6.120   1.794  0.4606  0.5912  0.5701
13827TIP3    H162896   5.107   6.172   1.760  0.1505  1.8054  1.6917
13827TIP3    H262897   5.021   6.052   1.728  2.4178  0.5063  0.1930
13828TIP3   OH262898   0.631   5.646   5.698  0.6547  0.4358 -0.1522
13828TIP3    H162899   0.571   5.626   5.626  0.1477  0.3028  0.3070
13828TIP3    H262900   0.585   5.618   5.777  1.5105 -0.1067  0.1708
13829TIP3   OH262901   2.907   1.953   6.388 -0.5451 -0.3598  0.4286
13829TIP3    H162902   2.983   1.896   6.391  0.6592  1.2066  1.0840
13829TIP3    H262903   2.848   1.918   6.456  0.4439 -0.4666  1.2511
13830TIP3   OH262904   1.551   1.291   1.561 -0.0444 -0.0292 -0.2993
13830TIP3    H162905   1.462   1.260   1.575 -0.0037 -0.3926 -0.8041
13830TIP3    H262906   1.569   1.348   1.635 -0.2577 -0.9114  0.4524
13831TIP3   OH262907   6.177   6.603   2.710  0.2687 -0.1536 -0.3591
13831TIP3    H162908   6.257   6.651   2.727 -0.2284  0.5820 -0.0516
13831TIP3    H262909   6.151   6.568   2.795 -0.5451  0.8996 -0.1537
13832TIP3   OH262910   3.807   5.670  12.703  0.4317 -0.0210  0.3951
13832TIP3    H162911   3.805   5.592  12.648  2.0264 -0.1110  0.4117
13832TIP3    H262912   3.875   5.652  12.768  1.2424  1.5813  0.0532
13833TIP3   OH262913   0.651   5.080  13.448  0.8560 -0.6251  0.3382
13833TIP3    H162914   0.615   5.166  13.427  0.3638 -0.7759  0.5330
13833TIP3    H262915   0.715   5.097  13.518  0.8349 -0.4072  0.3040
13834TIP3   OH262916   5.096   4.189   5.254 -0.8218  0.5352 -0.1989
13834TIP3    H162917   5.043   4.144   5.188 -0.9713  0.2247  0.1350
13834TIP3    H262918   5.123   4.120   5.314  0.1447  0.6485 -0.4872
13835TIP3   OH262919   5.717   3.677   0.200 -0.5408 -0.4563  0.5494
13835TIP3    H162920   5.723   3.673   0.105 -3.2908 -0.6935  0.3192
13835TIP3    H262921   5.662   3.753   0.218  0.5222  0.0274  2.0286
13836TIP3   OH262922   4.166   5.460  14.543 -0.0886  0.1611 -0.0527
13836TIP3    H162923   4.118   5.459  14.625  0.8971 -1.8231  0.5754
13836TIP3    H262924   4.253   5.494  14.566 -0.1714  0.7029 -0.5172
13837TIP3   OH262925   0.400   2.083   1.021 -0.2885 -0.2151 -0.3882
13837TIP3    H162926   0.414   2.041   1.106 -1.6997  0.9216  0.4546
13837TIP3    H262927   0.354   2.017   0.969 -1.9011 -0.0111  0.6965
13838TIP3   OH262928   4.636   1.119   4.391  0.3165 -0.0222 -0.4178
13838TIP3    H162929   4.596   1.109   4.305  0.5326  0.6787 -0.6096
13838TIP3    H262930   4.631   1.032   4.430 -2.7434  0.3365  0.1975
13839TIP3   OH262931   6.517   2.821  10.538  0.1175 -0.4192 -0.2062
13839TIP3    H162932   6.473   2.854  10.460 -1.8216  1.4355  1.5418
13839TIP3    H262933   6.464   2.747  10.567  1.3047 -1.6464 -1.0242
13840TIP3   OH262934   4.166   5.943   5.899 -0.1466  0.1397 -0.1311
13840TIP3    H162935   4.222   5.903   5.965  0.8494  0.4278 -0.7712
13840TIP3    H262936   4.082   5.954   5.942  0.3673 -0.0338  0.9596
13841TIP3   OH262937   4.921   2.563   4.816  0.0472  0.3351 -0.7789
13841TIP3    H162938   4.860   2.491   4.799  0.8603 -0.0505 -2.2364
13841TIP3    H262939   5.006   2.521   4.828  0.1326  0.8938  0.8447
13842TIP3   OH262940   0.653   1.826   0.357  0.2297 -0.4698 -0.1307
13842TIP3    H162941   0.703   1.854   0.281  0.4069  0.1907  0.2179
13842TIP3    H262942   0.600   1.903   0.381  0.9909 -0.2842  1.0620
13843TIP3   OH262943   5.017   2.981  11.502  0.2741  0.1803  0.4550
13843TIP3    H162944   5.030   3.038  11.578  1.4185  1.3614 -0.5753
13843TIP3    H262945   5.070   2.904  11.521  1.9635  1.2194  0.1400
13844TIP3   OH262946   2.718   6.152   2.823 -0.0901  0.0850 -0.0561
13844TIP3    H162947   2.732   6.155   2.729 -0.5153  1.5831 -0.0946
13844TIP3    H262948   2.624   6.163   2.835  0.1463  1.8135  0.5723
13845TIP3   OH262949   2.671   2.902  13.460 -0.3110  0.0741  0.8796
13845TIP3    H162950   2.714   2.844  13.397  0.6137  0.2352  1.3328
13845TIP3    H262951   2.616   2.960  13.407 -0.2488 -0.3801  0.3125
13846TIP3   OH262952   0.784   1.152  12.970 -0.1251 -0.3583  0.8097
13846TIP3    H162953   0.784   1.241  13.005  1.5622 -0.4379  1.0793
13846TIP3    H262954   0.766   1.164  12.876  0.5922  0.3186  0.7476
13847TIP3   OH262955   0.431   0.921  14.562  0.1194 -0.5319  0.3261
13847TIP3    H162956   0.456   0.891  14.475  2.9042  0.0058  0.8343
13847TIP3    H262957   0.444   0.845  14.618 -2.0799 -1.0043  0.2771
13848TIP3   OH262958   1.620   3.170  13.114  0.6032 -0.1861 -0.3340
13848TIP3    H162959   1.585   3.235  13.053 -0.3271 -0.5614 -0.2208
13848TIP3    H262960   1.666   3.221  13.181  2.4835  0.1863 -1.8376
13849TIP3   OH262961   4.478   6.595  11.221 -0.6406  0.3184 -0.0475
13849TIP3    H162962   4.519   6.595  11.308  0.5127  1.1723 -0.5758
13849TIP3    H262963   4.459   6.687  11.204  1.7397  0.5674 -1.8630
13850TIP3   OH262964   0.628   6.323  13.159 -0.1587  0.2119 -0.1918
13850TIP3    H162965   0.650   6.319  13.252 -1.8722  2.1372  0.3681
13850TIP3    H262966   0.713   6.323  13.114  0.7503  0.7008  1.4343
13851TIP3   OH262967   1.534   4.939  10.555 -1.0146  0.8501 -0.0284
13851TIP3    H162968   1.452   4.949  10.506 -1.2470  1.6568  0.4952
13851TIP3    H262969   1.587   4.881  10.501 -1.4412  1.3462 -1.0157
13852TIP3   OH262970   1.875   1.313   3.841  0.1833 -0.4479 -0.3484
13852TIP3    H162971   1.823   1.276   3.912  1.8621  0.1589  1.2675
13852TIP3    H262972   1.810   1.353   3.783 -1.2154 -0.2389  1.2663
13853TIP3   OH262973   4.840   2.882  12.407  0.2584  0.3937  0.2052
13853TIP3    H162974   4.885   2.860  12.326  0.8255  0.7525  0.4158
13853TIP3    H262975   4.816   2.797  12.445 -0.0609  0.2276 -0.3596
13854TIP3   OH262976   0.983   1.603  16.743  0.3170 -0.1627 -0.2741
13854TIP3    H162977   0.957   1.514  16.766 -0.1037 -0.3214 -1.3064
13854TIP3    H262978   1.071   1.595  16.708  0.3696 -0.1366 -0.1487
13855TIP3   OH262979   6.366   5.701  12.674  0.0220  0.2310  0.2396
13855TIP3    H162980   6.426   5.636  12.710 -0.4540 -0.8514 -0.8276
13855TIP3    H262981   6.279   5.671  12.703 -0.0374  2.1529  2.3505
13856TIP3   OH262982   0.922   2.309   3.996 -0.2501 -0.2383  0.3969
13856TIP3    H162983   0.844   2.286   4.047  0.3800  0.9350  1.9704
13856TIP3    H262984   0.902   2.395   3.960 -1.4985 -1.8040 -3.1759
13857TIP3   OH262985   2.039   5.191   2.644  0.2334  0.3533  0.1461
13857TIP3    H162986   1.968   5.187   2.708  1.2236  0.1216  1.2620
13857TIP3    H262987   2.078   5.277   2.656  0.5853  0.2118  0.0333
13858TIP3   OH262988   6.785   2.466  11.089 -0.1299  0.4431 -0.4050
13858TIP3    H162989   6.731   2.416  11.027 -0.4455 -0.4153  0.5296
13858TIP3    H262990   6.801   2.405  11.161  0.7433  1.2202  0.0864
13859TIP3   OH262991   3.027   4.274   0.557  0.4284 -0.1211 -0.4517
13859TIP3    H162992   2.981   4.316   0.484  1.0134  0.7984 -0.3156
13859TIP3    H262993   3.118   4.267   0.527  0.6215  0.0284  0.0812
13860TIP3   OH262994   1.842   2.680  15.895  0.1560  0.4047  0.5940
13860TIP3    H162995   1.795   2.599  15.911 -1.8888  1.0160 -1.6941
13860TIP3    H262996   1.913   2.680  15.959 -0.2926 -2.7260  1.2293
13861TIP3   OH262997   6.353   6.022  15.024  0.5466 -0.2653  0.1961
13861TIP3    H162998   6.280   5.965  15.001  0.8675 -0.8020  0.4752
13861TIP3    H262999   6.312   6.102  15.056  0.0896  0.1074 -1.2527
13862TIP3   OH263000   5.622   6.085   0.216  0.0572  0.2071  0.3362
13862TIP3    H163001   5.706   6.045   0.240 -0.1673  0.9003  2.5557
13862TIP3    H263002   5.557   6.017   0.234 -0.1478  0.8460  2.3168
13863TIP3   OH263003   6.169   2.224  14.561 -0.1291  0.0503  0.4344
13863TIP3    H163004   6.217   2.306  14.572  1.2786 -0.5164 -1.0000
13863TIP3    H263005   6.101   2.226  14.629  0.6938  1.7913  1.2703
13864TIP3   OH263006   5.319   1.455   0.969 -0.1589 -0.1967  0.6537
13864TIP3    H163007   5.295   1.546   0.951 -1.8510  0.0421  3.4956
13864TIP3    H263008   5.405   1.461   1.012  0.7206 -0.1995 -1.0147
13865TIP3   OH263009   3.531   0.163  11.844  0.6737  0.5815  0.2320
13865TIP3    H163010   3.447   0.186  11.805  1.8922  1.2055 -2.1810
13865TIP3    H263011   3.548   0.233  11.907  0.3897  1.7005 -0.8979
13866TIP3   OH263012   2.384   4.115  14.324 -0.0436 -0.2591  0.3533
13866TIP3    H163013   2.293   4.094  14.303  0.3216 -0.2255 -1.3788
13866TIP3    H263014   2.390   4.210  14.313 -0.1708 -0.0052  2.1099
13867TIP3   OH263015   4.691   2.182   4.594 -0.1343  0.2300 -0.3034
13867TIP3    H163016   4.724   2.143   4.675  1.3447 -0.0673 -1.0043
13867TIP3    H263017   4.705   2.276   4.604  0.8566  0.1200 -0.5297
13868TIP3   OH263018   5.100   4.046  14.767 -0.2638 -0.0077 -0.3125
13868TIP3    H163019   5.094   4.092  14.851 -1.7673  1.5952 -1.2164
13868TIP3    H263020   5.029   3.981  14.770 -2.6141  2.3098 -1.5244
13869TIP3   OH263021   2.144   1.657   0.566 -0.6906 -0.4736 -0.3167
13869TIP3    H163022   2.155   1.746   0.600  0.9605 -1.1926  1.2091
13869TIP3    H263023   2.132   1.602   0.644 -0.4716 -1.7456 -1.1418
13870TIP3   OH263024   5.378   3.310   1.280  0.2462  0.3276 -0.0928
13870TIP3    H163025   5.371   3.270   1.193  0.5344  0.1785 -0.0504
13870TIP3    H263026   5.288   3.318   1.310  0.0555  1.3725 -0.8530
13871TIP3   OH263027   5.756   2.415   2.976 -0.6035  0.2200  0.2240
13871TIP3    H163028   5.781   2.391   2.886  0.5524 -0.7435  0.7753
13871TIP3    H263029   5.667   2.449   2.968 -1.1559 -1.4118 -1.0617
13872TIP3   OH263030   0.161   0.906   1.617  0.1632 -0.7709 -0.2428
13872TIP3    H163031   0.221   0.875   1.686 -0.8486 -0.1343  0.9648
13872TIP3    H263032   0.219   0.935   1.547  1.3571  0.8590  1.3140
13873TIP3   OH263033   2.137   2.162  13.960 -0.2674 -0.4456 -0.1189
13873TIP3    H163034   2.167   2.213  14.035 -0.1209  0.5264 -0.8129
13873TIP3    H263035   2.042   2.157  13.970 -0.5548  1.8275 -1.1257
13874TIP3   OH263036   4.068   2.654  14.217 -0.7223  0.3292 -0.3269
13874TIP3    H163037   4.125   2.589  14.259 -1.1733  0.0993 -0.0670
13874TIP3    H263038   4.126   2.729  14.201 -0.3149  0.0521 -0.1847
13875TIP3   OH263039   6.019   5.029  13.238  0.2124 -0.2122 -0.2391
13875TIP3    H163040   5.934   5.069  13.221  1.0661  1.8248 -0.1156
13875TIP3    H263041   5.999   4.939  13.265 -2.1591  1.0022  2.7532
13876TIP3   OH263042   4.385   3.288  14.713 -0.1275 -0.0403 -0.0446
13876TIP3    H163043   4.353   3.279  14.803  2.4823  1.7362  1.1990
13876TIP3    H263044   4.474   3.254  14.717  0.0225  0.0277 -2.0022
13877TIP3   OH263045   1.091   2.560  11.094  0.2696  0.5354  0.0527
13877TIP3    H163046   1.026   2.630  11.107  1.5835  1.7417  0.4627
13877TIP3    H263047   1.162   2.584  11.153  0.9755 -0.8959 -0.1970
13878TIP3   OH263048   5.052   0.534   4.138  0.5690  0.2883 -0.0595
13878TIP3    H163049   5.093   0.604   4.189  2.2432 -0.4701 -0.2715
13878TIP3    H263050   5.055   0.458   4.196 -0.5697  0.2021 -0.0963
13879TIP3   OH263051   4.259   3.597   1.956 -0.2696 -0.1031  0.1804
13879TIP3    H163052   4.286   3.514   1.995  0.4072  0.6754  1.4507
13879TIP3    H263053   4.237   3.653   2.032 -1.1635  0.7280 -0.6584
13880TIP3   OH263054   4.351   0.229   3.137 -0.8188 -0.5028  0.1129
13880TIP3    H163055   4.408   0.194   3.206  0.0304 -0.1707 -0.4117
13880TIP3    H263056   4.288   0.159   3.121  0.1483 -1.3513 -0.1066
13881TIP3   OH263057   3.674   2.784  14.903 -0.0480  0.5627  0.5708
13881TIP3    H163058   3.661   2.876  14.923 -1.2439  0.7440 -0.8648
13881TIP3    H263059   3.631   2.772  14.818  1.0038 -1.0749  0.2326
13882TIP3   OH263060   6.264   1.351   4.786 -0.2478  0.2976  0.8204
13882TIP3    H163061   6.180   1.373   4.826  0.3319  2.2424  1.0650
13882TIP3    H263062   6.330   1.384   4.848  0.7705 -2.3429  1.2830
13883TIP3   OH263063   1.011   5.647  13.421 -0.4807  0.0915 -0.0601
13883TIP3    H163064   1.045   5.617  13.337 -0.1883  1.6295 -0.5361
13883TIP3    H263065   0.921   5.615  13.424 -0.7679  0.7160 -1.3630
13884TIP3   OH263066   1.597   3.541   1.026 -0.1684 -0.3497 -0.5452
13884TIP3    H163067   1.585   3.472   1.091 -0.4351 -0.0783 -0.3036
13884TIP3    H263068   1.566   3.503   0.944  2.6004 -1.6552 -1.1094
13885TIP3   OH263069   6.563   6.622  14.534  0.2006 -0.0206  0.4343
13885TIP3    H163070   6.647   6.581  14.512  0.8660  1.9571 -1.0369
13885TIP3    H263071   6.564   6.627  14.630  0.6758 -2.1089  0.5883
13886TIP3   OH263072   2.619   3.859   1.572  0.0968 -0.4125 -0.0157
13886TIP3    H163073   2.572   3.941   1.582 -0.4168 -0.8227  1.1400
13886TIP3    H263074   2.569   3.811   1.506  0.6757  0.3725 -1.0556
13887TIP3   OH263075   0.822   2.127  16.178 -0.4883 -0.3514  0.5768
13887TIP3    H163076   0.802   2.038  16.208 -0.9448 -0.7992 -0.9426
13887TIP3    H263077   0.908   2.146  16.215 -0.3178 -1.4913  0.8211
13888TIP3   OH263078   5.860   2.877   2.891 -0.3537  0.0197 -0.0559
13888TIP3    H163079   5.851   2.967   2.861 -0.7927  0.1999  0.5935
13888TIP3    H263080   5.800   2.870   2.966  0.5640 -0.4584  0.6661
13889TIP3   OH263081   0.181   1.603  15.644 -0.4380  0.6831 -0.2872
13889TIP3    H163082   0.130   1.680  15.619  0.8475  1.7000  0.1102
13889TIP3    H263083   0.270   1.636  15.658 -0.2736 -0.4782  1.8857
13890TIP3   OH263084   0.299   6.390   1.604  0.5794 -0.0669  0.5780
13890TIP3    H163085   0.242   6.389   1.681 -0.8378  0.1560 -0.4241
13890TIP3    H263086   0.385   6.412   1.638 -0.1468  0.6803  2.0207
13891TIP3   OH263087   2.201   0.735   1.251 -0.3648 -0.2241  0.3535
13891TIP3    H163088   2.216   0.828   1.232 -2.0104  0.4019  1.8888
13891TIP3    H263089   2.187   0.695   1.165  0.0967  0.9866 -0.3079
13892TIP3   OH263090   2.233   1.345  11.345  0.0989 -0.1712  0.2891
13892TIP3    H163091   2.193   1.322  11.261 -1.1428 -0.9152  1.0635
13892TIP3    H263092   2.247   1.440  11.339 -1.3315  0.0358 -0.2071
13893TIP3   OH263093   4.218   4.639   3.720 -0.4365 -0.2217 -0.1451
13893TIP3    H163094   4.154   4.701   3.684  2.0594  2.0525 -1.0261
13893TIP3    H263095   4.166   4.579   3.773 -3.2251  1.7491 -0.4134
13894TIP3   OH263096   4.727   6.149   1.818 -0.1020 -0.3985  0.0742
13894TIP3    H163097   4.820   6.133   1.828 -0.0264 -0.5281 -0.7910
13894TIP3    H263098   4.692   6.068   1.781 -0.5893 -0.4173  0.5616
13895TIP3   OH263099   3.268   2.452   5.542 -0.7964  0.1040 -0.2292
13895TIP3    H163100   3.235   2.514   5.606 -0.8947 -1.4949  1.3245
13895TIP3    H263101   3.224   2.369   5.563  1.6268 -1.2723 -0.2119
13896TIP3   OH263102   4.367   0.684   4.409  0.1998 -0.4939 -0.1043
13896TIP3    H163103   4.357   0.745   4.482 -0.7631 -1.7926  0.9146
13896TIP3    H263104   4.324   0.603   4.440  0.4695 -1.3293 -1.8079
13897TIP3   OH263105   2.840   4.628   4.487  0.4565 -0.0593  0.2311
13897TIP3    H163106   2.828   4.661   4.398  1.6286  0.1274  0.1213
13897TIP3    H263107   2.903   4.556   4.477  0.1316 -0.4352  0.8352
13898TIP3   OH263108   6.502   4.319   4.867  0.6985  0.2789 -0.2948
13898TIP3    H163109   6.503   4.338   4.774 -2.1982  2.6248  0.0071
13898TIP3    H263110   6.525   4.401   4.910  1.1539 -0.5263  1.1054
13899TIP3   OH263111   0.307   1.572   4.823  0.0735  0.2255 -0.0638
13899TIP3    H163112   0.375   1.638   4.837 -0.4335  0.1495  3.6376
13899TIP3    H263113   0.231   1.622   4.793  0.5315  0.9325 -0.0766
13900TIP3   OH263114   2.845   5.391   1.918 -0.4946  0.5501  0.4620
13900TIP3    H163115   2.902   5.321   1.886 -0.3811 -2.0051  5.3790
13900TIP3    H263116   2.766   5.385   1.864  1.1293 -0.4450 -1.9555
13901TIP3   OH263117   5.789   1.089   4.511  0.0876  0.6983 -0.1841
13901TIP3    H163118   5.815   1.096   4.603  0.3630  0.1137 -0.2104
13901TIP3    H263119   5.865   1.049   4.469 -0.2411  0.4810 -0.5678
13902TIP3   OH263120   2.449   5.725  16.817 -0.5192 -0.1310  0.5760
13902TIP3    H163121   2.379   5.736  16.882 -0.4998  0.4114  0.5101
13902TIP3    H263122   2.467   5.814  16.786 -0.9681 -0.4346 -0.6301
13903TIP3   OH263123   3.495   1.414  16.852 -0.7156 -0.3936 -0.3975
13903TIP3    H163124   3.409   1.438  16.886 -0.0257  1.7142  0.0062
13903TIP3    H263125   3.478   1.338  16.797 -2.7165 -0.4820  0.2515
13904TIP3   OH263126   4.724   3.549   4.271  0.0532 -0.0333 -0.0319
13904TIP3    H163127   4.740   3.550   4.366 -1.1077  1.8877  0.1965
13904TIP3    H263128   4.785   3.613   4.236 -0.5895  0.4023 -0.3688
13905TIP3   OH263129   6.398   5.163  13.376  0.3289 -0.5088 -0.7320
13905TIP3    H163130   6.476   5.129  13.421 -0.3697 -2.4217 -0.8493
13905TIP3    H263131   6.393   5.111  13.295 -0.7263  0.0061 -1.0111
13906TIP3   OH263132   0.718   0.884  12.937  0.2478  0.5046  0.2548
13906TIP3    H163133   0.628   0.862  12.960  0.0661  1.7439  0.8309
13906TIP3    H263134   0.743   0.952  12.999  0.6439  2.0932 -1.5236
13907TIP3   OH263135   2.704   1.326   1.912  0.0285 -0.2401  0.4800
13907TIP3    H163136   2.689   1.263   1.982 -1.8638 -0.9577 -0.5033
13907TIP3    H263137   2.628   1.384   1.916  1.1590  1.3235  0.6079
13908TIP3   OH263138   0.242   0.241   5.472 -0.0120 -0.0397 -0.3354
13908TIP3    H163139   0.315   0.188   5.505 -0.2671 -0.0641  0.2000
13908TIP3    H263140   0.272   0.272   5.387  0.4709 -0.3685 -0.2918
13909TIP3   OH263141   0.532   1.435   6.071 -0.3668  0.0107  0.5485
13909TIP3    H163142   0.442   1.469   6.074 -0.5507 -0.2513 -1.0201
13909TIP3    H263143   0.572   1.480   5.997  0.2578 -1.1316  0.1693
13910TIP3   OH263144   4.534   3.906   1.148  0.3102 -0.0557 -0.0959
13910TIP3    H163145   4.602   3.972   1.131  0.5852  0.0099  1.1452
13910TIP3    H263146   4.556   3.871   1.234 -2.0777  1.0600  1.0735
13911TIP3   OH263147   5.057   5.628   3.846 -0.0363  0.2276 -0.4963
13911TIP3    H163148   5.151   5.644   3.861  0.1035 -0.4536 -0.6246
13911TIP3    H263149   5.016   5.650   3.930  0.4432 -1.0764  0.1099
13912TIP3   OH263150   2.942   3.378   5.398  0.9867 -0.1217 -0.5647
13912TIP3    H163151   3.008   3.384   5.329 -2.1715  1.1091 -3.8136
13912TIP3    H263152   2.903   3.291   5.386 -0.1695  0.4329 -1.0428
13913TIP3   OH263153   5.830   6.674   3.545  0.2567  0.5273 -0.0253
13913TIP3    H163154   5.791   6.610   3.486 -0.4333 -1.1220  2.0647
13913TIP3    H263155   5.925   6.660   3.537  0.1145 -0.9013  0.4823
13914TIP3   OH263156   0.552   0.987  15.542  0.4793  0.4196 -0.6766
13914TIP3    H163157   0.631   0.934  15.537  1.6810  1.9354  0.8651
13914TIP3    H263158   0.570   1.064  15.488  0.5082  1.2496  0.4661
13915TIP3   OH263159   3.825   4.666  12.884  0.6974  0.5183 -1.1559
13915TIP3    H163160   3.733   4.672  12.856  0.5105  1.0177 -0.4710
13915TIP3    H263161   3.872   4.637  12.806  0.1373  1.4389 -1.8591
13916TIP3   OH263162   3.004   2.426  13.897  0.0715  0.1589  0.2042
13916TIP3    H163163   2.925   2.390  13.939  0.9691  0.4802  2.3265
13916TIP3    H263164   2.998   2.398  13.806 -1.6782 -1.2193  0.6862
13917TIP3   OH263165   3.665   6.780  12.957 -0.1157  0.6004 -0.2608
13917TIP3    H163166   3.643   6.687  12.965  0.5480  0.2749 -1.9258
13917TIP3    H263167   3.654   6.800  12.864  0.8538  1.9006 -0.1239
13918TIP3   OH263168   0.203   3.274   5.960  0.2419  0.2767  0.1898
13918TIP3    H163169   0.153   3.263   6.041  1.0815  2.9417  1.1477
13918TIP3    H263170   0.136   3.277   5.891 -0.4634 -2.3925  0.6131
13919TIP3   OH263171   5.426   6.106   4.563 -0.4769 -0.1759 -0.5690
13919TIP3    H163172   5.457   6.123   4.473 -1.2482 -0.0802 -0.8205
13919TIP3    H263173   5.502   6.125   4.618  0.3330 -1.2057 -1.2715
13920TIP3   OH263174   1.153   1.759   5.597 -0.1156 -0.2111  0.1550
13920TIP3    H163175   1.151   1.787   5.688 -0.9613 -0.1549  0.1281
13920TIP3    H263176   1.169   1.839   5.547 -2.2946  0.2657  0.0935
13921TIP3   OH263177   3.833   5.255   3.808  0.4698  0.5836 -0.2353
13921TIP3    H163178   3.906   5.223   3.861  0.0381 -0.1676 -0.0801
13921TIP3    H263179   3.757   5.206   3.840 -0.0611  1.1977 -0.5435
13922TIP3   OH263180   6.340   3.716  12.368  0.8896 -0.4482 -0.1093
13922TIP3    H163181   6.380   3.781  12.426  2.0645 -1.4900  0.3014
13922TIP3    H263182   6.334   3.760  12.283  0.2033  0.7120  0.5189
13923TIP3   OH263183   3.710   3.373  14.371  0.6040 -0.3446 -0.0348
13923TIP3    H163184   3.712   3.381  14.466  2.0165  1.2273 -0.1570
13923TIP3    H263185   3.780   3.430  14.340 -0.6204  0.1550 -2.0867
13924TIP3   OH263186   4.988   1.489  10.253  0.3947  0.2657 -0.5485
13924TIP3    H163187   4.950   1.417  10.202 -0.2247 -0.0298  0.2929
13924TIP3    H263188   5.082   1.479  10.243  0.2752  0.5632 -2.0886
13925TIP3   OH263189   0.151   5.619  16.877 -0.4936 -0.5489  0.0186
13925TIP3    H163190   0.188   5.613  16.966  0.4571 -0.3938 -0.3550
13925TIP3    H263191   0.155   5.712  16.856 -1.7958 -0.4187  0.2380
13926TIP3   OH263192   6.027   6.751  10.526 -0.0648  0.0203 -0.5858
13926TIP3    H163193   6.109   6.736  10.573  0.1846 -2.4108 -1.6737
13926TIP3    H263194   6.022   6.680  10.463 -2.6675  0.5285 -1.0551
13927TIP3   OH263195   4.778   1.906   1.321  0.4202 -0.2610 -0.1493
13927TIP3    H163196   4.702   1.955   1.289  0.2062 -1.2999 -1.3108
13927TIP3    H263197   4.757   1.887   1.413 -0.3668  0.1171 -0.2379
13928TIP3   OH263198   0.027   4.106  14.898  0.1276 -0.6473  0.0383
13928TIP3    H163199  -0.066   4.083  14.903 -0.5661  2.0382  2.0255
13928TIP3    H263200   0.063   4.079  14.982  1.2691 -1.9280 -0.8251
13929TIP3   OH263201   1.046   4.020  17.083  0.0730  0.7178  0.5250
13929TIP3    H163202   1.015   4.095  17.134  0.3774  0.5750  0.9269
13929TIP3    H263203   0.968   3.985  17.041 -0.2063  0.7545  1.0077
13930TIP3   OH263204   4.436   2.886   1.712  0.1119  0.4445  0.1286
13930TIP3    H163205   4.361   2.877   1.652  0.2409  2.4275 -0.3977
13930TIP3    H263206   4.512   2.892   1.655  0.6156 -0.7163  0.6397
13931TIP3   OH263207   1.497   6.462  14.921 -0.1541  0.7083  0.5193
13931TIP3    H163208   1.525   6.520  14.991 -1.6537 -0.8484  2.5404
13931TIP3    H263209   1.566   6.396  14.915  0.6756  1.6335 -0.5349
13932TIP3   OH263210   5.760   0.315   5.245  0.2130  0.4824  0.1051
13932TIP3    H163211   5.709   0.372   5.303 -0.1800 -1.2789  1.5646
13932TIP3    H263212   5.838   0.293   5.294  0.2684 -0.3934 -0.3512
13933TIP3   OH263213   4.477   0.076   2.804  0.3932 -0.0317  0.1762
13933TIP3    H163214   4.521  -0.002   2.835 -0.8299 -1.2863 -1.0733
13933TIP3    H263215   4.545   0.128   2.761  0.7535 -1.8350 -1.5604
13934TIP3   OH263216   4.670   1.688   4.821  0.0631  0.0104  0.0582
13934TIP3    H163217   4.633   1.600   4.810  0.6907 -0.3574  0.8072
13934TIP3    H263218   4.696   1.692   4.913 -0.7553  1.3097  0.2451
13935TIP3   OH263219   4.471   5.237   2.426  0.0537 -0.0898  0.0079
13935TIP3    H163220   4.475   5.309   2.489 -1.8587  0.4726 -0.4388
13935TIP3    H263221   4.384   5.245   2.386  0.3799 -1.7442 -1.1414
13936TIP3   OH263222   3.903   0.135  13.022  0.3778  0.2471  0.0168
13936TIP3    H163223   3.825   0.081  13.005  0.0068  0.8838 -0.3164
13936TIP3    H263224   3.968   0.104  12.959 -0.6578  1.9079 -1.9806
13937TIP3   OH263225   6.388   4.443   3.569 -0.1132  0.1995 -0.0130
13937TIP3    H163226   6.296   4.451   3.596 -0.3422 -1.3533 -0.2461
13937TIP3    H263227   6.437   4.486   3.639 -1.0117  1.1640  0.0523
13938TIP3   OH263228   5.376   0.945  16.541 -0.1398 -0.0107  0.5103
13938TIP3    H163229   5.397   0.976  16.629  0.9132  0.3421  0.1509
13938TIP3    H263230   5.418   1.008  16.482 -0.7109 -0.3210 -0.2441
13939TIP3   OH263231   2.061   6.775   0.524 -0.9101 -0.3602 -0.6404
13939TIP3    H163232   2.118   6.803   0.453 -1.1111 -2.8198 -1.8862
13939TIP3    H263233   1.972   6.779   0.488 -1.1734 -0.0965  0.0153
13940TIP3   OH263234   5.647   3.392   0.998  0.3069 -0.2627  0.4913
13940TIP3    H163235   5.682   3.352   1.078 -0.9588 -0.6970  0.8578
13940TIP3    H263236   5.554   3.405   1.017  0.0322 -0.1756 -0.8371
13941TIP3   OH263237   0.930   5.093   1.212  0.4866 -0.0340 -0.0588
13941TIP3    H163238   0.905   5.058   1.297  0.9479 -0.9171 -0.2720
13941TIP3    H263239   0.962   5.017   1.163  0.9139  0.5799 -0.7619
13942TIP3   OH263240   1.413   3.394   3.437 -0.2356 -0.5438  0.2715
13942TIP3    H163241   1.372   3.470   3.396  0.6595 -0.4693 -0.5182
13942TIP3    H263242   1.447   3.427   3.520 -0.7080 -0.3200  0.3793
13943TIP3   OH263243   6.805   1.542   3.349  0.4928  0.7260  0.1359
13943TIP3    H163244   6.859   1.464   3.360 -0.8127 -0.3280 -0.6637
13943TIP3    H263245   6.717   1.515   3.375 -0.2990  1.4594 -1.5738
13944TIP3   OH263246   5.938   6.054   4.407  0.5454 -0.0993  0.7078
13944TIP3    H163247   6.032   6.041   4.395  0.7096  1.9373 -0.8933
13944TIP3    H263248   5.927   6.072   4.500  1.4272 -2.1876  1.2751
13945TIP3   OH263249   4.712   4.000   5.310  0.0723  0.4283 -0.3352
13945TIP3    H163250   4.762   4.026   5.388 -1.1310  0.3827  0.4858
13945TIP3    H263251   4.674   3.915   5.334  0.0339  0.2057 -1.1494
13946TIP3   OH263252   5.992   2.805   4.313  0.1090 -0.0288 -0.0773
13946TIP3    H163253   6.073   2.849   4.286  0.0506  0.4811  0.5672
13946TIP3    H263254   5.930   2.876   4.329 -0.4270 -0.4138 -0.4223
13947TIP3   OH263255   0.617   1.597  10.814  0.2075 -0.5437  0.1122
13947TIP3    H163256   0.677   1.524  10.794  0.5780 -0.7042  1.6560
13947TIP3    H263257   0.674   1.665  10.849 -0.3181 -0.0597  0.0333
13948TIP3   OH263258   0.016   0.087   5.659 -0.1124 -0.0568 -0.1298
13948TIP3    H163259   0.034  -0.002   5.632 -0.2113 -0.0909 -0.0839
13948TIP3    H263260  -0.079   0.092   5.665 -0.0722 -1.0464  3.5235
13949TIP3   OH263261   2.780   6.727   4.316 -0.4729  0.2873  0.1053
13949TIP3    H163262   2.711   6.773   4.269 -0.1844  2.6864  1.8228
13949TIP3    H263263   2.734   6.676   4.382 -0.6833  0.4784  0.1071
13950TIP3   OH263264   1.742   6.269   5.251  0.0575  0.0844  0.1484
13950TIP3    H163265   1.794   6.255   5.330 -0.0727  2.7113  0.8116
13950TIP3    H263266   1.734   6.365   5.244 -2.6352 -0.1254 -1.2693
13951TIP3   OH263267   5.899   6.154   4.128  0.4572 -0.6414  0.3633
13951TIP3    H163268   5.909   6.250   4.126 -0.2091 -0.5537  0.8027
13951TIP3    H263269   5.911   6.130   4.219 -1.7691 -0.6701  0.7130
13952TIP3   OH263270   2.486   4.570   3.825  0.6002 -0.0597  0.2906
13952TIP3    H163271   2.570   4.527   3.843  1.0958  0.7781  0.0272
13952TIP3    H263272   2.473   4.560   3.731 -0.0734 -1.0152  0.4708
13953TIP3   OH263273   5.271   3.697  15.232 -0.1937  0.5498 -0.5802
13953TIP3    H163274   5.257   3.605  15.210  0.1652  0.3760 -0.1123
13953TIP3    H263275   5.315   3.734  15.155 -0.9843  0.5062 -1.0563
13954TIP3   OH263276   2.509   4.745  12.935 -0.3217  0.0001 -0.2251
13954TIP3    H163277   2.491   4.778  13.023  0.6611  1.8527 -0.6625
13954TIP3    H263278   2.592   4.699  12.942  0.6271  1.6001 -0.4616
13955TIP3   OH263279   6.149   5.399   3.656  0.0294 -0.3724  0.1744
13955TIP3    H163280   6.128   5.470   3.716 -0.8471 -0.6377  0.1875
13955TIP3    H263281   6.109   5.321   3.694 -0.0232 -0.6558 -0.4397
13956TIP3   OH263282   6.380   6.300  10.860 -0.2664  0.2959 -0.2966
13956TIP3    H163283   6.438   6.224  10.860  1.5680  1.5896  1.7627
13956TIP3    H263284   6.348   6.307  10.950 -3.2514  0.0176 -1.1961
13957TIP3   OH263285   3.835   6.596  11.722  0.6368  0.1232  0.4426
13957TIP3    H163286   3.753   6.625  11.762  0.4239  0.8755 -0.5174
13957TIP3    H263287   3.858   6.517  11.771  0.2265  0.8360  1.8523
13958TIP3   OH263288   1.258   0.674   5.143  0.2967  0.3632 -0.0757
13958TIP3    H163289   1.257   0.744   5.209 -2.4221 -0.7040  1.1284
13958TIP3    H263290   1.343   0.631   5.156  0.9551  1.8392  0.8666
13959TIP3   OH263291   2.163   3.070  14.856  0.3396  0.5560  0.4237
13959TIP3    H163292   2.183   2.984  14.819  1.9375  2.0677 -2.6144
13959TIP3    H263293   2.241   3.093  14.906  0.5546  0.8413 -0.0365
13960TIP3   OH263294   3.472   5.420  14.566 -0.3185 -0.1740 -0.6134
13960TIP3    H163295   3.485   5.506  14.605 -0.4190 -0.5577  0.2891
13960TIP3    H263296   3.549   5.369  14.590 -0.6043 -0.5653 -0.5028
13961TIP3   OH263297   5.040   5.610   3.284 -0.2874  0.2574 -0.2886
13961TIP3    H163298   5.100   5.607   3.209 -1.0724  0.8017 -0.9618
13961TIP3    H263299   5.069   5.686   3.335 -0.0639  0.1900 -0.3139
13962TIP3   OH263300   1.798   2.764   0.471 -0.0897 -0.4914 -0.5298
13962TIP3    H163301   1.847   2.691   0.510  1.2230  0.7568  0.2255
13962TIP3    H263302   1.711   2.758   0.512 -0.4815 -2.4364 -1.5227
13963TIP3   OH263303   4.352   0.754  15.055 -0.0052  0.0144  0.8098
13963TIP3    H163304   4.395   0.718  15.133 -1.5875 -1.5350  1.0449
13963TIP3    H263305   4.293   0.821  15.088 -1.7947 -1.6717  1.2052
13964TIP3   OH263306   5.406   1.080   3.887  0.1232  0.7429  0.2550
13964TIP3    H163307   5.341   1.090   3.957 -0.6761  0.6926 -0.4607
13964TIP3    H263308   5.359   1.104   3.808  0.3769 -1.2649 -0.5617
13965TIP3   OH263309   3.206   1.518  10.190 -0.0445  0.1430  0.1687
13965TIP3    H163310   3.166   1.512  10.277  0.2119 -1.7509  0.2070
13965TIP3    H263311   3.256   1.436  10.181  0.2702  0.4866 -1.5932
13966TIP3   OH263312   1.543   2.699  14.330 -0.2194 -0.2931 -0.5651
13966TIP3    H163313   1.629   2.708  14.372 -0.9105 -1.3847  1.1721
13966TIP3    H263314   1.495   2.778  14.356 -0.9140 -1.3304  1.4374
13967TIP3   OH263315   3.488   1.932  15.137 -0.4006 -0.6351 -0.8016
13967TIP3    H163316   3.456   1.940  15.047  0.5223  0.7037 -1.0399
13967TIP3    H263317   3.579   1.962  15.133 -0.2201 -0.9431  0.5027
13968TIP3   OH263318   5.280   6.543  10.942 -0.4643 -0.2323  0.4828
13968TIP3    H163319   5.196   6.500  10.959 -1.2995  0.2957 -1.8752
13968TIP3    H263320   5.305   6.512  10.855  0.6620  1.3057  0.2140
13969TIP3   OH263321   2.967   5.536   0.654 -0.4206  0.0072  0.5012
13969TIP3    H163322   2.873   5.522   0.638 -0.4104  0.8305 -0.3825
13969TIP3    H263323   2.976   5.632   0.656  0.5130 -0.0580 -0.1148
13970TIP3   OH263324   4.044   4.015   4.126 -0.6227 -0.8921 -0.4263
13970TIP3    H163325   4.071   3.925   4.144  0.7945 -0.6561 -1.2332
13970TIP3    H263326   4.044   4.022   4.030 -1.5370 -0.2562 -0.4006
13971TIP3   OH263327   0.795   3.582   3.713 -0.4410  0.0908 -0.2573
13971TIP3    H163328   0.740   3.507   3.691 -0.4567  0.0248 -0.0075
13971TIP3    H263329   0.829   3.613   3.630 -1.5286  0.6596 -0.5149
13972TIP3   OH263330   4.378   3.903  14.531  0.0880  0.2192 -0.6889
13972TIP3    H163331   4.304   3.956  14.501  0.4770  2.2070  1.4995
13972TIP3    H263332   4.450   3.929  14.473  0.1241  1.7399 -0.0229
13973TIP3   OH263333   2.020   3.148   5.497  0.3634  0.8055 -0.1325
13973TIP3    H163334   1.997   3.055   5.504 -1.6865  1.2731 -0.0291
13973TIP3    H263335   2.015   3.167   5.403 -0.6533  1.1096 -0.0325
13974TIP3   OH263336   0.703   5.641   1.459  0.0583 -0.2558 -0.1251
13974TIP3    H163337   0.742   5.685   1.535 -3.0071 -0.1426  1.5507
13974TIP3    H263338   0.649   5.707   1.417 -0.8835 -1.1702 -0.4135
13975TIP3   OH263339   2.684   1.779  11.960 -0.1400  0.3354 -0.2913
13975TIP3    H163340   2.643   1.779  11.874 -0.6185 -1.0345 -0.0936
13975TIP3    H263341   2.773   1.747  11.945 -0.7368 -1.4858 -0.0852
13976TIP3   OH263342   3.115   4.127   6.100 -0.0322  0.1165 -0.1937
13976TIP3    H163343   3.062   4.110   6.177  0.6497 -1.2682  0.0103
13976TIP3    H263344   3.087   4.060   6.037  0.2100  0.5148 -0.7349
13977TIP3   OH263345   5.277   4.738  13.250  0.6228 -0.9113 -0.3333
13977TIP3    H163346   5.270   4.833  13.248  2.0748 -0.7429  0.7931
13977TIP3    H263347   5.198   4.709  13.296 -0.0536 -0.3022 -1.0917
13978TIP3   OH263348   4.333   1.474   4.016 -1.3709  0.0602  0.0605
13978TIP3    H163349   4.273   1.483   4.090  0.3794 -0.0671  1.5885
13978TIP3    H263350   4.360   1.564   3.996 -1.1277  0.0264  0.2258
13979TIP3   OH263351   5.482   0.415  16.031  0.4337  0.6185 -0.2804
13979TIP3    H163352   5.449   0.434  15.944 -0.0585  1.2377  0.0314
13979TIP3    H263353   5.469   0.496  16.080 -2.0527 -0.5475  1.1913
13980TIP3   OH263354   4.461   5.134  15.118 -0.1011 -0.0708 -0.1477
13980TIP3    H163355   4.479   5.181  15.199 -2.2988  1.4115 -0.4509
13980TIP3    H263356   4.368   5.112  15.122 -0.5853  1.0897 -2.7288
13981TIP3   OH263357   5.546   2.987   4.394 -0.1134  0.4508 -0.1147
13981TIP3    H163358   5.528   3.016   4.305 -0.7991  1.7063  0.4043
13981TIP3    H263359   5.519   3.061   4.449  0.9559 -0.0179  1.0945
13982TIP3   OH263360   2.575   2.836  11.068 -0.3549  0.1049 -0.0721
13982TIP3    H163361   2.504   2.773  11.082  0.1056 -1.0676 -2.4896
13982TIP3    H263362   2.590   2.834  10.974  1.7990  1.5617  0.1711
13983TIP3   OH263363   4.160   3.772  12.404  0.7081 -0.1941  0.3211
13983TIP3    H163364   4.096   3.826  12.356  0.4881 -0.8788 -0.1625
13983TIP3    H263365   4.159   3.688  12.359 -0.5906 -1.3762  2.3721
13984TIP3   OH263366   1.851   5.112   4.963  0.4278 -0.1692 -0.5134
13984TIP3    H163367   1.911   5.160   5.021  0.1308  0.5072 -0.7550
13984TIP3    H263368   1.764   5.143   4.989  0.2927  0.1377 -1.3191
13985TIP3   OH263369   6.642   4.509   5.506 -1.0257  0.0541 -0.6789
13985TIP3    H163370   6.641   4.413   5.503 -2.0807 -0.0782  1.5717
13985TIP3    H263371   6.579   4.536   5.440 -1.4705 -0.8546 -0.6473
13986TIP3   OH263372   5.255   6.187   2.576 -0.7439 -0.3831  0.3566
13986TIP3    H163373   5.274   6.105   2.621 -1.1132 -0.2795  0.7066
13986TIP3    H263374   5.181   6.165   2.519 -0.1722 -0.5581 -0.3355
13987TIP3   OH263375   3.120   0.497  11.708 -0.1268 -0.0934  0.3207
13987TIP3    H163376   3.134   0.485  11.802 -0.1817  0.1904  0.3648
13987TIP3    H263377   3.060   0.426  11.683  0.3198 -0.4997  0.3927
13988TIP3   OH263378   2.035   1.033  14.485  0.2427  0.4500  0.2454
13988TIP3    H163379   2.048   1.049  14.391  0.1318 -1.0484 -0.0589
13988TIP3    H263380   1.941   1.046  14.498  0.0803 -0.3424 -0.0801
13989TIP3   OH263381   5.117   3.629   1.436 -1.3807 -0.1711 -0.3866
13989TIP3    H163382   5.147   3.627   1.527 -1.4047 -1.5498 -0.3900
13989TIP3    H263383   5.159   3.707   1.399  0.2948 -0.7185  0.2607
13990TIP3   OH263384   4.334   2.087  11.998  0.0309  0.6963 -0.2973
13990TIP3    H163385   4.262   2.027  11.980  0.8570 -0.7492  0.9769
13990TIP3    H263386   4.297   2.174  11.980 -1.3395 -0.1204 -1.7345
13991TIP3   OH263387   4.283   5.158   4.814 -0.4259  0.0355 -0.3127
13991TIP3    H163388   4.289   5.067   4.844  1.1703  0.5499  1.0320
13991TIP3    H263389   4.322   5.158   4.727  2.3858 -0.0922  0.8606
13992TIP3   OH263390   2.864   0.309  12.983  0.5848  0.2850  0.0142
13992TIP3    H163391   2.871   0.220  13.019  1.1117 -0.0952 -0.9904
13992TIP3    H263392   2.954   0.334  12.965  0.5554  1.5293  1.4164
13993TIP3   OH263393   0.811   1.402  16.853 -0.2667 -0.6796  0.6432
13993TIP3    H163394   0.773   1.458  16.921 -0.3642 -1.0351  0.8869
13993TIP3    H263395   0.748   1.331  16.842 -0.1246 -0.7649  0.3699
13994TIP3   OH263396   0.005   6.303   5.980  0.1012  0.1494  0.2907
13994TIP3    H163397  -0.038   6.331   6.061 -1.9293 -0.0523 -0.6629
13994TIP3    H263398  -0.058   6.244   5.938  2.1570 -1.8505 -0.2287
13995TIP3   OH263399   5.789   2.618  13.745 -0.0996 -0.4094  0.1504
13995TIP3    H163400   5.880   2.618  13.772 -0.1667  0.7325  0.4015
13995TIP3    H263401   5.742   2.579  13.818  0.3970 -3.1529 -0.8708
13996TIP3   OH263402   0.545   5.478  12.091 -0.1094  0.3711  0.8245
13996TIP3    H163403   0.518   5.387  12.104 -1.1415  0.6605  0.8121
13996TIP3    H263404   0.634   5.482  12.125  0.2729 -0.8406  0.0507
13997TIP3   OH263405   2.344   0.166   3.522  0.3101 -0.0585 -0.0483
13997TIP3    H163406   2.272   0.108   3.497  2.0002 -1.8075 -1.1160
13997TIP3    H263407   2.372   0.135   3.608  1.3377 -1.0217 -0.7016
13998TIP3   OH263408   1.642   3.420  14.130  0.2578  0.2616  0.0981
13998TIP3    H163409   1.671   3.340  14.085 -1.9052  0.0671 -1.0504
13998TIP3    H263410   1.573   3.390  14.190 -2.4449  1.4759 -2.1990
13999TIP3   OH263411   2.988   5.049  16.130  0.0304 -0.4245  0.4702
13999TIP3    H163412   3.034   5.115  16.183 -0.9806 -0.6978  1.7511
13999TIP3    H263413   2.978   4.974  16.189 -1.9823 -0.3868  0.2343
14000TIP3   OH263414   0.936   6.710   1.975 -0.7870 -0.0874 -0.2270
14000TIP3    H163415   0.926   6.795   1.932 -0.6057  0.1278  0.1484
14000TIP3    H263416   0.859   6.660   1.949 -1.9167  0.8781  1.1328
14001TIP3   OH263417   3.502   1.352   4.178  0.0926  0.1241 -0.1440
14001TIP3    H163418   3.584   1.400   4.191  0.5816 -0.7238  0.0103
14001TIP3    H263419   3.523   1.289   4.109 -0.5370  0.1247 -0.3437
14002TIP3   OH263420   2.192   2.645  11.482  0.4407 -0.3212 -0.3466
14002TIP3    H163421   2.213   2.645  11.388 -0.9744  3.3003 -0.7975
14002TIP3    H263422   2.097   2.637  11.485  0.4651 -0.2380  0.8075
14003TIP3   OH263423   6.615   5.575  12.743 -0.0617  0.2663 -0.8576
14003TIP3    H163424   6.603   5.534  12.829 -0.9499 -0.1921 -1.1933
14003TIP3    H263425   6.667   5.513  12.694  2.7044  1.6314  0.1307
14004TIP3   OH263426   5.863   0.708   4.497  0.2154  0.2072  1.4513
14004TIP3    H163427   5.842   0.674   4.410  0.2066  0.0381  1.5184
14004TIP3    H263428   5.914   0.638   4.538 -2.8290 -1.3787  2.9413
14005TIP3   OH263429   1.616   6.577  10.717  0.1413  0.7209 -0.0332
14005TIP3    H163430   1.684   6.515  10.741  0.4646  0.3835 -1.6832
14005TIP3    H263431   1.636   6.601  10.626 -1.3454  1.4007 -0.2200
14006TIP3   OH263432   1.914   1.110  16.486  0.1219  0.4366 -0.8330
14006TIP3    H163433   1.954   1.114  16.573  1.3716 -2.7381 -1.1339
14006TIP3    H263434   1.847   1.178  16.488  0.0146  0.4379  2.6476
14007TIP3   OH263435   6.681   6.538  16.073  0.0426 -0.1731  0.3441
14007TIP3    H163436   6.657   6.511  16.162  1.2769 -0.7941  0.5188
14007TIP3    H263437   6.772   6.507  16.063  0.6082  1.6246 -0.4214
14008TIP3   OH263438   6.076   5.702  13.504 -0.1469  0.1451 -0.2955
14008TIP3    H163439   5.994   5.728  13.462 -0.1566 -0.9860 -0.9931
14008TIP3    H263440   6.139   5.697  13.433  0.2250 -0.2202  0.0539
14009TIP3   OH263441   6.454   1.216  12.081 -0.0694 -0.5160 -0.0489
14009TIP3    H163442   6.452   1.140  12.140 -1.5194  0.0664  0.7025
14009TIP3    H263443   6.443   1.291  12.139  0.5170  0.2211 -0.8780
14010TIP3   OH263444   0.444   5.342  15.584 -0.7127 -0.3124 -0.1052
14010TIP3    H163445   0.492   5.407  15.533 -2.4942 -1.2801 -3.2984
14010TIP3    H263446   0.469   5.360  15.675  2.9129  1.3682 -1.2321
14011TIP3   OH263447   4.188   4.243  13.413 -0.1186 -0.0275  0.5052
14011TIP3    H163448   4.193   4.159  13.367  0.0939  0.5342 -0.5116
14011TIP3    H263449   4.180   4.218  13.505  0.8633 -1.1598  0.3163
14012TIP3   OH263450   4.944   6.123  15.827 -0.2380  0.4203 -0.3602
14012TIP3    H163451   5.001   6.140  15.752 -0.7329  0.4837 -0.7211
14012TIP3    H263452   4.867   6.081  15.790  0.2855 -1.2321  0.3154
14013TIP3   OH263453   3.514   1.903  16.057 -0.7345  0.2488  0.2899
14013TIP3    H163454   3.420   1.884  16.056 -0.9050  0.9510 -1.8486
14013TIP3    H263455   3.556   1.817  16.058 -1.4568 -0.2090 -2.1553
14014TIP3   OH263456   5.285   4.530   3.228  0.0577  0.5639  0.6856
14014TIP3    H163457   5.221   4.462   3.207  0.1773  0.6038  0.1747
14014TIP3    H263458   5.235   4.594   3.278  0.1316 -0.2720  1.8636
14015TIP3   OH263459   5.825   2.162  11.041  0.3321  0.3230  0.3010
14015TIP3    H163460   5.736   2.182  11.013 -0.3598  0.8037  2.5991
14015TIP3    H263461   5.857   2.242  11.081  0.5311 -0.7343  2.4271
14016TIP3   OH263462   4.324   4.666   2.948  0.9959  0.4847  0.5788
14016TIP3    H163463   4.363   4.746   2.915  0.9953  0.5139  0.6516
14016TIP3    H263464   4.276   4.692   3.027  1.7059  0.2594  1.0877
14017TIP3   OH263465   0.254   5.620  14.467 -0.2037 -0.2038 -0.0893
14017TIP3    H163466   0.271   5.527  14.454 -0.0149 -0.1328 -0.3621
14017TIP3    H263467   0.266   5.660  14.381 -0.5723  0.0315 -0.0331
14018TIP3   OH263468   6.008   6.155  15.769  0.4880  0.0387 -0.9434
14018TIP3    H163469   6.026   6.162  15.675 -1.4300 -0.7270 -1.4038
14018TIP3    H263470   5.944   6.085  15.777 -0.8306  1.3364  0.7238
14019TIP3   OH263471   5.870   3.994   1.237  0.2574 -0.8878 -0.1301
14019TIP3    H163472   5.828   3.908   1.240  1.0487 -1.2578  0.6189
14019TIP3    H263473   5.827   4.044   1.306 -1.6558  0.0382 -1.8772
14020TIP3   OH263474   2.556   2.446  13.513 -0.3714  0.1205 -0.1029
14020TIP3    H163475   2.539   2.490  13.430  1.4959  0.8359 -0.1461
14020TIP3    H263476   2.625   2.383  13.494 -0.2227 -0.0185  0.8150
14021TIP3   OH263477   3.758   1.095   4.256 -0.1863 -0.0064 -0.5821
14021TIP3    H163478   3.852   1.108   4.254  0.0717 -1.2480  0.9921
14021TIP3    H263479   3.726   1.162   4.316 -0.0427 -0.6802  0.2773
14022TIP3   OH263480   3.342   2.259   4.385 -0.0254  0.1607  0.3591
14022TIP3    H163481   3.349   2.221   4.298  0.3143 -1.0301  0.8806
14022TIP3    H263482   3.431   2.254   4.420 -0.1725  0.5561  0.8012
14023TIP3   OH263483   4.975   1.323   3.045 -0.0683 -0.1389 -0.1048
14023TIP3    H163484   4.977   1.374   3.126  0.6438 -0.3785  0.0314
14023TIP3    H263485   5.006   1.384   2.978  2.4874 -0.8415  0.3315
14024TIP3   OH263486   1.718   4.386  16.892  0.3494 -0.5502 -0.1419
14024TIP3    H163487   1.688   4.380  16.801 -0.6724 -2.6561  0.2795
14024TIP3    H263488   1.641   4.362  16.944  1.5877 -1.7763  1.1781
14025TIP3   OH263489   1.296   3.596   3.026 -0.3205 -0.4900 -0.2260
14025TIP3    H163490   1.261   3.583   2.938  1.1154 -1.0725 -0.7395
14025TIP3    H263491   1.354   3.671   3.018 -2.6363  1.5519  0.9991
14026TIP3   OH263492   5.588   4.580   3.151 -0.8393  0.1980 -0.6885
14026TIP3    H163493   5.581   4.671   3.121 -1.3463  0.0939 -0.8958
14026TIP3    H263494   5.659   4.543   3.099 -0.8746  0.3730 -0.8613
14027TIP3   OH263495   3.294   4.557   4.492  0.0267 -0.0301 -0.1458
14027TIP3    H163496   3.327   4.644   4.465 -1.3327  0.3939 -0.5213
14027TIP3    H263497   3.316   4.551   4.585 -1.5388  1.5628  0.3891
14028TIP3   OH263498   6.716   0.020   1.831  0.1260  0.0720 -0.2818
14028TIP3    H163499   6.751  -0.068   1.817 -0.3239 -0.1538 -0.0199
14028TIP3    H263500   6.668   0.040   1.750  0.1834  0.0594 -0.3196
14029TIP3   OH263501   3.180   1.067  15.125 -0.3774  0.4010 -0.1217
14029TIP3    H163502   3.252   1.096  15.180 -0.3273 -0.4070  0.2454
14029TIP3    H263503   3.200   1.103  15.039  0.4170  0.2591 -0.0051
14030TIP3   OH263504   6.529   0.032  11.783 -0.1658 -0.4639 -0.4591
14030TIP3    H163505   6.515   0.031  11.878 -0.6462  0.9416 -0.4874
14030TIP3    H263506   6.619   0.002  11.771  0.2300  0.2863  0.5267
14031TIP3   OH263507   1.117   0.449   3.073  0.0019 -0.0696  0.2161
14031TIP3    H163508   1.035   0.474   3.115  0.7449 -1.5118  2.6667
14031TIP3    H263509   1.140   0.365   3.111  2.6691  0.3051 -0.3562
14032TIP3   OH263510   3.503   1.236  16.360 -0.2091 -0.4769 -0.1613
14032TIP3    H163511   3.485   1.143  16.367 -0.5579 -0.3230  1.4100
14032TIP3    H263512   3.599   1.243  16.368 -0.0404 -0.7787 -1.6688
14033TIP3   OH263513   0.746   3.054  13.033  0.1761  0.7635  0.5079
14033TIP3    H163514   0.688   3.040  13.108  0.2617 -0.5703  0.3434
14033TIP3    H263515   0.724   3.142  13.002 -0.0051  1.2522  1.9617
14034TIP3   OH263516   0.912   6.486  13.609 -0.8549 -0.0833 -0.6217
14034TIP3    H163517   1.000   6.461  13.638 -0.8482 -1.1739 -1.5162
14034TIP3    H263518   0.923   6.506  13.516 -1.5842 -0.4096 -0.7783
14035TIP3   OH263519   6.052   0.936   1.174  0.3952  0.0236  0.6738
14035TIP3    H163520   5.971   0.973   1.141 -0.0123  1.4118  3.0191
14035TIP3    H263521   6.045   0.842   1.157 -1.8497  0.0692  1.0622
14036TIP3   OH263522   0.386   4.453  16.144 -0.5498  0.2517  0.2579
14036TIP3    H163523   0.305   4.504  16.139 -0.3712  0.6781  1.3363
14036TIP3    H263524   0.445   4.507  16.197  0.6938  0.2576 -1.0648
14037TIP3   OH263525   5.003   6.729   1.175  0.0527 -0.6185  0.2705
14037TIP3    H163526   4.917   6.705   1.140 -0.4494  1.9280 -0.4088
14037TIP3    H263527   5.060   6.733   1.098 -0.2169  1.5236  0.1150
14038TIP3   OH263528   0.791   4.859  15.642  0.4799 -0.0527  0.3270
14038TIP3    H163529   0.806   4.951  15.622  0.0443  0.1541  0.9192
14038TIP3    H263530   0.752   4.822  15.563  0.7214  0.2535  0.0649
14039TIP3   OH263531   6.201   4.533  12.929  0.0044 -0.1678  0.6322
14039TIP3    H163532   6.178   4.595  12.860  1.4320  0.1224  0.3803
14039TIP3    H263533   6.118   4.510  12.970 -0.7447  0.5060 -0.4664
14040TIP3   OH263534   5.551   1.916  14.881  0.3078 -0.3847  0.1050
14040TIP3    H163535   5.474   1.949  14.835 -0.0161 -2.5076 -0.9926
14040TIP3    H263536   5.597   1.863  14.815  3.1968  1.4453  0.4562
14041TIP3   OH263537   1.053   0.932  16.136  0.1944 -0.5541 -0.2875
14041TIP3    H163538   1.044   0.875  16.060  0.9322 -2.2030  0.8092
14041TIP3    H263539   0.987   1.000  16.123 -1.7489 -2.4625 -0.9454
14042TIP3   OH263540   4.381   3.743  11.856 -0.0424 -0.0172 -0.4876
14042TIP3    H163541   4.413   3.655  11.836  2.0019  0.3566  0.7769
14042TIP3    H263542   4.320   3.731  11.928  1.2146 -0.3385  0.5680
14043TIP3   OH263543   5.156   3.833   0.251  0.6629 -0.7949 -0.6702
14043TIP3    H163544   5.210   3.785   0.189  2.5729  0.9266 -0.4400
14043TIP3    H263545   5.200   3.824   0.335 -0.1781 -0.5221 -0.1837
14044TIP3   OH263546   4.750   0.365  16.561  0.1842 -0.3689  0.2600
14044TIP3    H163547   4.725   0.277  16.591 -1.5680 -0.3177 -0.9034
14044TIP3    H263548   4.668   0.415  16.563  0.6865  0.5820 -1.2890
14045TIP3   OH263549   3.574   5.046  13.527  0.6583  0.1434 -0.3770
14045TIP3    H163550   3.619   4.963  13.510  1.6879  0.3395  1.1841
14045TIP3    H263551   3.643   5.112  13.520 -0.2740  0.9959 -2.2458
14046TIP3   OH263552   5.112   1.914   5.212 -0.3824 -0.3023 -0.5146
14046TIP3    H163553   5.159   1.831   5.206  1.9220  0.8548  0.4597
14046TIP3    H263554   5.144   1.965   5.138 -0.5061  0.3344 -0.1373
14047TIP3   OH263555   1.963   6.243  11.305  0.0923 -0.2906 -0.1905
14047TIP3    H163556   1.976   6.256  11.211 -0.3064  1.2559 -0.0446
14047TIP3    H263557   1.925   6.155  11.311  3.1889 -1.8521 -1.1868
14048TIP3   OH263558   6.801   3.581   6.333  0.0590  0.1151 -0.3169
14048TIP3    H163559   6.830   3.644   6.399  1.4270 -0.8270  0.0263
14048TIP3    H263560   6.789   3.499   6.382  0.6121 -0.4771 -1.1477
14049TIP3   OH263561   3.235   3.342  14.612 -0.6609  0.2745 -0.4110
14049TIP3    H163562   3.150   3.349  14.568 -1.6089  1.8796  1.4724
14049TIP3    H263563   3.297   3.382  14.551 -1.9149  2.4100 -0.4080
14050TIP3   OH263564   3.909   2.700   1.512  0.1149  0.8770 -0.2656
14050TIP3    H163565   3.860   2.770   1.468 -0.2810  0.5569 -0.3359
14050TIP3    H263566   3.969   2.746   1.570 -0.0316  1.2830 -0.4303
14051TIP3   OH263567   1.953   2.429  13.160 -0.5149 -0.6159  0.6355
14051TIP3    H163568   2.011   2.384  13.221 -1.3521  0.0251  1.9755
14051TIP3    H263569   1.971   2.522  13.175 -0.1154 -0.4389 -0.7617
14052TIP3   OH263570   1.551   6.610  12.154 -0.8641  0.3287 -0.2937
14052TIP3    H163571   1.594   6.527  12.172 -0.6976  0.7009  1.1456
14052TIP3    H263572   1.623   6.670  12.134 -0.9812  0.1496 -1.2965
14053TIP3   OH263573   6.333   3.915  11.293 -0.1593 -0.1650 -0.8268
14053TIP3    H163574   6.393   3.898  11.365  0.1842  0.9131 -0.8445
14053TIP3    H263575   6.389   3.940  11.220 -0.6088  0.6809 -0.8942
14054TIP3   OH263576   2.701   2.179   5.440  0.4839  0.1158 -0.1865
14054TIP3    H163577   2.755   2.240   5.490 -0.1861  0.7044 -0.1714
14054TIP3    H263578   2.638   2.144   5.504  0.9713 -0.7323 -0.1539
14055TIP3   OH263579   2.732   2.604  14.446 -0.3053  0.2728  0.0408
14055TIP3    H163580   2.784   2.673  14.486  1.5045 -0.4389 -0.9454
14055TIP3    H263581   2.670   2.577  14.514  0.7093  1.0696  1.3262
14056TIP3   OH263582   1.220   6.392  13.369  0.4252 -0.0733 -0.2510
14056TIP3    H163583   1.271   6.346  13.435 -0.2733 -0.8362 -0.2169
14056TIP3    H263584   1.180   6.322  13.316  2.2507  0.4781 -2.5465
14057TIP3   OH263585   6.621   0.689   4.638  0.0417 -0.3232 -0.3075
14057TIP3    H163586   6.529   0.707   4.657  0.0678 -0.0410 -0.4367
14057TIP3    H263587   6.642   0.750   4.567  0.0779 -1.0111 -0.8929
14058TIP3   OH263588   1.728   5.521   0.545  0.3767 -0.3565 -0.0080
14058TIP3    H163589   1.695   5.607   0.573  1.5172  1.2490 -3.0705
14058TIP3    H263590   1.662   5.489   0.485 -0.0432 -1.7128  1.1302
14059TIP3   OH263591   5.794   6.227   3.333  0.1843 -0.2836 -0.7193
14059TIP3    H163592   5.767   6.161   3.396  1.1461 -0.3713 -0.3865
14059TIP3    H263593   5.888   6.211   3.320  0.9613  2.2826  0.9528
14060TIP3   OH263594   6.609   5.929  15.974 -0.3902 -0.2213  0.0412
14060TIP3    H163595   6.644   5.968  15.895  0.6384  0.5172  0.8311
14060TIP3    H263596   6.529   5.884  15.946  0.3324 -0.5817 -1.5251
14061TIP3   OH263597   3.689   6.134  14.183  0.0061  0.6650 -0.0653
14061TIP3    H163598   3.660   6.167  14.098 -0.2813  0.8314  0.0961
14061TIP3    H263599   3.769   6.085  14.163  0.0783  0.9082 -0.3994
14062TIP3   OH263600   5.532   4.808  14.600  0.0717  0.6403 -0.4278
14062TIP3    H163601   5.543   4.765  14.685  0.7191  1.1019 -0.2674
14062TIP3    H263602   5.475   4.750  14.550  1.1190 -0.5350 -0.3084
14063TIP3   OH263603   2.572   6.289  12.854 -0.9499 -0.1857 -0.1309
14063TIP3    H163604   2.628   6.346  12.801 -0.2296 -0.6412  0.1378
14063TIP3    H263605   2.538   6.347  12.922  0.1842 -0.1720  0.4453
14064TIP3   OH263606   0.216   0.584   1.419  0.0929  0.3764 -0.1090
14064TIP3    H163607   0.174   0.510   1.375  1.7286 -1.0119  0.5148
14064TIP3    H263608   0.154   0.610   1.487 -0.6775 -0.1696 -0.5930
14065TIP3   OH263609   3.128   5.471   4.743  0.5288 -0.0515  0.2062
14065TIP3    H163610   3.216   5.482   4.705  0.5061  0.7456  0.3664
14065TIP3    H263611   3.128   5.527   4.820 -0.2210  0.1963  0.0353
14066TIP3   OH263612   4.636   5.338   5.433  0.1097  0.0414  0.0072
14066TIP3    H163613   4.549   5.370   5.458  0.4741  1.3029 -0.3014
14066TIP3    H263614   4.697   5.400   5.472  0.8538 -0.3880 -0.4550
14067TIP3   OH263615   3.660   3.565  12.776  0.2598 -0.0386 -0.0868
14067TIP3    H163616   3.665   3.539  12.684  2.2601 -1.2449  0.3088
14067TIP3    H263617   3.752   3.570  12.804 -0.3080  0.5461  1.7817
14068TIP3   OH263618   2.060   0.682   3.628  0.0428  0.6460  0.4129
14068TIP3    H163619   1.976   0.693   3.583 -0.6705  0.2750  1.6175
14068TIP3    H263620   2.123   0.672   3.557 -0.9111  1.0100 -0.5210
14069TIP3   OH263621   1.025   1.291  14.163  0.0206  0.0026  0.0600
14069TIP3    H163622   0.948   1.234  14.167  0.6287 -0.8592 -0.2104
14069TIP3    H263623   1.098   1.231  14.147  0.7595  0.8008  0.3775
14070TIP3   OH263624   0.725   2.458  14.596  0.1927 -0.3448  0.6494
14070TIP3    H163625   0.746   2.551  14.584  0.7517 -0.0890  3.1449
14070TIP3    H263626   0.782   2.429  14.667 -0.1170 -2.5786  0.0644
14071TIP3   OH263627   6.801   5.740  16.666 -0.1190  0.1838  0.5306
14071TIP3    H163628   6.848   5.669  16.711  1.8196  0.9095 -0.2459
14071TIP3    H263629   6.726   5.758  16.721  0.9818 -0.4558  2.3196
14072TIP3   OH263630   2.743   2.619   1.394 -0.8652 -0.0724 -0.5208
14072TIP3    H163631   2.820   2.581   1.436 -0.9964 -0.3610 -0.5329
14072TIP3    H263632   2.687   2.646   1.466 -0.6598  0.3309 -0.5127
14073TIP3   OH263633   3.119   2.394  13.280 -0.0392 -0.1059  0.0759
14073TIP3    H163634   3.084   2.368  13.195 -0.3540 -1.6101  0.6313
14073TIP3    H263635   3.127   2.312  13.329  1.8899  0.5032  0.8697
14074TIP3   OH263636   2.615   0.397  12.547 -0.6058 -0.2812 -0.4812
14074TIP3    H163637   2.601   0.378  12.639 -1.2880  0.4763 -0.4210
14074TIP3    H263638   2.617   0.493  12.542 -0.6667 -0.3120 -1.2582
14075TIP3   OH263639   6.026   5.556   4.179 -0.5797 -0.0992  0.4228
14075TIP3    H163640   6.053   5.608   4.255 -3.5608  0.3049  1.3120
14075TIP3    H263641   6.036   5.615   4.105 -1.3149  0.8555  1.0576
14076TIP3   OH263642   6.038   2.588  16.778 -0.6277  0.1545 -0.6559
14076TIP3    H163643   5.973   2.539  16.829 -0.0315  0.0815  0.0527
14076TIP3    H263644   6.092   2.521  16.737  1.9037  0.0642  2.4710
14077TIP3   OH263645   1.177   3.918   2.569 -0.1554 -0.2217 -0.0780
14077TIP3    H163646   1.224   3.872   2.639 -0.5085 -1.4011 -0.5830
14077TIP3    H263647   1.173   4.009   2.598 -0.2311 -0.6703  1.4054
14078TIP3   OH263648   1.302   4.304   5.785 -0.0813 -0.4775  0.1661
14078TIP3    H163649   1.386   4.350   5.777  0.0294 -0.7906 -0.5309
14078TIP3    H263650   1.256   4.350   5.855 -0.0773  0.8629 -0.6877
14079TIP3   OH263651   5.259   1.454   3.247 -0.0447 -0.0108 -0.0221
14079TIP3    H163652   5.259   1.530   3.306 -1.0328  0.5336 -0.6934
14079TIP3    H263653   5.299   1.384   3.299  0.5899  0.8720  0.7230
14080TIP3   OH263654   0.059   3.498  16.054 -0.6688  0.4493 -0.1427
14080TIP3    H163655   0.142   3.510  16.007  0.6560 -0.3991  1.8320
14080TIP3    H263656  -0.002   3.467  15.988  0.5453  1.1948 -1.6921
14081TIP3   OH263657   3.303   5.295  12.305 -0.1237  0.2989 -0.3985
14081TIP3    H163658   3.248   5.341  12.241 -2.0236  0.9603  1.5725
14081TIP3    H263659   3.241   5.241  12.354  1.2897 -0.2777  0.8114
14082TIP3   OH263660   4.383   2.842  15.187  0.2707  0.1838 -0.1314
14082TIP3    H163661   4.324   2.771  15.161  3.1148 -1.9573 -1.2936
14082TIP3    H263662   4.426   2.810  15.266  0.7470  1.1698  0.0315
14083TIP3   OH263663   2.201   2.241  12.647  0.2111  0.4204  0.0710
14083TIP3    H163664   2.139   2.237  12.574 -0.2704 -1.3128  0.5066
14083TIP3    H263665   2.284   2.265  12.607 -0.3452  0.9038 -0.8273
14084TIP3   OH263666   4.389   3.897   3.337 -0.0132 -0.1574  0.4645
14084TIP3    H163667   4.404   3.809   3.302 -0.6303  0.3236 -1.0885
14084TIP3    H263668   4.327   3.883   3.409 -0.4003 -0.9592 -0.0009
14085TIP3   OH263669   0.474   2.150  15.680 -0.4102  0.7332  0.2916
14085TIP3    H163670   0.568   2.133  15.678 -0.1137  2.1893  0.9901
14085TIP3    H263671   0.434   2.062  15.684  0.9676  0.1346  1.8982
14086TIP3   OH263672   3.549   3.070  11.632  0.0855  0.2602 -0.4552
14086TIP3    H163673   3.580   2.986  11.667  0.7630  1.2728  1.4874
14086TIP3    H263674   3.459   3.053  11.606 -0.7259 -0.4517  2.4533
14087TIP3   OH263675   3.437   2.833   4.508 -0.0993 -1.1749  0.2518
14087TIP3    H163676   3.452   2.915   4.554 -1.1923 -0.6433 -0.3078
14087TIP3    H263677   3.521   2.814   4.466  0.6704 -1.2544  1.7666
14088TIP3   OH263678   6.605   1.771   5.517 -0.4900 -0.0991 -0.2226
14088TIP3    H163679   6.675   1.831   5.492  0.5293 -1.3425 -0.4238
14088TIP3    H263680   6.541   1.827   5.562  0.7822  1.0080  0.2901
14089TIP3   OH263681   2.465   5.149   5.341 -0.0977  0.0176 -0.7950
14089TIP3    H163682   2.480   5.064   5.300  1.1235 -1.2638  2.0666
14089TIP3    H263683   2.551   5.176   5.372 -1.0683  0.2777  1.9196
14090TIP3   OH263684   5.373   2.300  11.163 -0.2891 -0.4914 -0.6610
14090TIP3    H163685   5.387   2.389  11.129 -3.1714  0.2230 -0.2529
14090TIP3    H263686   5.286   2.275  11.130 -1.4016 -1.4503  2.5803
14091TIP3   OH263687   4.798   3.960   0.368 -0.3665  0.0650  0.0111
14091TIP3    H163688   4.719   3.909   0.386 -0.4483  0.3514  0.4931
14091TIP3    H263689   4.814   4.007   0.450  0.6372 -0.4380  0.1130
14092TIP3   OH263690   2.194   3.577  15.804 -0.1356 -0.5371 -0.1920
14092TIP3    H163691   2.246   3.593  15.883  0.5752  2.0905 -1.0835
14092TIP3    H263692   2.105   3.604  15.828  0.5057  2.5683 -0.8150
14093TIP3   OH263693   3.715   2.081  11.406  0.8939 -0.2427  0.6102
14093TIP3    H163694   3.672   2.166  11.397  0.7446 -0.4013 -0.1710
14093TIP3    H263695   3.679   2.044  11.487 -2.1218 -1.3390 -1.0995
14094TIP3   OH263696   4.339   6.607  12.735 -0.3106  0.3321  0.5248
14094TIP3    H163697   4.423   6.618  12.781 -0.2700  0.2211  0.4774
14094TIP3    H263698   4.325   6.690  12.690 -0.1274  0.2779  0.3691
14095TIP3   OH263699   2.060   2.376  16.768  0.1193 -0.3861 -0.1667
14095TIP3    H163700   1.978   2.423  16.754 -0.3381 -0.8595  0.7976
14095TIP3    H263701   2.121   2.443  16.799  0.1524 -0.0043 -1.0278
14096TIP3   OH263702   4.105   6.581   2.442 -0.2124  0.0415  0.2522
14096TIP3    H163703   4.138   6.629   2.518  1.3200  2.2116 -1.6680
14096TIP3    H263704   4.029   6.631   2.413 -0.9825 -0.9549  0.4802
14097TIP3   OH263705   3.087   2.087  16.520  0.5986 -0.5355 -0.7616
14097TIP3    H163706   3.080   1.994  16.542 -1.8652 -0.2782 -0.1478
14097TIP3    H263707   3.148   2.090  16.447 -1.0114 -2.9405 -2.3538
14098TIP3   OH263708   2.701   6.058  10.348 -0.2901 -0.0809  0.4088
14098TIP3    H163709   2.688   6.008  10.428 -1.6121 -0.8860 -0.2865
14098TIP3    H263710   2.793   6.043  10.324 -0.3182 -1.1023  0.9255
14099TIP3   OH263711   5.452   6.679  11.943 -0.0509  0.1571 -0.2847
14099TIP3    H163712   5.419   6.697  12.032 -1.4073 -0.8648 -0.5524
14099TIP3    H263713   5.517   6.609  11.955 -3.9565 -3.9683 -0.4738
14100TIP3   OH263714   0.734   3.162   3.037 -0.8259  0.0407  0.5340
14100TIP3    H163715   0.812   3.206   3.002 -0.6784 -0.3028  0.4254
14100TIP3    H263716   0.765   3.074   3.061 -1.0027  0.1704  1.2352
14101TIP3   OH263717   2.599   6.077   0.776  0.1670 -0.5863 -0.3105
14101TIP3    H163718   2.507   6.081   0.749  0.2931  1.3888 -0.6665
14101TIP3    H263719   2.596   6.065   0.871 -0.4523 -0.6763 -0.3386
14102TIP3   OH263720   6.270   2.782   1.542  0.4706 -0.2091 -0.1987
14102TIP3    H163721   6.328   2.814   1.473 -0.2534  2.3383  0.2970
14102TIP3    H263722   6.318   2.800   1.623 -0.1012 -0.0723  0.1121
14103TIP3   OH263723   5.875   1.239   3.938  0.5151 -0.0778  0.1873
14103TIP3    H163724   5.832   1.162   3.976  1.3179 -0.2470  0.7829
14103TIP3    H263725   5.963   1.238   3.976  0.7711  0.7278 -0.3662
14104TIP3   OH263726   0.712   2.463   3.821  0.7878 -0.0376  0.0478
14104TIP3    H163727   0.784   2.479   3.761  0.1590  0.2445 -0.6445
14104TIP3    H263728   0.633   2.481   3.770  0.2224 -0.3509  0.7856
14105TIP3   OH263729   3.108   5.927   1.803 -0.1407 -0.2773 -0.2783
14105TIP3    H163730   3.157   5.964   1.876  1.1375  1.1171 -1.7765
14105TIP3    H263731   3.125   5.833   1.808  0.8484 -0.0718  0.5447
14106TIP3   OH263732   2.592   2.420  15.824 -0.4182 -0.2701 -0.5826
14106TIP3    H163733   2.673   2.370  15.820  1.5086  2.4247  1.2768
14106TIP3    H263734   2.601   2.487  15.756  0.9746  2.6024  2.1877
14107TIP3   OH263735   1.889   0.149  12.626 -0.4981 -0.5246  0.0396
14107TIP3    H163736   1.948   0.203  12.678  0.0424 -2.1400  1.1471
14107TIP3    H263737   1.811   0.204  12.614  0.0584  0.5247  1.0514
14108TIP3   OH263738   0.473   5.835   1.045  0.5815  0.3928 -0.1832
14108TIP3    H163739   0.503   5.906   1.102 -1.1772  0.6662  0.4595
14108TIP3    H263740   0.402   5.873   0.994  1.6926 -0.0423 -2.1473
14109TIP3   OH263741   0.256   5.309  12.573 -0.4195  0.2584  0.2544
14109TIP3    H163742   0.288   5.330  12.485 -0.0895 -0.3721  0.2170
14109TIP3    H263743   0.207   5.387  12.600 -1.8410 -0.1166 -1.1080
14110TIP3   OH263744   6.551   2.227  13.297  0.4708  0.5827  0.0578
14110TIP3    H163745   6.626   2.194  13.347  0.5748  0.7062 -0.0159
14110TIP3    H263746   6.504   2.149  13.270  1.4033  0.4178 -1.1862
14111TIP3   OH263747   0.404   5.469  13.394  0.2527  0.3259 -0.1842
14111TIP3    H163748   0.476   5.511  13.347 -0.5576  1.4924 -0.4443
14111TIP3    H263749   0.342   5.541  13.412  0.4194 -0.0817  2.4841
14112TIP3   OH263750   6.630   1.290  14.177  0.0845  0.2889  0.3692
14112TIP3    H163751   6.591   1.203  14.182 -1.2249  0.7875 -0.6605
14112TIP3    H263752   6.591   1.338  14.250 -1.7879  0.9647 -1.0056
14113TIP3   OH263753   0.733   6.211  12.836 -0.2488 -0.5149 -0.2590
14113TIP3    H163754   0.808   6.224  12.779  0.9094 -1.6359  0.9578
14113TIP3    H263755   0.767   6.163  12.911 -2.2230 -1.2251  0.2444
14114TIP3   OH263756   6.728   2.322   2.674  0.2150 -0.0302  0.4392
14114TIP3    H163757   6.783   2.316   2.596 -0.1148 -0.8941  0.2696
14114TIP3    H263758   6.757   2.403   2.717 -1.8671  2.3637 -2.3028
14115TIP3   OH263759   2.508   4.947  13.476 -0.2944 -0.0127  0.7778
14115TIP3    H163760   2.468   4.900  13.404  0.5927  1.3320 -0.6825
14115TIP3    H263761   2.446   4.940  13.548 -1.8193 -0.3119 -0.5238
14116TIP3   OH263762   4.749   2.332   0.311  0.1827  0.0231 -0.2653
14116TIP3    H163763   4.756   2.261   0.375  0.2336 -0.5566 -0.9065
14116TIP3    H263764   4.693   2.397   0.354  0.9665  0.0622  0.7368
14117TIP3   OH263765   6.581   6.684   3.953  0.0939  0.0343 -0.1473
14117TIP3    H163766   6.662   6.676   4.004 -0.3104 -0.3035  0.4576
14117TIP3    H263767   6.595   6.762   3.899  1.3584 -0.7962 -1.0663
14118TIP3   OH263768   6.703   2.592   0.533  0.2382 -0.0370  0.1911
14118TIP3    H163769   6.759   2.515   0.528 -0.2563 -0.3325 -2.2199
14118TIP3    H263770   6.628   2.564   0.586  0.4746 -0.9533  0.0599
14119TIP3   OH263771   5.663   4.282   3.679  0.4596 -0.0013 -0.2573
14119TIP3    H163772   5.719   4.329   3.741 -0.7765  0.3357  0.6665
14119TIP3    H263773   5.686   4.190   3.690  2.3880  0.2717 -1.5450
14120TIP3   OH263774   1.140   1.438   4.565  0.3625  0.1319 -0.1130
14120TIP3    H163775   1.142   1.375   4.493 -3.5958 -0.1749 -0.1427
14120TIP3    H263776   1.155   1.385   4.644  0.0074 -0.3205 -0.3480
14121TIP3   OH263777   0.663   5.136   2.906  0.4965  0.2470 -0.4995
14121TIP3    H163778   0.587   5.165   2.957  1.0908  0.5294  0.2374
14121TIP3    H263779   0.626   5.080   2.838 -0.3324 -0.0007  0.1425
14122TIP3   OH263780   6.054   0.195  15.683  0.3058  0.6205  0.4524
14122TIP3    H163781   6.048   0.124  15.747  0.8847  1.8486  1.9213
14122TIP3    H263782   6.014   0.159  15.604 -0.2147 -1.0302  1.4167
14123TIP3   OH263783   3.555   4.742  14.875 -0.2710  0.1645  0.2434
14123TIP3    H163784   3.634   4.688  14.888  0.0957  0.4302 -0.7649
14123TIP3    H263785   3.499   4.687  14.820  0.6671  1.2606 -1.9526
14124TIP3   OH263786   5.792   3.412   4.808 -0.1668  0.3325  0.6361
14124TIP3    H163787   5.730   3.358   4.857 -0.3978  0.0285  0.0287
14124TIP3    H263788   5.738   3.461   4.746  0.1797  0.1656  0.1912
14125TIP3   OH263789   6.461   0.843  15.001 -0.1195  0.3127 -0.5176
14125TIP3    H163790   6.399   0.805  15.064 -0.7450 -0.0151 -1.3205
14125TIP3    H263791   6.546   0.835  15.043 -0.3344 -1.3062 -0.3583
14126TIP3   OH263792   3.598   6.489  15.713 -0.0024  0.4963  0.1689
14126TIP3    H163793   3.532   6.472  15.645  0.1345  0.6920 -0.0163
14126TIP3    H263794   3.613   6.403  15.754  0.6179  0.1765 -0.6934
14127TIP3   OH263795   5.646   0.857   3.225 -0.0303  0.6361  0.6190
14127TIP3    H163796   5.733   0.881   3.259  0.2362 -0.3670  0.6670
14127TIP3    H263797   5.588   0.924   3.261  0.7588  1.5025  0.3375
14128TIP3   OH263798   6.153   4.024   2.228  0.5664 -0.2308  0.0150
14128TIP3    H163799   6.243   3.998   2.211  1.2483  1.5227  0.6518
14128TIP3    H263800   6.149   4.035   2.323 -0.1302  0.2691 -0.0601
14129TIP3   OH263801   0.076   1.372   1.784 -0.1446 -0.0048  0.2274
14129TIP3    H163802   0.012   1.302   1.793  1.1307 -1.0704  1.3884
14129TIP3    H263803   0.036   1.447   1.829 -0.2111 -0.9368  1.7918
14130TIP3   OH263804   0.005   2.602   1.346  0.2005 -0.2986 -0.6568
14130TIP3    H163805   0.041   2.552   1.420  0.4351 -0.7271 -1.0546
14130TIP3    H263806  -0.073   2.553   1.321 -0.2809  0.2451 -0.2416
14131TIP3   OH263807   1.085   1.646  15.658 -0.2585 -0.0616 -0.1047
14131TIP3    H163808   1.137   1.713  15.615  0.6877 -0.3725  0.5257
14131TIP3    H263809   1.099   1.567  15.606  0.5887 -0.3463  0.5223
14132TIP3   OH263810   6.654   0.305   1.683  0.0275  0.0668  0.1977
14132TIP3    H163811   6.697   0.295   1.768 -0.1294 -0.8422  0.1848
14132TIP3    H263812   6.573   0.254   1.692  0.9567 -1.7541 -1.1279
14133TIP3   OH263813   1.608   3.474   1.911 -0.0067  0.2977 -0.6273
14133TIP3    H163814   1.557   3.404   1.869  1.1071 -0.1944 -1.2120
14133TIP3    H263815   1.545   3.544   1.927 -0.6225  0.2057 -2.4723
14134TIP3   OH263816   2.151   6.581   6.113 -0.2046  0.3728 -0.2294
14134TIP3    H163817   2.114   6.504   6.157 -0.7165  1.1407  0.7077
14134TIP3    H263818   2.080   6.645   6.112  0.3133  0.9533 -0.7392
14135TIP3   OH263819   1.358   3.032   3.182 -0.0342 -0.4352 -0.5645
14135TIP3    H163820   1.276   2.983   3.192 -1.4993  2.0102  0.4785
14135TIP3    H263821   1.376   3.066   3.270  0.9721  0.7380 -1.1861
14136TIP3   OH263822   6.282   3.248  15.831  0.0894 -0.5351 -0.0211
14136TIP3    H163823   6.217   3.317  15.837 -0.1077 -0.7972  1.0608
14136TIP3    H263824   6.235   3.173  15.793  0.1720 -0.2456 -0.7073
14137TIP3   OH263825   2.745   4.533  11.959  0.0747 -0.0397 -0.4997
14137TIP3    H163826   2.650   4.518  11.960  0.1339 -0.3778  0.3223
14137TIP3    H263827   2.758   4.610  12.013  0.2814 -0.0656 -0.5113
14138TIP3   OH263828   2.637   0.069   1.978  0.5234  0.0866 -0.2925
14138TIP3    H163829   2.713   0.013   1.960  1.2986  1.0750 -0.1655
14138TIP3    H263830   2.572   0.010   2.017  0.9429 -0.9225 -1.0737
14139TIP3   OH263831   4.777   1.533  11.687  0.0982 -0.1846 -0.2308
14139TIP3    H163832   4.725   1.453  11.693  0.2483 -0.2749 -0.1121
14139TIP3    H263833   4.754   1.571  11.602 -0.2518 -0.1581 -0.1242
14140TIP3   OH263834   3.388   0.637   4.678 -0.2433  0.1037  0.5276
14140TIP3    H163835   3.348   0.653   4.763  0.0233  0.8683  0.5157
14140TIP3    H263836   3.482   0.647   4.692 -0.2447  1.0814 -0.0146
14141TIP3   OH263837   6.725   0.974   1.554 -0.0315  0.4125 -0.1290
14141TIP3    H163838   6.816   0.952   1.576  0.7649  2.6907 -0.9398
14141TIP3    H263839   6.679   0.969   1.638  0.8260 -0.6614  0.3139
14142TIP3   OH263840   4.055   2.278  11.620 -0.5011 -0.1277 -0.1549
14142TIP3    H163841   3.990   2.300  11.686 -1.0980  1.4675 -1.2029
14142TIP3    H263842   4.137   2.314  11.654  0.2483 -3.2802  1.7947
14143TIP3   OH263843   5.073   4.595  15.533 -0.1911 -0.3699  0.0077
14143TIP3    H163844   5.169   4.590  15.534 -0.2059 -1.4035  2.1173
14143TIP3    H263845   5.051   4.633  15.618 -1.6568  0.2432 -0.6226
14144TIP3   OH263846   3.891   2.494   3.302 -0.7717  0.2758  0.2690
14144TIP3    H163847   3.959   2.474   3.238 -1.3434  1.2949 -0.6751
14144TIP3    H263848   3.820   2.432   3.282 -0.6043  0.0040  0.5002
14145TIP3   OH263849   2.792   1.147   4.830 -0.1450 -0.3306 -0.1447
14145TIP3    H163850   2.727   1.216   4.817 -0.4449 -0.6556 -0.3685
14145TIP3    H263851   2.742   1.072   4.860 -0.2228 -1.3083 -2.4895
14146TIP3   OH263852   2.402   2.697  13.916  0.1869 -0.0856 -0.3335
14146TIP3    H163853   2.393   2.698  14.011  2.3260  2.1286 -0.0534
14146TIP3    H263854   2.475   2.637  13.899  0.3773  0.1973 -0.5139
14147TIP3   OH263855   0.639   2.541   2.510 -0.3809  0.1896 -0.0442
14147TIP3    H163856   0.705   2.552   2.442 -0.0739 -1.0863  0.0142
14147TIP3    H263857   0.638   2.624   2.557 -0.2208  0.9064 -1.2664
14148TIP3   OH263858   0.617   3.779  12.510  0.6371 -0.0765  0.1105
14148TIP3    H163859   0.683   3.842  12.539  0.2558  1.0286 -1.3497
14148TIP3    H263860   0.533   3.820  12.531  0.3882 -0.2292 -0.5686
14149TIP3   OH263861   0.992   0.621   5.056 -0.7574 -0.0224  0.0928
14149TIP3    H163862   0.920   0.680   5.077 -0.3067  0.0410  1.5387
14149TIP3    H263863   1.065   0.653   5.108 -0.2550 -1.3434  0.2310
14150TIP3   OH263864   3.833   1.003   3.496  0.2769 -0.3754  0.1477
14150TIP3    H163865   3.903   1.064   3.520 -0.6985  1.0426 -0.4396
14150TIP3    H263866   3.786   1.047   3.426  0.9125 -2.8514 -1.9819
14151TIP3   OH263867   6.139   4.609   2.102  0.6727 -0.3734  0.3102
14151TIP3    H163868   6.151   4.590   2.195  0.3079 -1.4397  0.1470
14151TIP3    H263869   6.186   4.692   2.089  1.0600 -0.4092  1.3553
14152TIP3   OH263870   1.565   3.024   0.729  0.0481  0.0975  0.3184
14152TIP3    H163871   1.490   2.965   0.726 -1.4160  1.9015  0.0900
14152TIP3    H263872   1.616   3.001   0.651 -0.1466 -1.2577  0.5673
14153TIP3   OH263873   1.197   3.904  16.667  0.5104 -0.3397 -0.8486
14153TIP3    H163874   1.157   3.991  16.668 -0.9398 -0.9794 -0.3937
14153TIP3    H263875   1.175   3.866  16.753  1.1033 -1.1599 -1.0444
14154TIP3   OH263876   1.776   2.870   0.229 -0.3626 -0.5040 -0.1998
14154TIP3    H163877   1.792   2.964   0.222 -0.1032 -0.5038  0.3431
14154TIP3    H263878   1.772   2.854   0.323 -1.5197 -0.8462 -0.2899
14155TIP3   OH263879   5.897   4.045  14.863  0.4461  0.6923 -0.0039
14155TIP3    H163880   5.806   4.035  14.893  0.6125  0.6958  0.5170
14155TIP3    H263881   5.903   4.135  14.832  0.1004  0.5009 -0.6370
14156TIP3   OH263882   1.305   0.596   0.279 -0.5597  0.5586 -0.1349
14156TIP3    H163883   1.385   0.615   0.229 -0.1313  2.2405  1.1180
14156TIP3    H263884   1.259   0.679   0.283 -1.6950 -0.0764  0.3789
14157TIP3   OH263885   4.476   5.021   1.933  0.0109  0.0146 -0.1005
14157TIP3    H163886   4.564   4.998   1.905 -0.0660  0.9781 -1.1704
14157TIP3    H263887   4.487   5.054   2.022  0.5490 -1.0028  0.2261
14158TIP3   OH263888   0.521   5.771   2.514  0.2222 -0.4256  0.2142
14158TIP3    H163889   0.603   5.767   2.563  1.3659  2.3693 -1.2204
14158TIP3    H263890   0.472   5.843   2.555 -1.0405 -1.2890  0.2981
14159TIP3   OH263891   4.912   4.259   2.670  0.1400 -0.6068  0.1606
14159TIP3    H163892   4.964   4.196   2.720 -0.3224 -0.4303  0.8895
14159TIP3    H263893   4.923   4.232   2.579 -0.0606 -1.7557  0.4550
14160TIP3   OH263894   4.245   1.081   3.007  0.4114  0.1717 -0.0058
14160TIP3    H163895   4.301   1.150   2.971  0.5918  0.1219  0.1806
14160TIP3    H263896   4.251   1.010   2.943 -1.9227  1.3077 -1.6558
14161TIP3   OH263897   5.664   5.402  15.467 -0.2431  0.2734  0.0286
14161TIP3    H163898   5.613   5.430  15.543 -0.7320 -0.0130 -0.1889
14161TIP3    H263899   5.598   5.381  15.400  0.0854 -1.3182  0.1605
14162TIP3   OH263900   1.634   3.651   5.449  0.1996  0.4348 -0.5557
14162TIP3    H163901   1.609   3.644   5.541 -0.5319 -2.7365 -0.8942
14162TIP3    H263902   1.728   3.666   5.451  0.6322 -1.9526  0.7859
14163TIP3   OH263903   6.247   5.103   1.960  0.8669 -0.2383  0.1917
14163TIP3    H163904   6.210   5.100   1.871  0.6119  0.5206  0.2619
14163TIP3    H263905   6.324   5.159   1.952  0.9131 -0.2689  0.4258
14164TIP3   OH263906   6.755   3.765   3.697  0.9823  0.0580 -0.1949
14164TIP3    H163907   6.667   3.755   3.734  0.0136  1.1335 -2.0693
14164TIP3    H263908   6.770   3.860   3.698  1.2117  0.0638 -1.8551
14165TIP3   OH263909   2.478   2.065   5.310 -0.5068  0.2015 -0.4509
14165TIP3    H163910   2.547   2.116   5.351  0.5999 -1.4434 -0.1862
14165TIP3    H263911   2.501   2.062   5.217 -0.1729 -0.3874 -0.3554
14166TIP3   OH263912   0.177   6.735  13.584 -0.4730 -0.3313 -0.4106
14166TIP3    H163913   0.100   6.770  13.629 -0.1178  0.8954 -0.7243
14166TIP3    H263914   0.249   6.748  13.646 -0.6726 -2.5422  0.3627
14167TIP3   OH263915   2.486   3.923   2.439 -0.6574 -0.4960  0.6638
14167TIP3    H163916   2.434   3.858   2.391 -1.6738  1.4233 -0.9490
14167TIP3    H263917   2.465   3.907   2.531 -4.1352  0.1049  0.1284
14168TIP3   OH263918   4.386   1.782  13.796 -0.4440 -0.2517  0.0150
14168TIP3    H163919   4.323   1.772  13.867  0.7030  2.4907  1.5779
14168TIP3    H263920   4.393   1.695  13.757 -1.7570 -1.6809  2.7237
14169TIP3   OH263921   1.227   5.172  15.660  0.2133  0.0277 -0.1570
14169TIP3    H163922   1.259   5.092  15.618  2.4751  0.3533  0.8074
14169TIP3    H263923   1.163   5.141  15.725  1.5176 -1.1216  0.6477
14170TIP3   OH263924   3.415   5.866  10.939 -0.5201 -0.0754 -0.1321
14170TIP3    H163925   3.476   5.822  10.997 -0.1418  0.9765  0.2879
14170TIP3    H263926   3.345   5.897  10.996 -1.5911 -1.4632 -0.6388
14171TIP3   OH263927   1.910   1.017   3.973  0.4577 -0.7488  0.2932
14171TIP3    H163928   1.914   1.080   3.901 -0.2208 -0.0342  0.8600
14171TIP3    H263929   1.965   0.945   3.945  0.4794 -0.3278 -0.7957
14172TIP3   OH263930   3.894   5.058  11.026  0.3990 -0.0729 -0.5818
14172TIP3    H163931   3.911   5.146  10.995 -1.1366  0.6803  0.5894
14172TIP3    H263932   3.902   5.064  11.121 -1.3422 -0.7799 -0.3560
14173TIP3   OH263933   4.299   6.742   1.361 -0.0090 -0.2726  0.1883
14173TIP3    H163934   4.392   6.742   1.383  0.0858  1.7042 -0.0551
14173TIP3    H263935   4.255   6.756   1.445 -0.0062  0.0993  0.1310
14174TIP3   OH263936   1.561   3.509  15.744  0.2725 -0.2592  0.0520
14174TIP3    H163937   1.554   3.602  15.765 -0.5875 -0.6792  1.7113
14174TIP3    H263938   1.601   3.508  15.657  1.3508  1.6273  0.4686
14175TIP3   OH263939   6.038   6.124  13.545 -0.7506 -0.5536 -0.1207
14175TIP3    H163940   5.947   6.153  13.554 -0.4777  0.5257 -0.6769
14175TIP3    H263941   6.057   6.133  13.452  0.0154 -0.5067  0.0344
14176TIP3   OH263942   6.214   5.260  14.307 -0.1401  0.4672  0.3198
14176TIP3    H163943   6.224   5.244  14.401  0.2755  0.1799  0.2263
14176TIP3    H263944   6.218   5.356  14.298 -0.7278  0.5277  0.6560
14177TIP3   OH263945   1.356   2.462  16.894 -0.2817 -0.0724  0.2411
14177TIP3    H163946   1.336   2.485  16.803  1.3778  1.0876  0.1306
14177TIP3    H263947   1.450   2.442  16.894 -0.8624 -3.3866  1.0832
14178TIP3   OH263948   0.418   4.632  14.422 -0.0630 -0.1490  0.1609
14178TIP3    H163949   0.370   4.658  14.500  0.0583  0.0497  0.1695
14178TIP3    H263950   0.360   4.571  14.377 -0.4956  0.3999 -0.0362
14179TIP3   OH263951   5.096   5.817  12.582 -0.3402  0.3608  0.0474
14179TIP3    H163952   5.080   5.844  12.491  2.1067  1.0060 -0.2634
14179TIP3    H263953   5.014   5.776  12.610 -1.4770  1.0082 -2.1269
14180TIP3   OH263954   4.013   6.458  14.411 -0.3149  0.1931 -0.4504
14180TIP3    H163955   4.064   6.378  14.411 -0.5683  0.0212  0.5025
14180TIP3    H263956   3.925   6.430  14.437 -0.6468  0.6382 -1.0570
14181TIP3   OH263957   1.492   0.620  12.777  0.1953  0.3263  0.0232
14181TIP3    H163958   1.478   0.610  12.682  3.2842  0.1666 -0.5297
14181TIP3    H263959   1.521   0.710  12.787 -1.7998  0.8906  1.1420
14182TIP3   OH263960   6.343   2.807   3.554  0.8591  0.1367 -0.7834
14182TIP3    H163961   6.319   2.735   3.497  1.3848  0.0229 -0.8702
14182TIP3    H263962   6.412   2.771   3.610 -0.0737  0.0562  0.3533
14183TIP3   OH263963   0.931   6.106   3.794  1.1160 -0.2334 -0.1712
14183TIP3    H163964   1.014   6.061   3.777  2.3784  1.5917  0.8109
14183TIP3    H263965   0.934   6.128   3.887 -0.3715  0.1433 -0.1797
14184TIP3   OH263966   0.387   6.086  16.514 -0.3986  0.1600  0.3723
14184TIP3    H163967   0.337   6.064  16.592  0.6255 -1.6737  0.5662
14184TIP3    H263968   0.478   6.076  16.540 -0.0227  0.0211 -0.9052
14185TIP3   OH263969   1.969   5.025   6.030 -0.3757 -0.2332 -0.2025
14185TIP3    H163970   1.911   5.101   6.028 -0.8024 -0.5544 -1.9849
14185TIP3    H263971   2.052   5.058   5.994  0.5119  0.1355  1.9965
14186TIP3   OH263972   3.907   0.274  15.934 -0.4743 -0.1293  0.0936
14186TIP3    H163973   3.874   0.307  16.018 -0.6202  0.0119 -0.0181
14186TIP3    H263974   3.831   0.234  15.893 -1.0653  2.0493 -1.0977
14187TIP3   OH263975   2.501   5.610  12.526 -0.1121 -0.0440 -0.4067
14187TIP3    H163976   2.476   5.702  12.529  2.1678  0.6169  0.4260
14187TIP3    H263977   2.516   5.591  12.434 -1.5987  0.0913 -0.6940
14188TIP3   OH263978   0.259   2.479   5.282  0.3250  0.0393 -0.2073
14188TIP3    H163979   0.200   2.408   5.258  0.2262  0.1075 -0.1678
14188TIP3    H263980   0.217   2.558   5.247  1.0003 -0.0540 -1.2585
14189TIP3   OH263981   1.336   6.742  15.321  0.3745 -0.1296  0.0279
14189TIP3    H163982   1.380   6.682  15.382  0.2772 -0.3824 -0.1468
14189TIP3    H263983   1.334   6.826  15.367 -0.2906 -0.4758  0.6570
14190TIP3   OH263984   3.779   2.604  16.099 -0.3882 -0.0929 -0.3150
14190TIP3    H163985   3.872   2.590  16.119 -0.3387  0.0323 -0.4540
14190TIP3    H263986   3.777   2.618  16.005 -0.4297  0.8420 -0.1831
14191TIP3   OH263987   5.292   5.708  14.360 -0.4235 -0.4227 -0.5109
14191TIP3    H163988   5.315   5.731  14.450  1.5538 -1.9591 -0.5630
14191TIP3    H263989   5.197   5.714  14.358 -0.4105  1.4346  1.1461
14192TIP3   OH263990   5.296   1.071   3.121 -0.1092  0.0423 -0.0115
14192TIP3    H163991   5.265   1.141   3.064  0.7395  0.7820  0.4136
14192TIP3    H263992   5.356   1.020   3.066  1.8990  1.6426  0.5931
14193TIP3   OH263993   4.456   0.028   4.554 -0.7821 -0.6221  0.1605
14193TIP3    H163994   4.397   0.060   4.622  0.4939 -1.3928  1.7197
14193TIP3    H263995   4.543   0.053   4.585 -0.1502 -1.1556 -1.1175
14194TIP3   OH263996   6.028   4.032  15.775 -0.6903  0.7419  0.1432
14194TIP3    H163997   6.077   4.109  15.805  1.4545 -0.4170 -0.1952
14194TIP3    H263998   5.956   4.023  15.838  0.8672  1.1869  2.0750
14195TIP3   OH263999   0.113   6.173  12.267  0.4219 -0.2448 -0.7333
14195TIP3    H164000   0.123   6.167  12.362  0.0047  0.7730 -0.6150
14195TIP3    H264001   0.020   6.155  12.251  0.5464 -0.6913 -0.9802
14196TIP3   OH264002   1.397   5.044  13.424  0.1697  0.3776  0.8880
14196TIP3    H164003   1.363   5.007  13.506 -0.9147  0.5657  0.5448
14196TIP3    H264004   1.376   5.138  13.431  1.5624  0.6829  1.1115
14197TIP3   OH264005   0.711   4.794  13.036  0.0411  0.3592  0.2731
14197TIP3    H164006   0.658   4.870  13.012  0.0271 -0.3256 -2.1807
14197TIP3    H264007   0.793   4.805  12.987  0.5281 -0.6023  0.8286
14198TIP3   OH264008   6.605   3.689   5.464 -0.4455  0.3940  0.4693
14198TIP3    H164009   6.524   3.699   5.515  0.1438  1.5226  1.2292
14198TIP3    H264010   6.635   3.779   5.450  0.7348 -0.0199  0.2924
14199TIP3   OH264011   6.372   1.037  15.580 -0.0096 -0.1244 -0.1911
14199TIP3    H164012   6.302   1.017  15.519  1.0610  0.0532 -1.5151
14199TIP3    H264013   6.446   1.062  15.525  0.5081  1.6521  1.2248
14200TIP3   OH264014   2.635   5.811   0.555 -0.3519 -0.1763  0.1020
14200TIP3    H164015   2.601   5.860   0.630 -1.6065  0.2311 -0.7175
14200TIP3    H264016   2.622   5.719   0.580 -2.5803 -0.0545 -0.3543
14201TIP3   OH264017   2.719   4.857  15.625 -0.6827 -0.2280 -0.0723
14201TIP3    H164018   2.624   4.860  15.637 -0.7670  1.4289 -0.8126
14201TIP3    H264019   2.731   4.815  15.540 -0.7993  0.1077 -0.2581
14202TIP3   OH264020   6.024   2.127   2.185  0.0140  0.0629  0.1439
14202TIP3    H164021   6.116   2.113   2.165  0.2035 -0.6525  1.3438
14202TIP3    H264022   6.021   2.211   2.231 -0.2651  1.1524 -1.7782
14203TIP3   OH264023   0.975   0.254   1.737 -0.3805 -0.1646 -0.0653
14203TIP3    H164024   0.960   0.167   1.700 -0.2217 -0.0634 -0.3762
14203TIP3    H264025   0.954   0.314   1.665 -1.1364  0.0800  0.3529
14204TIP3   OH264026   5.258   0.918   1.904 -0.3239  0.4084 -0.0268
14204TIP3    H164027   5.239   0.937   1.812 -1.4170  0.4491  0.1923
14204TIP3    H264028   5.353   0.906   1.907 -0.3640 -0.4500 -1.3122
14205TIP3   OH264029   1.130   2.930   2.126 -0.0607  0.3396 -0.5125
14205TIP3    H164030   1.112   2.921   2.033 -0.2301 -0.4674 -0.4120
14205TIP3    H264031   1.089   2.852   2.166  2.8260 -1.1164 -0.1460
14206TIP3   OH264032   2.492   5.964   2.224 -0.3370 -0.0166 -0.0897
14206TIP3    H164033   2.527   5.925   2.144  0.4989 -1.1050  0.7657
14206TIP3    H264034   2.547   5.928   2.294 -2.3663 -0.7700  1.1971
14207TIP3   OH264035   3.458   1.941  10.839 -0.7505  0.1265 -0.2304
14207TIP3    H164036   3.363   1.933  10.847 -1.1670  0.9373 -3.0404
14207TIP3    H264037   3.470   2.009  10.773  1.8012 -0.0421 -0.0345
14208TIP3   OH264038   4.198   0.536   6.022 -0.2190 -0.4045  0.4125
14208TIP3    H164039   4.234   0.461   6.071 -0.0680 -0.7404 -0.2091
14208TIP3    H264040   4.147   0.496   5.952  1.1961  0.0564 -0.9285
14209TIP3   OH264041   5.978   4.429  16.328  0.6211 -0.1350 -0.4271
14209TIP3    H164042   5.928   4.508  16.308  0.2671 -0.3074 -0.2241
14209TIP3    H264043   5.914   4.358  16.325  0.6458 -0.2319  0.8067
14210TIP3   OH264044   3.382   1.317   1.538 -0.6215  0.0707  0.1648
14210TIP3    H164045   3.390   1.295   1.445 -1.0318 -1.0733  0.3848
14210TIP3    H264046   3.457   1.275   1.579 -0.7557  0.0952  0.4359
14211TIP3   OH264047   3.084   0.445   1.039 -0.4214  0.4262  0.6901
14211TIP3    H164048   3.170   0.422   1.003 -1.2538 -0.3239 -0.9565
14211TIP3    H264049   3.066   0.376   1.103 -0.9344 -1.0352 -0.9459
14212TIP3   OH264050   3.892   6.108   3.120  0.1939 -0.0127 -0.2558
14212TIP3    H164051   3.817   6.152   3.080  0.4368 -0.4431 -1.2192
14212TIP3    H264052   3.967   6.138   3.068  0.5720 -0.2834  0.1322
14213TIP3   OH264053   1.953   6.106   4.143 -0.4332 -0.2157  0.1020
14213TIP3    H164054   1.982   6.135   4.230  0.5381 -1.3665  0.1899
14213TIP3    H264055   1.914   6.019   4.159 -2.1363  0.4251 -0.3258
14214TIP3   OH264056   4.408   2.052  12.512  0.2164  0.3869 -0.2873
14214TIP3    H164057   4.341   2.110  12.547  1.0462  1.4184 -0.3917
14214TIP3    H264058   4.403   2.063  12.417 -0.0370 -0.1969 -0.3525
14215TIP3   OH264059   6.175   3.474   1.088  0.3657 -0.0641  0.0025
14215TIP3    H164060   6.091   3.443   1.121 -0.0655 -0.2702 -1.2616
14215TIP3    H264061   6.240   3.433   1.147 -0.3316 -1.1831  0.0223
14216TIP3   OH264062   6.721   5.962   3.313  0.5162 -0.0257 -0.4528
14216TIP3    H164063   6.743   5.882   3.361  1.0016  0.8301  0.7699
14216TIP3    H264064   6.803   5.989   3.272  0.9356  1.1525  1.1114
14217TIP3   OH264065   6.738   6.054  12.919 -0.0123  0.1794  0.8816
14217TIP3    H164066   6.713   6.006  12.840  0.0010 -1.1488  1.6603
14217TIP3    H264067   6.827   6.024  12.939 -0.2969 -0.0726  1.8221
14218TIP3   OH264068   5.031   2.987  13.775 -0.5938 -0.5932 -0.7752
14218TIP3    H164069   5.100   2.960  13.836  1.7952  4.0628 -0.9177
14218TIP3    H264070   4.970   3.037  13.829 -1.2211 -0.6670 -1.4083
14219TIP3   OH264071   5.851   2.821  15.706 -0.0331  0.1036  0.0255
14219TIP3    H164072   5.793   2.819  15.630 -1.3180 -1.1331  0.9927
14219TIP3    H264073   5.803   2.870  15.773  1.2067  1.4465  0.0070
14220TIP3   OH264074   5.631   3.425  16.127  0.1730  0.2370 -0.2418
14220TIP3    H164075   5.552   3.481  16.127  0.3979  1.0618  4.9419
14220TIP3    H264076   5.702   3.485  16.103 -0.3258  0.4226 -1.3131
14221TIP3   OH264077   3.954   6.735   1.376  0.1463  0.0573  0.7881
14221TIP3    H164078   3.970   6.641   1.387  1.5066  0.0729 -0.6347
14221TIP3    H264079   3.890   6.741   1.305  1.9244  0.1854 -0.9084
14222TIP3   OH264080   6.005   2.385  11.825 -0.2688  0.0604  0.0536
14222TIP3    H164081   6.037   2.313  11.879  1.5581 -0.5147 -1.6720
14222TIP3    H264082   5.917   2.358  11.799 -0.3527 -0.6290  0.9838
14223TIP3   OH264083   2.635   2.664   0.857  0.6066 -0.2026  0.1398
14223TIP3    H164084   2.675   2.581   0.829 -0.8708 -1.7360  2.2068
14223TIP3    H264085   2.664   2.674   0.948  0.0223  1.0619  0.2005
14224TIP3   OH264086   0.014   3.750   0.239 -0.4531 -0.1212 -0.1372
14224TIP3    H164087  -0.050   3.733   0.170 -0.3461 -0.2461 -0.2052
14224TIP3    H264088   0.093   3.778   0.193  0.0340 -1.4450 -0.1556
14225TIP3   OH264089   6.401   5.891   5.192 -0.4773  0.9511 -0.0737
14225TIP3    H164090   6.308   5.878   5.176 -0.5317  0.9672  0.2204
14225TIP3    H264091   6.415   5.985   5.180 -0.5224  0.9671 -0.0005
14226TIP3   OH264092   0.116   3.562  14.792 -0.4294 -0.4871  0.3386
14226TIP3    H164093   0.059   3.631  14.756 -0.2997  0.5471  1.9818
14226TIP3    H264094   0.128   3.501  14.720 -1.8909  0.3710 -0.7027
14227TIP3   OH264095   2.614   3.461  16.587  1.1967 -0.2082 -0.3720
14227TIP3    H164096   2.532   3.416  16.604 -0.0567  1.5008 -1.5311
14227TIP3    H264097   2.666   3.399  16.536 -0.0404 -0.7505 -1.0188
14228TIP3   OH264098   1.532   4.520   4.450 -0.2249 -0.1031  0.3969
14228TIP3    H164099   1.579   4.600   4.427 -1.0262  0.0304 -0.8539
14228TIP3    H264100   1.461   4.550   4.508 -0.5737  0.1251 -0.1338
14229TIP3   OH264101   4.591   0.534   1.859 -0.0192  0.4255  0.2958
14229TIP3    H164102   4.632   0.620   1.858  0.4136  0.2900  2.2968
14229TIP3    H264103   4.514   0.544   1.915 -0.6563 -0.2081 -0.4405
14230TIP3   OH264104   3.384   3.814   2.939 -0.1931  0.1233 -0.1609
14230TIP3    H164105   3.311   3.860   2.981  0.3781 -0.0469  1.0627
14230TIP3    H264106   3.349   3.727   2.919 -0.2185 -0.0915  0.7815
14231TIP3   OH264107   4.841   4.438  11.823  0.0500 -0.4876 -0.1509
14231TIP3    H164108   4.758   4.400  11.852 -0.0056  1.0251  1.8747
14231TIP3    H264109   4.820   4.483  11.742 -1.1825  0.0668  0.4498
14232TIP3   OH264110   0.982   2.567   2.537 -0.0192 -0.5508 -0.3463
14232TIP3    H164111   0.949   2.610   2.616  0.1035 -0.8841 -0.1097
14232TIP3    H264112   1.067   2.610   2.521  0.5709 -1.3764  0.4672
14233TIP3   OH264113   1.031   6.446   2.027 -0.2581  0.3908  0.0508
14233TIP3    H164114   1.125   6.442   2.045 -0.6931 -1.2947  2.4564
14233TIP3    H264115   1.019   6.531   1.986  2.1606  1.1723  0.7519
14234TIP3   OH264116   1.589   0.168  11.625 -0.1198 -0.3042 -0.3433
14234TIP3    H164117   1.612   0.243  11.679  0.3621 -0.2395 -0.6308
14234TIP3    H264118   1.494   0.162  11.631 -0.2184  0.6498 -0.7422
14235TIP3   OH264119   1.511   1.687  11.921 -0.2463 -0.2410 -0.1231
14235TIP3    H164120   1.554   1.606  11.948 -0.8075 -0.4981  0.0075
14235TIP3    H264121   1.495   1.676  11.828  0.0949 -0.0808 -0.2055
14236TIP3   OH264122   2.436   4.972   3.624  0.0585 -0.1055  0.5736
14236TIP3    H164123   2.510   4.912   3.632  0.7601  0.6840  0.1708
14236TIP3    H264124   2.381   4.952   3.700  0.8177 -0.5158  1.0315
14237TIP3   OH264125   5.412   0.708   3.318  0.5790 -0.4553  0.1489
14237TIP3    H164126   5.349   0.711   3.246  0.1402 -0.6762  0.5188
14237TIP3    H264127   5.487   0.659   3.283  0.1715 -0.9722 -0.0064
14238TIP3   OH264128   0.072   1.710   5.318 -0.4362 -0.2795 -0.4980
14238TIP3    H164129   0.141   1.665   5.366 -0.1686 -0.5901 -1.1608
14238TIP3    H264130   0.062   1.794   5.363 -0.2936 -0.6196  0.1798
14239TIP3   OH264131   4.705   3.562  16.673  0.6582  0.4405 -0.1704
14239TIP3    H164132   4.721   3.641  16.623  1.1940 -0.6693 -1.8303
14239TIP3    H264133   4.612   3.544  16.660  0.5519  0.7549  0.1509
14240TIP3   OH264134   1.029   5.909   3.013  0.5373  0.0306  0.2112
14240TIP3    H164135   1.074   5.908   3.097  0.9881 -1.2196 -0.0252
14240TIP3    H264136   1.094   5.877   2.951 -0.9569 -3.0205  0.0556
14241TIP3   OH264137   6.439   1.397   1.348 -0.1794 -0.0447 -0.1416
14241TIP3    H164138   6.455   1.332   1.279 -2.2315 -0.6241 -0.1240
14241TIP3    H264139   6.499   1.371   1.419 -0.2102 -1.2866 -0.5433
14242TIP3   OH264140   5.208   0.307   2.001 -0.4877 -0.1123  0.5936
14242TIP3    H164141   5.240   0.345   1.920 -0.8205 -3.7280 -1.4431
14242TIP3    H264142   5.119   0.342   2.010 -0.2728  0.7055 -0.3173
14243TIP3   OH264143   2.221   5.396   1.322 -0.5839  0.3401  0.2327
14243TIP3    H164144   2.296   5.380   1.265 -0.8948  1.8936 -0.6751
14243TIP3    H264145   2.252   5.374   1.410  0.8102  0.5542 -0.1789
14244TIP3   OH264146   5.929   1.382  12.777 -0.0377 -0.3213 -0.3776
14244TIP3    H164147   5.931   1.416  12.688  0.3962 -0.9251 -0.5999
14244TIP3    H264148   6.003   1.424  12.821  1.6736 -2.3558 -1.1746
14245TIP3   OH264149   3.244   4.183  12.232  0.0149 -0.0448  0.1026
14245TIP3    H164150   3.208   4.103  12.194  0.0257 -0.1067  0.2244
14245TIP3    H264151   3.205   4.189  12.319 -2.0717  1.4523 -0.8464
14246TIP3   OH264152   0.564   4.200  12.505  0.4972  0.2930  0.4724
14246TIP3    H164153   0.501   4.271  12.509  2.1391  1.7861  0.8638
14246TIP3    H264154   0.512   4.121  12.522 -0.9799  1.6156  2.5791
14247TIP3   OH264155   5.447   5.120  16.476 -0.0759  0.5222 -1.0066
14247TIP3    H164156   5.447   5.025  16.464  0.2668  0.6974 -2.5062
14247TIP3    H264157   5.536   5.147  16.453  0.1128  1.1314  0.3014
14248TIP3   OH264158   5.440   0.565   4.209  0.0776 -0.6154 -0.2066
14248TIP3    H164159   5.532   0.540   4.198 -0.0857 -0.7451 -1.3820
14248TIP3    H264160   5.431   0.645   4.157 -0.4387 -0.5005  0.0552
14249TIP3   OH264161   5.620   3.748   2.241  0.0536  0.3922 -0.1148
14249TIP3    H164162   5.692   3.771   2.300 -0.0822 -1.1858  0.7224
14249TIP3    H264163   5.573   3.679   2.287 -0.6819 -0.1585 -1.6391
14250TIP3   OH264164   2.256   4.974  15.259 -0.1571  0.4303 -0.5031
14250TIP3    H164165   2.344   5.003  15.236  0.6870 -1.8983 -0.4342
14250TIP3    H264166   2.226   5.039  15.323  1.9456  0.6828  0.3116
14251TIP3   OH264167   1.324   2.671   1.729 -0.4470  0.1590 -0.3476
14251TIP3    H164168   1.416   2.691   1.711  0.0513  1.0534  2.6450
14251TIP3    H264169   1.324   2.578   1.752  0.1185  0.5913  1.5574
14252TIP3   OH264170   5.339   2.590  14.935  0.1792  0.1703  0.1958
14252TIP3    H164171   5.334   2.535  15.014  0.8101  1.6845  1.3492
14252TIP3    H264172   5.252   2.586  14.897  0.4447 -2.3516 -0.2921
14253TIP3   OH264173   6.076   0.332  16.401  0.1277 -0.3333 -0.2535
14253TIP3    H164174   6.041   0.387  16.331 -0.7743 -1.2109 -0.5102
14253TIP3    H264175   6.076   0.389  16.478 -0.7903  0.0328 -0.5104
14254TIP3   OH264176   4.748   3.726  15.391  0.0813 -0.3287 -0.6714
14254TIP3    H164177   4.809   3.724  15.317  0.6394  1.6859 -0.3326
14254TIP3    H264178   4.664   3.703  15.353  0.2489  1.2337 -2.1124
14255TIP3   OH264179   0.568   4.296   5.219  0.0173 -0.0041 -0.4007
14255TIP3    H164180   0.474   4.294   5.202 -0.0464  1.8997 -0.4400
14255TIP3    H264181   0.575   4.298   5.315 -0.0221  0.8668 -0.4139
14256TIP3   OH264182   0.830   1.340   1.856  0.4943 -0.6651  0.1701
14256TIP3    H164183   0.833   1.417   1.913  0.1970  0.0964 -0.8081
14256TIP3    H264184   0.879   1.273   1.903  0.1440 -0.1067  1.3759
14257TIP3   OH264185   3.761   5.370   1.383  0.1543  0.0397  0.1958
14257TIP3    H164186   3.806   5.452   1.361 -0.5646  0.7400  1.2269
14257TIP3    H264187   3.680   5.373   1.332  0.7636 -0.7334 -0.8653
14258TIP3   OH264188   0.839   4.362  14.721  0.1561  0.0539 -0.3226
14258TIP3    H164189   0.745   4.352  14.738  0.4555  0.3391  1.7389
14258TIP3    H264190   0.846   4.447  14.677 -0.4096  1.0566  1.3926
14259TIP3   OH264191   0.608   2.139  15.336 -0.3038 -0.2898 -0.1391
14259TIP3    H164192   0.691   2.163  15.296  0.3765 -1.3646  0.5575
14259TIP3    H264193   0.625   2.054  15.378 -1.6374 -0.3432  0.3629
14260TIP3   OH264194   1.590   0.106  10.738 -0.2091  0.4634 -0.1996
14260TIP3    H164195   1.593   0.138  10.648 -1.7696  2.4202  0.3609
14260TIP3    H264196   1.663   0.150  10.783 -0.7036  1.1682 -0.0607
14261TIP3   OH264197   4.444   6.336   3.778 -0.3361 -0.2147  0.4087
14261TIP3    H164198   4.398   6.316   3.697 -0.8275 -2.6987  1.2091
14261TIP3    H264199   4.534   6.355   3.751 -1.3328  3.2628 -1.0374
14262TIP3   OH264200   3.204   4.646  15.751 -0.8811 -0.0931 -0.3734
14262TIP3    H164201   3.123   4.604  15.722 -0.1811 -1.4065 -0.5009
14262TIP3    H264202   3.245   4.581  15.808  0.2098  0.4451 -0.5284
14263TIP3   OH264203   0.050   4.592   1.368  0.1641 -0.0205 -0.0492
14263TIP3    H164204   0.118   4.525   1.359 -0.7276 -1.1105  0.9192
14263TIP3    H264205  -0.002   4.584   1.289 -0.3337 -0.9655  0.3568
14264TIP3   OH264206   5.452   5.116  15.705  0.3983 -0.2473  0.2771
14264TIP3    H164207   5.391   5.055  15.746  0.1865 -2.1118 -2.5105
14264TIP3    H264208   5.415   5.132  15.618  3.0178 -0.1903 -0.9272
14265TIP3   OH264209   1.464   3.496  12.886 -0.1266 -0.1523  0.2828
14265TIP3    H164210   1.467   3.534  12.974 -1.6956  0.8954 -0.0751
14265TIP3    H264211   1.371   3.490  12.866  0.1109 -2.9195 -0.2701
14266TIP3   OH264212   0.873   1.985   3.427 -0.3427  0.0162 -0.0196
14266TIP3    H164213   0.842   1.895   3.419 -0.0259 -0.1220  0.2685
14266TIP3    H264214   0.850   2.026   3.344 -2.4617  0.2863  0.6481
14267TIP3   OH264215   4.337   5.905  11.159 -0.6208 -0.0652 -0.2775
14267TIP3    H164216   4.417   5.927  11.205  0.0293 -1.2489 -0.7927
14267TIP3    H264217   4.354   5.926  11.068  0.2655 -3.0012 -0.9094
14268TIP3   OH264218   4.848   1.833  14.638  0.2876  0.1224  0.6725
14268TIP3    H164219   4.795   1.866  14.566  0.8954  0.4017  0.3363
14268TIP3    H264220   4.877   1.746  14.609 -0.6315 -0.3670  1.1987
14269TIP3   OH264221   5.840   1.043  11.367 -0.2056  0.1792  0.3977
14269TIP3    H164222   5.903   1.110  11.392 -0.1810  0.9429 -1.5190
14269TIP3    H264223   5.757   1.090  11.355  0.1452  0.2297 -2.4379
14270TIP3   OH264224   0.330   3.201  16.738 -0.0107  0.1929 -0.0729
14270TIP3    H164225   0.303   3.229  16.825 -1.6229  1.1946 -0.8396
14270TIP3    H264226   0.288   3.263  16.679  2.5147  0.6651 -1.5142
14271TIP3   OH264227   3.286   0.044   2.874  0.5751  0.1746  0.4843
14271TIP3    H164228   3.245   0.131   2.871  0.6488  0.2375  1.1804
14271TIP3    H264229   3.223  -0.010   2.922 -0.1775 -0.5527 -1.2605
14272TIP3   OH264230   4.815   5.924  16.488  0.3031  0.4938  0.2151
14272TIP3    H164231   4.757   5.855  16.521 -0.8868  2.0061  1.4405
14272TIP3    H264232   4.878   5.878  16.433 -0.3750 -1.5753  1.0767
14273TIP3   OH264233   1.059   5.127   4.474  0.1644 -0.3573 -0.0229
14273TIP3    H164234   1.075   5.081   4.392 -1.0123 -0.4401 -0.2209
14273TIP3    H264235   0.975   5.171   4.462  1.3846  2.1635  0.0309
14274TIP3   OH264236   3.234   5.364  16.121 -0.1936 -0.3371 -0.3656
14274TIP3    H164237   3.307   5.421  16.098 -0.3532  0.8707  1.8166
14274TIP3    H264238   3.161   5.423  16.137 -0.9166 -1.3105  0.0713
14275TIP3   OH264239   3.700   3.372   5.352 -0.5969 -0.0885  0.1261
14275TIP3    H164240   3.652   3.306   5.303  0.8999 -1.4890  0.4285
14275TIP3    H264241   3.641   3.398   5.422 -2.0149  0.4967 -1.2362
14276TIP3   OH264242   6.168   2.728  10.801 -0.6332  0.3251  0.1094
14276TIP3    H164243   6.228   2.698  10.733  0.3777  2.3052  0.0517
14276TIP3    H264244   6.082   2.727  10.759 -0.1886  0.3817 -0.8296
14277TIP3   OH264245   3.309   4.621   1.062  0.1426 -1.0401 -0.2203
14277TIP3    H164246   3.360   4.582   0.991  0.3410 -1.6770  0.2632
14277TIP3    H264247   3.322   4.715   1.052  0.9464 -1.1671 -0.4528
14278TIP3   OH264248   5.777   4.297  14.278  0.3094  0.1874  0.4965
14278TIP3    H164249   5.692   4.325  14.312  0.1934  1.7614 -0.9730
14278TIP3    H264250   5.757   4.239  14.205  0.5098 -0.0401  0.6196
14279TIP3   OH264251   1.315   1.094   4.551 -0.1778  0.1992  0.2199
14279TIP3    H164252   1.336   1.131   4.637  1.0835  1.7258 -0.6880
14279TIP3    H264253   1.312   1.169   4.493 -1.0534 -0.8020 -1.0852
14280TIP3   OH264254   1.645   3.176  14.012  0.0909  0.2300 -0.3091
14280TIP3    H164255   1.666   3.128  13.932 -0.6574 -2.0153  0.7373
14280TIP3    H264256   1.553   3.156  14.028  0.7264 -1.1234  2.1520
14281TIP3   OH264257   3.239   0.085   1.718 -0.9835 -0.2997 -0.3679
14281TIP3    H164258   3.198   0.114   1.800  0.6515  0.4119  0.2358
14281TIP3    H264259   3.302   0.154   1.697 -2.0649  0.0384 -2.8088
14282TIP3   OH264260   3.263   5.537   0.088 -0.3332  0.3996  0.0065
14282TIP3    H164261   3.223   5.615   0.050 -0.1957  0.8109  0.6892
14282TIP3    H264262   3.307   5.568   0.167  0.1053 -0.2940  0.0494
14283TIP3   OH264263   1.803   6.594   5.678  0.2285  0.1109 -0.3558
14283TIP3    H164264   1.775   6.643   5.755  0.6805  0.0017 -0.1168
14283TIP3    H264265   1.760   6.509   5.688 -1.8421  0.9555 -1.5875
14284TIP3   OH264266   1.214   6.520   0.301 -0.3334 -0.1914  0.3175
14284TIP3    H164267   1.218   6.441   0.353 -0.1035 -1.5801 -1.6916
14284TIP3    H264268   1.125   6.524   0.268 -0.8146  1.2986  1.6420
14285TIP3   OH264269   6.068   3.165  15.138 -0.3173  0.3242  0.1451
14285TIP3    H164270   6.003   3.216  15.186  0.7819  1.0145  0.9535
14285TIP3    H264271   6.124   3.231  15.095 -1.3488 -0.2555 -2.2830
14286TIP3   OH264272   6.487   4.447   6.308  0.0094 -0.2664 -0.3347
14286TIP3    H164273   6.504   4.517   6.370  0.1340  0.2810 -0.9769
14286TIP3    H264274   6.434   4.384   6.357 -1.0404  0.7815 -0.0649
14287TIP3   OH264275   4.074   6.312  16.243 -0.9073  0.2328 -0.6797
14287TIP3    H164276   4.168   6.312  16.261 -0.4907 -0.6248 -2.5767
14287TIP3    H264277   4.039   6.241  16.297 -0.1227 -0.7480 -1.4422
14288TIP3   OH264278   4.230   0.818  10.807  0.4489 -0.3203  0.3068
14288TIP3    H164279   4.165   0.804  10.875  0.3167  0.5560  0.3647
14288TIP3    H264280   4.190   0.880  10.747  0.6409 -0.9330 -0.4824
14289TIP3   OH264281   2.795   0.026  16.898 -0.2226  0.5139 -0.4349
14289TIP3    H164282   2.748   0.050  16.819  0.1388  0.1918 -0.7493
14289TIP3    H264283   2.728   0.026  16.967 -0.3312  1.8680 -0.5259
14290TIP3   OH264284   0.721   3.334   0.444  0.2826  0.5563  0.2456
14290TIP3    H164285   0.767   3.418   0.443  1.8741 -0.2655  1.0352
14290TIP3    H264286   0.733   3.299   0.355 -0.4126  1.1592 -0.0942
14291TIP3   OH264287   0.112   2.355  12.380  0.2345  0.1805 -0.4142
14291TIP3    H164288   0.062   2.283  12.419  0.6324  0.5785  0.8436
14291TIP3    H264289   0.153   2.316  12.302  0.2501 -0.8839  0.1183
14292TIP3   OH264290   3.454   6.783   3.423 -0.4567  0.5062 -0.2995
14292TIP3    H164291   3.430   6.732   3.500 -0.5489 -0.2357 -0.8075
14292TIP3    H264292   3.536   6.744   3.394 -0.7638  0.3469 -0.9622
14293TIP3   OH264293   5.941   6.360  14.802 -0.1310  0.2428  0.0458
14293TIP3    H164294   5.952   6.265  14.811 -0.8274  0.0810 -0.6245
14293TIP3    H264295   5.919   6.390  14.890 -2.8704 -0.6818 -0.2262
14294TIP3   OH264296   1.077   1.247   0.492 -1.3456 -0.5034  0.0376
14294TIP3    H164297   1.083   1.255   0.587 -0.0392  0.0810 -0.0696
14294TIP3    H264298   1.110   1.159   0.473  0.0534  0.0095  0.0127
14295TIP3   OH264299   2.710   3.857   5.276  0.2039  0.2322 -0.1006
14295TIP3    H164300   2.629   3.900   5.304 -0.3038 -0.3221 -0.7107
14295TIP3    H264301   2.716   3.778   5.331  0.3244  0.2634 -0.0676
14296TIP3   OH264302   1.392   3.613   1.998 -0.8479  0.3623  0.5055
14296TIP3    H164303   1.304   3.589   1.971 -1.1390  0.9302  0.9394
14296TIP3    H264304   1.400   3.705   1.972 -0.4446  0.3632  0.6309
14297TIP3   OH264305   4.615   4.691   2.094  0.1011 -0.2096  0.3223
14297TIP3    H164306   4.632   4.777   2.133 -2.2510  0.2033  0.6174
14297TIP3    H264307   4.556   4.649   2.156  3.1205 -3.1449  1.4762
14298TIP3   OH264308   5.640   4.918   1.614  0.5302  0.2882  0.0627
14298TIP3    H164309   5.591   4.838   1.594 -2.2679  1.7749  0.4909
14298TIP3    H264310   5.670   4.905   1.704  0.0988 -0.2994  0.1319
14299TIP3   OH264311   4.110   5.657  14.961 -0.2461  0.1480 -0.0463
14299TIP3    H164312   4.030   5.709  14.967 -0.1886  0.1881  0.4479
14299TIP3    H264313   4.081   5.571  14.933 -0.3211  0.4871 -1.0627
14300TIP3   OH264314   6.204   0.467   4.807  0.2024 -0.2947  0.0093
14300TIP3    H164315   6.177   0.405   4.875 -0.6343  0.0726  0.0286
14300TIP3    H264316   6.293   0.491   4.829  0.2878 -0.9614  0.3978
14301TIP3   OH264317   1.160   3.517   4.922 -0.7787 -0.6282  0.0082
14301TIP3    H164318   1.185   3.425   4.933  1.0722 -0.2559 -0.7008
14301TIP3    H264319   1.218   3.565   4.982  1.2732  0.3943 -2.5901
14302TIP3   OH264320   3.949   6.239  12.604  0.0133 -0.0859  0.1686
14302TIP3    H164321   3.986   6.151  12.596  1.0881  0.3572  0.0834
14302TIP3    H264322   4.025   6.297  12.601 -0.5629  0.7838  1.4805
14303TIP3   OH264323   4.224   3.755  11.241 -0.3734 -0.1517  0.5524
14303TIP3    H164324   4.199   3.689  11.306  0.4206 -1.8176 -0.7769
14303TIP3    H264325   4.174   3.733  11.163  1.2485 -0.3126 -0.4819
14304TIP3   OH264326   1.423   0.141   4.456  0.0008 -0.4859 -0.5352
14304TIP3    H164327   1.461   0.198   4.523  0.1153 -0.3846 -0.6841
14304TIP3    H264328   1.360   0.196   4.410 -1.9511 -1.2342  1.0936
14305TIP3   OH264329   2.878   1.949  13.014  0.9066  0.5319 -0.8296
14305TIP3    H164330   2.921   2.000  13.083  0.3065  0.9406 -0.7442
14305TIP3    H264331   2.815   1.894  13.061  0.8126  0.4831 -1.0135
14306TIP3   OH264332   2.395   4.636  12.504  0.4302 -0.0629  0.3429
14306TIP3    H164333   2.344   4.576  12.558 -1.9910  0.6310 -1.0024
14306TIP3    H264334   2.426   4.703  12.565  2.2788 -2.0177  1.6735
14307TIP3   OH264335   4.697   6.337  12.826 -0.0118 -0.3805 -0.2604
14307TIP3    H164336   4.732   6.249  12.844 -0.1655 -0.7705 -1.7582
14307TIP3    H264337   4.716   6.352  12.734 -2.4307  0.0053 -0.7746
14308TIP3   OH264338   3.618   4.370  16.877 -0.0930  0.2826  0.6613
14308TIP3    H164339   3.701   4.383  16.924  0.1707  2.4418 -0.3128
14308TIP3    H264340   3.575   4.455  16.878  0.3533  0.7770 -3.7060
14309TIP3   OH264341   0.681   3.080   1.332  0.1165  0.3184  0.0991
14309TIP3    H164342   0.610   3.102   1.272  1.4525 -1.8610 -2.5090
14309TIP3    H264343   0.759   3.077   1.277  1.2548 -3.0715  1.5893
14310TIP3   OH264344   0.326   1.375  16.132  0.1205  0.3526 -0.0783
14310TIP3    H164345   0.241   1.359  16.093  0.1082  1.6870 -0.6776
14310TIP3    H264346   0.319   1.339  16.220 -0.1152 -2.0024 -0.9949
14311TIP3   OH264347   6.639   6.212  14.987  0.7023 -0.0548 -0.2612
14311TIP3    H164348   6.662   6.119  14.999  3.6211  0.6093  0.1245
14311TIP3    H264349   6.679   6.256  15.062  0.8675  1.7125 -1.3274
14312TIP3   OH264350   3.385   3.556  12.203  0.4879  0.3544  0.3089
14312TIP3    H164351   3.365   3.643  12.237 -0.4029  0.1358  0.3704
14312TIP3    H264352   3.302   3.525  12.166  1.3674  0.5478 -2.0363
14313TIP3   OH264353   4.317   2.679   1.194 -0.5004 -0.1286  0.4096
14313TIP3    H164354   4.255   2.739   1.236  1.4433  1.5155  1.1578
14313TIP3    H264355   4.265   2.604   1.168 -2.8409  1.3029  0.6657
14314TIP3   OH264356   1.825   3.829  11.624 -0.2443 -0.3522 -0.0027
14314TIP3    H164357   1.826   3.879  11.705 -0.0895  0.7567 -0.6645
14314TIP3    H264358   1.737   3.790  11.622  0.1057 -1.2340  1.1752
14315TIP3   OH264359   5.895   6.306  11.711 -0.2320  0.2073  0.2116
14315TIP3    H164360   5.885   6.222  11.666 -1.7300  0.0691  0.7349
14315TIP3    H264361   5.870   6.371  11.645 -0.3462  0.1480  0.1950
14316TIP3   OH264362   1.697   1.930  16.659 -0.4896 -0.1738 -0.4019
14316TIP3    H164363   1.649   2.002  16.619  0.6387  0.3705 -0.8165
14316TIP3    H264364   1.758   1.972  16.720  1.6612 -0.5537 -2.1568
14317TIP3   OH264365   2.770   3.304  16.423  0.0027  0.0527 -0.0992
14317TIP3    H164366   2.818   3.228  16.388 -0.4410 -0.3360  0.1266
14317TIP3    H264367   2.823   3.379  16.397  0.5236 -0.3426 -0.2123
14318TIP3   OH264368   1.356   5.297   0.881 -0.2928  0.4009 -0.1407
14318TIP3    H164369   1.327   5.237   0.949  1.0812  1.6540  1.6665
14318TIP3    H264370   1.450   5.283   0.875 -0.2384  1.0469 -1.0344
14319TIP3   OH264371   1.578   5.100  15.204  0.2576 -0.0651 -0.4853
14319TIP3    H164372   1.641   5.045  15.251  0.6695  0.6521 -0.1698
14319TIP3    H264373   1.632   5.170  15.166 -0.5380  1.7317  1.4807
14320TIP3   OH264374   5.203   0.214  10.909  0.6679 -0.1827 -0.2459
14320TIP3    H164375   5.163   0.263  10.837 -2.3504  0.6613  1.7948
14320TIP3    H264376   5.245   0.281  10.964  0.2753 -0.3916  0.3221
14321TIP3   OH264377   4.456   0.326  11.296  0.4774 -0.2615 -0.1832
14321TIP3    H164378   4.409   0.296  11.374 -0.3947  0.7528 -0.2944
14321TIP3    H264379   4.498   0.407  11.324 -0.8273  0.7614 -1.0741
14322TIP3   OH264380   5.240   3.459  15.146 -0.1698  0.0324 -0.0895
14322TIP3    H164381   5.170   3.405  15.184 -0.9647 -0.4690 -2.0943
14322TIP3    H264382   5.219   3.462  15.052  2.3161  0.1548 -0.7118
14323TIP3   OH264383   2.979   3.239   4.213  0.3127  0.3035  0.0252
14323TIP3    H164384   2.933   3.320   4.236  0.6424  1.3081 -2.5816
14323TIP3    H264385   2.914   3.170   4.227 -0.0828  1.0029  1.9700
14324TIP3   OH264386   6.257   2.926  11.788  0.4681  0.3563  0.1939
14324TIP3    H164387   6.230   2.834  11.781 -0.2914  0.7028 -2.1416
14324TIP3    H264388   6.191   2.965  11.846 -0.0296 -0.2740  0.0662
14325TIP3   OH264389   2.545   0.078  15.793 -0.1836  0.2697  0.1740
14325TIP3    H164390   2.605   0.038  15.730  0.4202 -0.1180  0.9846
14325TIP3    H264391   2.458   0.053  15.763  0.1833 -2.2147  0.9894
14326TIP3   OH264392   2.811   1.561   4.645 -0.3979  0.0439 -0.3469
14326TIP3    H164393   2.831   1.507   4.569  1.5047 -0.1371  0.2313
14326TIP3    H264394   2.893   1.565   4.694 -0.8435  2.2961  0.3539
14327TIP3   OH264395   2.852   5.824  15.460  0.1829 -0.2692  0.1425
14327TIP3    H164396   2.814   5.883  15.526  2.4838  0.7017  0.6803
14327TIP3    H264397   2.823   5.737  15.486 -1.7546  0.4023  0.4140
14328TIP3   OH264398   5.363   2.657   4.877  0.8923 -0.0929 -0.5280
14328TIP3    H164399   5.345   2.727   4.815  0.4529 -0.3449 -0.6878
14328TIP3    H264400   5.298   2.589   4.857  1.5228 -0.6859 -0.5944
14329TIP3   OH264401   0.470   2.924  15.014 -0.6325  0.1293  0.4316
14329TIP3    H164402   0.530   2.868  15.063  2.0016  1.1742 -1.3667
14329TIP3    H264403   0.407   2.864  14.975  1.3060 -1.4902 -0.3733
14330TIP3   OH264404   6.403   6.734  12.005  0.1842 -0.0631 -0.0370
14330TIP3    H164405   6.346   6.659  12.024  0.9011 -0.5332  0.2940
14330TIP3    H264406   6.342   6.807  11.993 -0.5563 -0.7944 -0.9035
14331TIP3   OH264407   5.603   1.583   2.384 -0.0350 -0.3853  0.2231
14331TIP3    H164408   5.608   1.672   2.419  2.2973  0.4729 -1.9401
14331TIP3    H264409   5.664   1.532   2.438 -3.6645 -1.6635  3.5433
14332TIP3   OH264410   4.566   1.810  13.585 -0.3902  0.3632 -0.4245
14332TIP3    H164411   4.623   1.783  13.658 -1.8939  0.9614  1.0356
14332TIP3    H264412   4.482   1.830  13.626 -1.8940 -1.0883 -2.5808
14333TIP3   OH264413   0.205   5.658   5.554  0.0376  0.2787 -0.6569
14333TIP3    H164414   0.269   5.729   5.559  3.1813 -2.3526 -0.2682
14333TIP3    H264415   0.214   5.625   5.464 -0.0044 -0.7263 -0.3051
14334TIP3   OH264416   0.226   4.369  15.468 -0.0543 -0.0465  0.5619
14334TIP3    H164417   0.265   4.398  15.551  2.1203 -2.3821  0.4733
14334TIP3    H264418   0.257   4.432  15.404  2.4629 -0.9717  0.7664
14335TIP3   OH264419   2.603   0.189  12.195 -0.3457  0.1879 -0.2327
14335TIP3    H164420   2.592   0.095  12.210 -0.3202  0.3402  0.8203
14335TIP3    H264421   2.691   0.207  12.227  1.5775 -0.2277 -4.5765
14336TIP3   OH264422   4.096   6.385  15.059  0.0065  0.1660  0.0415
14336TIP3    H164423   4.149   6.449  15.011 -1.4533  1.4328  0.0376
14336TIP3    H264424   4.147   6.365  15.137  0.3908  1.5698  0.1759
14337TIP3   OH264425   0.481   5.589   4.930 -0.4055 -0.1887  0.7207
14337TIP3    H164426   0.574   5.609   4.942 -0.8802  1.9143  1.3269
14337TIP3    H264427   0.480   5.522   4.862  1.5590 -0.4158  0.8482
14338TIP3   OH264428   6.724   2.566  12.196 -0.4000  0.2779  0.0015
14338TIP3    H164429   6.770   2.611  12.125 -1.3322 -0.1014 -0.8559
14338TIP3    H264430   6.764   2.602  12.276 -0.1052  1.5281 -0.6794
14339TIP3   OH264431   4.607   5.674   6.605  0.1764  0.2315 -0.3806
14339TIP3    H164432   4.517   5.653   6.580  0.3874 -1.5230  0.1869
14339TIP3    H264433   4.653   5.589   6.605  1.0494  0.5950  2.3560
14340TIP3   OH264434   3.843   1.429   6.551  0.4694 -0.1163 -0.0237
14340TIP3    H164435   3.758   1.470   6.570  1.3915  1.5511  0.7048
14340TIP3    H264436   3.853   1.363   6.619  0.3811  0.6631  0.7633
14341TIP3   OH264437   1.077   5.042   0.165 -0.3850 -0.1745 -0.1934
14341TIP3    H164438   1.155   5.013   0.119  0.1586  0.4556  0.3191
14341TIP3    H264439   1.110   5.090   0.241 -1.2564  0.9466 -0.4919
14342TIP3   OH264440   5.044   3.478  11.455  0.2626 -0.5858 -0.2724
14342TIP3    H164441   4.957   3.515  11.471  0.2468 -1.2988  1.5806
14342TIP3    H264442   5.098   3.554  11.433 -0.4142  0.1450  0.4790
14343TIP3   OH264443   2.819   5.513  15.504 -0.1221 -0.2419  0.1947
14343TIP3    H164444   2.765   5.447  15.547  0.9496 -1.1867  0.1446
14343TIP3    H264445   2.909   5.488  15.526  0.3223  1.0346 -0.0785
14344TIP3   OH264446   0.731   2.885   1.687  0.2387  0.2357 -0.1939
14344TIP3    H164447   0.694   2.876   1.599 -1.0480  0.6201  0.2789
14344TIP3    H264448   0.703   2.971   1.716 -1.1562 -0.6836  1.3662
14345TIP3   OH264449   0.355   2.403   3.651 -0.0993 -0.1805 -0.2448
14345TIP3    H164450   0.335   2.477   3.710  1.4273  0.6979 -0.7842
14345TIP3    H264451   0.450   2.404   3.642 -0.2813 -0.0277 -3.0355
14346TIP3   OH264452   4.104   4.431   3.399  0.2775 -0.6159 -0.0296
14346TIP3    H164453   4.047   4.502   3.369  0.6571  0.0297  0.7378
14346TIP3    H264454   4.129   4.457   3.487  2.3512 -0.5166 -0.6023
14347TIP3   OH264455   0.581   6.614  14.332 -0.5004 -0.2679  0.0516
14347TIP3    H164456   0.675   6.602  14.346  0.4772  0.0148 -4.7623
14347TIP3    H264457   0.541   6.532  14.361  1.2246 -0.6107  1.6406
14348TIP3   OH264458   0.694   3.347   3.601  0.2690 -0.2244 -0.1789
14348TIP3    H164459   0.780   3.309   3.615  0.9418  0.5947 -1.7767
14348TIP3    H264460   0.649   3.285   3.544 -0.4360 -0.9157  1.0816
14349TIP3   OH264461   2.371   2.392   5.350 -0.3334 -0.2307  0.1928
14349TIP3    H164462   2.335   2.469   5.305 -0.8734 -1.5466 -1.7798
14349TIP3    H264463   2.314   2.320   5.323 -0.8896 -1.1054  3.3617
14350TIP3   OH264464   2.222   4.227  11.763 -0.7357 -0.4851 -0.1689
14350TIP3    H164465   2.266   4.146  11.735  1.4178  0.4907  0.1481
14350TIP3    H264466   2.247   4.292  11.698 -1.3704  0.2289  0.2789
14351TIP3   OH264467   5.594   2.969  13.847 -0.2415  0.6117  0.2958
14351TIP3    H164468   5.523   3.018  13.889 -0.7937 -0.5939  0.8552
14351TIP3    H264469   5.621   3.022  13.773 -1.2571  1.4257  0.4948
14352TIP3   OH264470   3.758   5.459  15.764 -0.3358  0.2199 -0.2434
14352TIP3    H164471   3.819   5.458  15.837  0.7156 -0.3560 -1.0980
14352TIP3    H264472   3.809   5.426  15.690 -1.4844  0.4060 -1.1453
14353TIP3   OH264473   0.499   1.537  14.079 -0.0185 -0.0725  0.0617
14353TIP3    H164474   0.563   1.588  14.028 -1.1434  2.0293  0.6248
14353TIP3    H264475   0.471   1.468  14.020  2.9248 -1.2666 -0.1216
14354TIP3   OH264476   3.156   0.103   1.464 -0.3033 -0.3755 -0.3687
14354TIP3    H164477   3.218   0.097   1.536  0.0345 -0.0750 -0.6301
14354TIP3    H264478   3.169   0.022   1.414 -1.0385 -0.9163  0.2979
14355TIP3   OH264479   0.467   0.880  16.770 -0.4145  0.2820 -0.4431
14355TIP3    H164480   0.540   0.855  16.826 -0.0284  1.5145 -0.3625
14355TIP3    H264481   0.398   0.906  16.831 -0.4837  0.2848 -0.5226
14356TIP3   OH264482   1.601   0.461   3.631  0.3591 -0.1508  0.1189
14356TIP3    H164483   1.638   0.450   3.544 -0.6204  1.1430 -0.4935
14356TIP3    H264484   1.602   0.555   3.646 -1.1251 -0.2107  0.7470
14357TIP3   OH264485   6.206   0.090   2.408 -0.1061  0.2694 -0.0635
14357TIP3    H164486   6.259   0.132   2.339 -1.5856  1.3999 -0.5764
14357TIP3    H264487   6.130   0.055   2.361  0.8995 -2.8017  0.4148
14358TIP3   OH264488   5.688   4.533  12.091 -0.4956  0.4005  0.2145
14358TIP3    H164489   5.692   4.595  12.164  1.7863 -0.8100  1.1904
14358TIP3    H264490   5.610   4.481  12.109 -0.2997  0.5095  1.4805
14359TIP3   OH264491   0.971   0.362  12.500 -0.3891  0.3107  0.1428
14359TIP3    H164492   1.007   0.444  12.533  0.0829  0.4327 -0.6590
14359TIP3    H264493   0.963   0.306  12.578  0.7486  0.5708  0.4609
14360TIP3   OH264494   3.456   0.959   5.294  0.2880 -0.0626 -0.0650
14360TIP3    H164495   3.415   1.020   5.233  1.8866  0.0749 -1.0446
14360TIP3    H264496   3.548   0.983   5.295  0.3929 -0.3369  2.1183
14361TIP3   OH264497   5.675   0.672   1.191 -0.3981  0.1836  0.5271
14361TIP3    H164498   5.751   0.620   1.216 -0.7142 -0.4725  0.1605
14361TIP3    H264499   5.698   0.762   1.214  0.1850 -0.1100  1.1052
14362TIP3   OH264500   0.930   1.849   4.307 -0.3303  0.5411  0.3520
14362TIP3    H164501   0.869   1.922   4.316 -0.7927  0.3014 -0.6190
14362TIP3    H264502   0.999   1.866   4.371 -1.0959  1.1427  1.0346
14363TIP3   OH264503   6.477   2.929   2.740 -0.5245  0.8913 -0.6369
14363TIP3    H164504   6.475   2.862   2.672 -1.0598 -0.7288  0.8919
14363TIP3    H264505   6.392   2.973   2.732 -1.6201 -0.8721  0.3961
14364TIP3   OH264506   4.968   5.528   2.224  0.3671 -0.1680 -0.5549
14364TIP3    H164507   4.875   5.542   2.208  0.3335  0.2631 -0.0104
14364TIP3    H264508   5.001   5.491   2.142  0.2372  2.0795 -1.7026
14365TIP3   OH264509   4.886   0.930  14.025  0.2175  0.3583  0.5164
14365TIP3    H164510   4.892   0.922  13.930  1.5064  2.2708  0.3669
14365TIP3    H264511   4.797   0.961  14.041 -0.2715 -0.7416  0.0309
14366TIP3   OH264512   4.217   1.716   1.997  0.2848  0.0819  0.5832
14366TIP3    H164513   4.207   1.623   2.015  1.2609 -0.3601 -0.9255
14366TIP3    H264514   4.273   1.749   2.068  0.6380 -0.6744  0.6619
14367TIP3   OH264515   5.797   4.026  13.227 -0.3088  0.1737  0.1461
14367TIP3    H164516   5.885   4.038  13.190 -0.2511  1.1287  0.5621
14367TIP3    H264517   5.748   4.103  13.196 -0.2811  0.9587  1.9691
14368TIP3   OH264518   3.336   2.228   4.750 -0.2121 -0.2414  0.9125
14368TIP3    H164519   3.391   2.218   4.673 -0.6727 -0.1109  0.5641
14368TIP3    H264520   3.266   2.288   4.723 -0.7414 -0.7015  1.2265
14369TIP3   OH264521   4.842   6.249   2.136 -0.3724 -0.3038 -0.5118
14369TIP3    H164522   4.894   6.169   2.129 -0.8591 -0.5477 -1.5466
14369TIP3    H264523   4.856   6.294   2.052 -1.6709 -0.2916 -0.7416
14370TIP3   OH264524   1.260   6.796   0.902 -0.5604  0.6313 -0.2448
14370TIP3    H164525   1.263   6.815   0.808 -2.1794  1.4145 -0.1693
14370TIP3    H264526   1.275   6.702   0.908  1.1311  0.8039 -1.1472
14371TIP3   OH264527   0.009   5.846  11.095  1.1987  0.1558  0.4562
14371TIP3    H164528   0.027   5.914  11.160 -2.1243 -0.1489  1.8614
14371TIP3    H264529  -0.015   5.894  11.016 -1.9093  0.7738  1.6642
14372TIP3   OH264530   6.608   0.536  16.365 -0.2222 -0.2711 -0.9184
14372TIP3    H164531   6.542   0.471  16.339  0.2079 -0.1392 -2.4250
14372TIP3    H264532   6.649   0.498  16.443 -2.3467 -0.1501  0.3414
14373TIP3   OH264533   2.737   0.611  13.547  0.1525 -0.2745 -0.1176
14373TIP3    H164534   2.747   0.666  13.469 -0.0826  1.4461  0.9994
14373TIP3    H264535   2.819   0.562  13.553  0.1214 -0.5136 -1.4950
14374TIP3   OH264536   3.298   5.696  13.299  0.4088 -0.1789 -0.2399
14374TIP3    H164537   3.301   5.789  13.278  3.9080  0.2074  1.2962
14374TIP3    H264538   3.247   5.692  13.381 -0.2574  0.2848 -0.6244
14375TIP3   OH264539   3.959   0.844  10.484  0.3049  0.4429  0.1018
14375TIP3    H164540   4.014   0.902  10.536  0.2801  0.3204  0.2663
14375TIP3    H264541   3.982   0.863  10.393  0.8703  0.1443  0.1797
14376TIP3   OH264542   0.342   2.186  14.054  0.0647 -0.4569 -0.3267
14376TIP3    H164543   0.435   2.164  14.058  0.4422  1.1129  0.4403
14376TIP3    H264544   0.297   2.101  14.051  1.4726 -1.2693  0.4888
14377TIP3   OH264545   6.151   3.212   5.497 -0.4326  0.6892 -0.0553
14377TIP3    H164546   6.140   3.296   5.542 -1.3409  1.0279 -0.8777
14377TIP3    H264547   6.245   3.205   5.480  0.0334  0.3140  2.3011
14378TIP3   OH264548   1.982   6.355   6.142 -0.3078  0.0008  0.0323
14378TIP3    H164549   1.944   6.385   6.225  1.2755 -1.9434  1.5544
14378TIP3    H264550   1.937   6.272   6.125  0.8484 -0.6722  0.1250
14379TIP3   OH264551   0.683   3.919   4.512 -0.7186  0.3770  0.0215
14379TIP3    H164552   0.737   3.849   4.475 -0.7644  0.9433 -1.1784
14379TIP3    H264553   0.723   3.937   4.597  0.0165 -0.2934 -0.1674
14380TIP3   OH264554   2.186   1.489   5.415  0.1788 -0.0617  0.2085
14380TIP3    H164555   2.278   1.500   5.389  0.6038  0.4886  1.8206
14380TIP3    H264556   2.179   1.537   5.498 -1.8551  0.8314 -0.4249
14381TIP3   OH264557   5.225   4.759  15.032 -0.4189 -0.0328 -0.4542
14381TIP3    H164558   5.230   4.677  15.081 -0.0276  1.0133  1.3203
14381TIP3    H264559   5.138   4.793  15.052 -0.8631 -0.3226 -1.7694
14382TIP3   OH264560   1.369   3.391  16.340 -0.1521 -1.4158  0.1398
14382TIP3    H164561   1.363   3.364  16.248 -1.2199 -1.9906  0.3548
14382TIP3    H264562   1.284   3.366  16.377 -0.5191  0.6509  0.7948
14383TIP3   OH264563   3.411   0.707   5.201 -0.1915  0.3470  0.2583
14383TIP3    H164564   3.408   0.793   5.243 -1.3910 -0.0422  1.0344
14383TIP3    H264565   3.449   0.649   5.267  1.9482  0.5096 -0.7600
14384TIP3   OH264566   3.021   3.370  12.885  0.4703 -0.0235  0.6186
14384TIP3    H164567   2.940   3.354  12.837  0.8706  0.5350 -0.2573
14384TIP3    H264568   3.070   3.287  12.878  1.2341  0.5372 -1.3594
14385TIP3   OH264569   2.962   3.363  12.063 -0.8199  0.1563 -0.2004
14385TIP3    H164570   2.873   3.399  12.067 -0.7445  0.4958 -1.2466
14385TIP3    H264571   2.950   3.275  12.026 -0.8990 -0.5423  1.4124
14386TIP3   OH264572   3.100   3.006   4.624  0.0693 -0.0928  0.1055
14386TIP3    H164573   3.129   2.924   4.585 -0.6477 -0.5364  0.4868
14386TIP3    H264574   3.178   3.042   4.666  0.0854 -1.2363  1.0787
14387TIP3   OH264575   6.078   4.185  16.461 -0.5207  0.3094  0.4932
14387TIP3    H164576   6.008   4.124  16.484 -0.3774 -0.4311 -0.9033
14387TIP3    H264577   6.047   4.228  16.381  0.0806  0.8935  0.5625
14388TIP3   OH264578   1.902   2.921   6.053  0.0105  0.0188  0.0691
14388TIP3    H164579   1.972   2.942   5.991  0.2353  2.8800  1.1293
14388TIP3    H264580   1.942   2.857   6.113  1.0143  0.0672 -0.5234
14389TIP3   OH264581   1.081   5.185  15.881  0.1892  0.0942  0.0993
14389TIP3    H164582   0.991   5.151  15.887  0.2564  0.0990  1.3217
14389TIP3    H264583   1.126   5.149  15.957  1.1826  0.2630 -0.3883
14390TIP3   OH264584   6.386   3.560   6.408 -0.6015 -0.0888 -0.6871
14390TIP3    H164585   6.365   3.648   6.438 -1.3083 -0.5122  0.1125
14390TIP3    H264586   6.443   3.525   6.477 -2.7202 -1.2871  0.5638
14391TIP3   OH264587   2.287   0.518   0.781  0.8352  0.4436 -0.5976
14391TIP3    H164588   2.305   0.435   0.824  1.5972  0.5265 -0.7469
14391TIP3    H264589   2.366   0.538   0.731 -0.2252  0.0662 -2.5270
14392TIP3   OH264590   4.831   4.351  16.948  0.4285  0.9299  0.8055
14392TIP3    H164591   4.887   4.423  16.977 -1.1047  2.7457 -0.4557
14392TIP3    H264592   4.742   4.383  16.962 -0.3176 -0.3937 -0.5927
14393TIP3   OH264593   4.074   2.626  16.071  0.3865  0.7644 -0.2290
14393TIP3    H164594   4.086   2.543  16.117 -0.9327  1.4388  1.4832
14393TIP3    H264595   4.161   2.650  16.041  1.3403  0.2149  1.8916
14394TIP3   OH264596   4.495   2.164  10.744 -0.0473  0.1584 -0.1807
14394TIP3    H164597   4.587   2.190  10.747 -0.3081  1.1820 -0.6030
14394TIP3    H264598   4.495   2.080  10.698  1.1550 -2.2926  3.7627
14395TIP3   OH264599   5.530   1.331  14.328  0.1343  0.3608 -0.2170
14395TIP3    H164600   5.548   1.243  14.297 -0.9926  0.6287 -1.7139
14395TIP3    H264601   5.435   1.337  14.332  0.1952  1.4276  0.0989
14396TIP3   OH264602   3.456   1.897   4.200  0.3207  0.4796 -0.0849
14396TIP3    H164603   3.492   1.884   4.287  0.3912  0.1104 -0.1640
14396TIP3    H264604   3.389   1.828   4.191 -0.0447  0.8349 -0.1296
14397TIP3   OH264605   4.747   3.681  14.795 -0.4680  0.3206 -0.3092
14397TIP3    H164606   4.681   3.734  14.840 -0.8983 -0.4694  0.0105
14397TIP3    H264607   4.830   3.720  14.822 -0.6996 -0.2319  1.3509
14398TIP3   OH264608   1.402   5.786  14.447 -0.3251  0.3508  0.2238
14398TIP3    H164609   1.417   5.879  14.463  1.0453 -0.0163  1.2116
14398TIP3    H264610   1.369   5.751  14.530  2.6867 -0.7202  1.0841
14399TIP3   OH264611   2.429   2.997  13.836  0.3592  0.1195  0.2754
14399TIP3    H164612   2.522   2.990  13.815  0.4296 -0.1188  0.6557
14399TIP3    H264613   2.420   3.086  13.871  0.8910 -0.5550  2.3176
14400TIP3   OH264614   2.436   4.543   5.934  0.0998 -0.6300  0.1213
14400TIP3    H164615   2.397   4.547   5.847 -1.3403 -0.0424  0.7573
14400TIP3    H264616   2.397   4.465   5.974 -1.5422  0.6806  1.2303
14401TIP3   OH264617   6.188   2.742  12.202  0.5275 -0.6779  0.4777
14401TIP3    H164618   6.215   2.667  12.149  2.8451  1.0128 -0.9283
14401TIP3    H264619   6.100   2.763  12.173  1.1375 -0.8053 -1.5763
14402TIP3   OH264620   2.096   1.550   1.990 -0.1119  0.1867  0.0161
14402TIP3    H164621   2.068   1.634   1.954 -0.9404 -0.2808 -0.4765
14402TIP3    H264622   2.015   1.498   1.993  0.4196 -0.6404  0.1694
14403TIP3   OH264623   1.468   4.526   3.649  0.8490  0.0219 -0.0325
14403TIP3    H164624   1.557   4.517   3.615  0.6833 -3.6521  0.0734
14403TIP3    H264625   1.413   4.484   3.583 -0.2364 -1.5108  1.7340
14404TIP3   OH264626   1.925   1.436  17.051 -0.2756 -0.2071 -0.5416
14404TIP3    H164627   1.939   1.476  17.137  0.4906 -1.5854  0.0056
14404TIP3    H264628   1.992   1.476  16.995  0.1560 -0.3319 -0.1262
14405TIP3   OH264629   1.825   0.580   3.961  0.4690 -0.3273 -0.3059
14405TIP3    H164630   1.804   0.509   3.901  1.3719 -0.1354 -0.8675
14405TIP3    H264631   1.833   0.537   4.046 -2.4992 -0.3636  0.0684
14406TIP3   OH264632   6.301   5.167   5.023 -0.1740  0.2415  0.4026
14406TIP3    H164633   6.250   5.154   5.102  0.1665 -0.8667  0.4625
14406TIP3    H264634   6.302   5.261   5.009 -2.4996  0.2723  0.1999
14407TIP3   OH264635   6.438   2.813   4.698  0.2030 -0.0805  0.2261
14407TIP3    H164636   6.353   2.854   4.681  0.6369  0.0854 -1.7469
14407TIP3    H264637   6.433   2.729   4.653  0.8807 -0.3048  0.5646
14408TIP3   OH264638   0.290   0.894   4.735 -0.5302 -0.5364  0.4477
14408TIP3    H164639   0.330   0.834   4.798 -0.8309  1.8017  3.0447
14408TIP3    H264640   0.357   0.960   4.718 -1.0137 -0.2598 -0.4326
14409TIP3   OH264641   5.630   1.783   5.560  0.5105  0.4075 -0.5995
14409TIP3    H164642   5.650   1.837   5.483 -2.2488  0.4222 -1.4074
14409TIP3    H264643   5.674   1.700   5.544  1.2236  0.9344 -1.4428
14410TIP3   OH264644   1.149   1.043   2.643  0.4778  0.7008  0.0383
14410TIP3    H164645   1.072   1.094   2.618 -0.0871 -0.1365  0.0433
14410TIP3    H264646   1.119   0.952   2.645  1.3481  0.4066  0.4989
14411TIP3   OH264647   4.793   4.675   2.822  0.6619  0.0764 -0.0094
14411TIP3    H164648   4.763   4.584   2.809  2.6692 -0.5063 -0.9286
14411TIP3    H264649   4.837   4.673   2.907 -0.9008  0.6950  0.8660
14412TIP3   OH264650   2.594   0.669   6.359 -0.2219 -0.0215 -0.0738
14412TIP3    H164651   2.514   0.721   6.354 -0.7261 -0.8373 -0.6885
14412TIP3    H264652   2.586   0.604   6.289  0.9653 -0.1407 -0.1275
14413TIP3   OH264653   2.820   3.969  16.131 -0.4828 -0.1404 -0.1626
14413TIP3    H164654   2.812   4.015  16.214 -0.3176 -0.1748 -0.1277
14413TIP3    H264655   2.853   3.883  16.155 -2.2187 -0.8224 -0.0614
14414TIP3   OH264656   1.206   1.800  11.005 -0.3533 -0.1303 -0.2198
14414TIP3    H164657   1.204   1.768  10.915  1.1979  0.0999 -0.3660
14414TIP3    H264658   1.204   1.722  11.059 -0.1912 -0.3149 -0.4798
14415TIP3   OH264659   0.942   5.488  16.639 -0.6967  0.0855 -0.2182
14415TIP3    H164660   0.870   5.467  16.699 -1.1136 -1.6605 -1.2563
14415TIP3    H264661   0.898   5.523  16.561 -0.2585  0.9371 -0.0979
14416TIP3   OH264662   0.649   1.692   3.696  0.3966  0.7598 -0.3666
14416TIP3    H164663   0.679   1.758   3.759  1.7355 -0.1555 -0.0022
14416TIP3    H264664   0.557   1.715   3.679 -0.1545  0.8306  2.2363
14417TIP3   OH264665   3.167   3.025   2.848 -0.0946  0.3238  0.2713
14417TIP3    H164666   3.082   3.013   2.805  0.5255  0.4797 -1.0459
14417TIP3    H264667   3.229   3.036   2.776  1.2425 -0.9429  1.1584
14418TIP3   OH264668   2.112   0.020   3.460  0.3498  0.1219  0.2542
14418TIP3    H164669   2.114  -0.050   3.395  0.3280 -0.0220  0.4053
14418TIP3    H264670   2.020   0.023   3.488 -0.0649  1.4937 -1.1156
14419TIP3   OH264671   1.126   4.379   4.421  0.6941  0.1096  0.2986
14419TIP3    H164672   1.040   4.349   4.451  0.6453  0.5668  0.6132
14419TIP3    H264673   1.185   4.307   4.442 -0.0193 -1.3443 -2.2369
14420TIP3   OH264674   3.946   0.077  16.473  0.3986  0.3706 -0.4067
14420TIP3    H164675   4.027   0.042  16.508 -0.8484  0.8994  3.4915
14420TIP3    H264676   3.878   0.020  16.510 -1.2409  2.8193  0.5854
14421TIP3   OH264677   2.881   4.432  14.113  0.1675 -0.1738 -0.1912
14421TIP3    H164678   2.934   4.387  14.047  2.0835  3.1617 -1.1835
14421TIP3    H264679   2.918   4.404  14.196  0.8572 -0.9057 -0.7260
14422TIP3   OH264680   2.810   2.826  11.983 -0.4822  0.0942 -0.4537
14422TIP3    H164681   2.879   2.801  11.922 -1.0497 -0.5928 -0.8264
14422TIP3    H264682   2.794   2.918  11.965 -0.9571 -0.2068 -1.6751
14423TIP3   OH264683   2.233   4.231  15.603 -0.0454  0.1665  0.3355
14423TIP3    H164684   2.236   4.160  15.667 -1.6658 -0.3486 -0.0959
14423TIP3    H264685   2.181   4.196  15.531  0.0340  1.4323 -0.3768
14424TIP3   OH264686   0.777   3.077   4.851 -0.2989 -0.3430 -0.0823
14424TIP3    H164687   0.854   3.101   4.799  0.9374 -1.7829  0.9792
14424TIP3    H264688   0.727   3.019   4.793  1.5599 -2.7315  0.5077
14425TIP3   OH264689   4.554   6.732   0.969  0.0977  0.4251  0.4367
14425TIP3    H164690   4.483   6.671   0.949  0.6516 -0.0880  0.0009
14425TIP3    H264691   4.533   6.810   0.917  1.2240 -0.6944 -1.8148
14426TIP3   OH264692   0.032   3.129   5.219  0.0199 -0.2584 -0.1494
14426TIP3    H164693   0.073   3.202   5.173 -1.3606  0.3462 -0.4394
14426TIP3    H264694  -0.029   3.169   5.281 -0.1505 -1.1412  0.2797
14427TIP3   OH264695   6.288   2.725  13.881  0.0434 -0.0925  0.2018
14427TIP3    H164696   6.315   2.666  13.811  0.0168 -1.4060  1.2614
14427TIP3    H264697   6.198   2.749  13.859  0.0141 -0.5447 -0.1858
14428TIP3   OH264698   3.364   4.606  15.327 -0.2758  0.0661 -0.6653
14428TIP3    H164699   3.405   4.655  15.398  2.0020  0.0286 -1.8740
14428TIP3    H264700   3.377   4.514  15.352  1.1581  0.0388 -1.4040
14429TIP3   OH264701   3.275   1.231  16.777 -0.9855  0.0222  0.8300
14429TIP3    H164702   3.185   1.261  16.787 -0.1153  2.3998  2.4274
14429TIP3    H264703   3.291   1.175  16.853 -0.5982  1.1173  1.5766
14430TIP3   OH264704   0.262   4.006   4.912 -0.1352 -0.3735  0.3265
14430TIP3    H164705   0.300   3.947   4.977 -1.2962 -0.2781  1.1391
14430TIP3    H264706   0.182   3.962   4.884  0.2497 -0.3178 -0.9130
14431TIP3   OH264707   0.074   2.292   4.205  0.6065  0.4429 -0.8367
14431TIP3    H164708   0.098   2.343   4.127 -0.2276  1.7937 -0.2532
14431TIP3    H264709   0.004   2.234   4.175  1.2078 -0.0164 -1.3896
14432TIP3   OH264710   4.953   4.939  11.843 -0.8802  0.4029 -0.4106
14432TIP3    H164711   4.869   4.935  11.889 -1.1656 -4.3362 -0.9099
14432TIP3    H264712   4.943   4.879  11.770  2.3284  1.3579 -1.7966
14433TIP3   OH264713   5.916   0.299   0.260  0.1307  0.2141 -0.0677
14433TIP3    H164714   5.940   0.391   0.266  0.1976  0.2104 -0.2463
14433TIP3    H264715   5.929   0.277   0.167  1.1718 -0.2613  0.1702
14434TIP3   OH264716   3.947   6.147   3.918 -0.4153 -0.2532 -0.3834
14434TIP3    H164717   3.992   6.232   3.913 -1.2058  0.1230 -1.5642
14434TIP3    H264718   3.977   6.100   3.840  0.0401 -1.0909  0.2776
14435TIP3   OH264719   2.507   2.396   5.132 -0.1227 -0.3732  0.2777
14435TIP3    H164720   2.541   2.312   5.102 -1.5762 -1.0197  0.3479
14435TIP3    H264721   2.490   2.383   5.225 -0.4274 -0.0285  0.2725
14436TIP3   OH264722   3.537   4.717  10.346  0.0042  0.1541 -0.1841
14436TIP3    H164723   3.620   4.672  10.335 -0.9047 -1.4855 -0.6909
14436TIP3    H264724   3.488   4.663  10.408 -1.4152  0.0079 -1.3644
14437TIP3   OH264725   0.051   6.566  13.227 -0.0994 -0.4458 -0.3056
14437TIP3    H164726  -0.010   6.580  13.298 -0.0644  0.0896 -0.3744
14437TIP3    H264727   0.004   6.594  13.148  0.1114 -0.3565 -0.4025
14438TIP3   OH264728   0.986   5.654   0.126  0.2527 -0.5244  0.3098
14438TIP3    H164729   0.900   5.636   0.088  1.4526  0.7386 -3.3802
14438TIP3    H264730   0.997   5.585   0.193 -2.0225 -3.1197 -1.7510
14439TIP3   OH264731   0.888   4.449   4.923  0.9295  0.0807 -0.2039
14439TIP3    H164732   0.891   4.399   5.004  1.3796  0.6521  0.1386
14439TIP3    H264733   0.797   4.441   4.894  0.7351 -0.0279  0.4142
14440TIP3   OH264734   4.809   0.293  15.896 -0.4528  0.3443 -0.2277
14440TIP3    H164735   4.749   0.220  15.884 -0.7671  0.7349 -1.1577
14440TIP3    H264736   4.813   0.307  15.990  0.9029 -1.9353  0.1077
14441TIP3   OH264737   3.344   2.521  13.597 -0.4518 -0.0227  0.0202
14441TIP3    H164738   3.334   2.426  13.609 -1.2014  0.1501  0.9209
14441TIP3    H264739   3.438   2.534  13.586 -0.0821 -0.6804  1.9316
14442TIP3   OH264740   0.529   4.196  15.355 -0.1805 -0.2171 -0.1295
14442TIP3    H164741   0.581   4.130  15.309 -2.2177 -2.2190  0.2934
14442TIP3    H264742   0.593   4.248  15.403  1.6376 -0.7816 -1.8203
14443TIP3   OH264743   3.248   1.107   0.561  0.6762  0.1073 -0.2996
14443TIP3    H164744   3.281   1.045   0.497  0.3641 -2.2987  1.7093
14443TIP3    H264745   3.320   1.119   0.623  0.1940  0.4709  0.2078
14444TIP3   OH264746   5.680   3.246  15.083  0.3401  0.2637 -0.0179
14444TIP3    H164747   5.753   3.244  15.144  0.8022  1.5953 -0.4865
14444TIP3    H264748   5.603   3.265  15.137  0.1755 -1.8754  0.5817
14445TIP3   OH264749   5.034   3.822  10.389 -0.1702  1.0855  0.1069
14445TIP3    H164750   4.981   3.771  10.327  1.4948 -0.6905  0.0252
14445TIP3    H264751   4.988   3.815  10.472 -0.5985  0.4488 -0.1793
14446TIP3   OH264752   0.659   1.177  12.712 -0.1682 -0.1412  0.3260
14446TIP3    H164753   0.744   1.158  12.673  0.3366  0.4128  1.1142
14446TIP3    H264754   0.595   1.144  12.649  0.6301 -0.5045 -0.3068
14447TIP3   OH264755   6.729   4.674   2.155 -0.2476  0.3893  0.0383
14447TIP3    H164756   6.813   4.630   2.142 -0.0620  0.3558  1.2523
14447TIP3    H264757   6.671   4.607   2.190 -0.4572  0.6871  0.2720
14448TIP3   OH264758   2.235   2.426   4.982 -0.1089  0.0945 -0.3695
14448TIP3    H164759   2.246   2.492   5.050 -0.2211 -0.4976  0.2423
14448TIP3    H264760   2.324   2.391   4.969 -0.4307 -1.4924  1.2637
14449TIP3   OH264761   5.547   4.507   0.196  0.0014 -0.4075  0.2147
14449TIP3    H164762   5.452   4.494   0.196 -0.5905  2.6541  2.9781
14449TIP3    H264763   5.580   4.446   0.262 -0.5221  0.6921  1.5225
14450TIP3   OH264764   0.227   2.239   2.574  0.5523 -0.5784  0.1859
14450TIP3    H164765   0.305   2.220   2.625  1.3339 -0.2077 -0.8297
14450TIP3    H264766   0.180   2.156   2.571  1.9880 -1.4001 -0.9540
14451TIP3   OH264767   0.782   1.261   1.294 -0.0670  0.1953 -0.4718
14451TIP3    H164768   0.794   1.356   1.301 -0.4494  0.1391  1.5712
14451TIP3    H264769   0.800   1.228   1.382 -1.0653 -1.5025 -0.8601
14452TIP3   OH264770   0.331   4.250  11.771 -0.2993 -0.0686  0.0959
14452TIP3    H164771   0.325   4.294  11.855 -1.4430 -0.5462  0.2794
14452TIP3    H264772   0.315   4.158  11.791  2.7714 -0.7932 -0.1560
14453TIP3   OH264773   4.323   2.730  12.844 -0.5706  0.6429  0.4488
14453TIP3    H164774   4.269   2.771  12.776  2.0284  2.3216 -0.7566
14453TIP3    H264775   4.315   2.788  12.919 -2.3627 -0.4908  1.2080
14454TIP3   OH264776   4.179   4.648   2.399  0.0740  0.2829 -0.0273
14454TIP3    H164777   4.214   4.709   2.465  2.2816 -2.4282  1.5670
14454TIP3    H264778   4.120   4.591   2.449  0.5187 -0.8109 -0.7106
14455TIP3   OH264779   6.086   2.401  17.045 -0.0607 -0.2353  0.7898
14455TIP3    H164780   6.128   2.345  16.980  0.1493 -1.5021  1.9689
14455TIP3    H264781   6.024   2.343  17.089 -3.2896  1.6064 -1.0100
14456TIP3   OH264782   6.811   5.231  13.606 -0.5953 -0.1599 -0.4966
14456TIP3    H164783   6.887   5.246  13.661 -1.5293  1.3025  0.4703
14456TIP3    H264784   6.834   5.271  13.522  0.5420 -1.7458 -0.9872
14457TIP3   OH264785   2.949   6.251   1.701  0.1925  0.4631 -0.9401
14457TIP3    H164786   3.011   6.298   1.645  0.9782 -0.0934 -0.5412
14457TIP3    H264787   2.993   6.244   1.785 -0.3021 -0.1778 -0.7269
14458TIP3   OH264788   2.031   3.355   0.491  0.0403  0.0517  0.0623
14458TIP3    H164789   2.084   3.368   0.570  0.9162  2.9196 -0.8728
14458TIP3    H264790   2.091   3.314   0.429  0.3687  0.8397 -0.1474
14459TIP3   OH264791   5.977   2.279  13.579 -0.4922 -0.6949  0.4107
14459TIP3    H164792   5.987   2.356  13.636  0.9971 -1.2029  0.8882
14459TIP3    H264793   6.015   2.307  13.495 -1.1200 -0.5102  0.1797
14460TIP3   OH264794   0.279   6.545   3.037 -0.0037 -0.1813  0.2414
14460TIP3    H164795   0.353   6.600   3.012  0.5752 -0.5742  1.0440
14460TIP3    H264796   0.307   6.503   3.118 -0.6221 -1.2904 -0.0984
14461TIP3   OH264797   4.549   2.496  15.579  0.2114 -0.0130 -0.0718
14461TIP3    H164798   4.556   2.549  15.659  0.8748  0.8315 -0.6769
14461TIP3    H264799   4.620   2.432  15.587  1.0917  0.8807 -0.5631
14462TIP3   OH264800   3.027   3.297  14.416  0.0691 -0.1074  0.4561
14462TIP3    H164801   3.077   3.227  14.374  0.3356 -0.1728  0.8714
14462TIP3    H264802   2.943   3.256  14.438 -0.1163 -0.0374 -0.1176
14463TIP3   OH264803   3.577   5.079   0.986 -0.4768  0.2197 -0.1292
14463TIP3    H164804   3.662   5.040   1.005 -1.1934 -2.9495 -2.6283
14463TIP3    H264805   3.587   5.170   1.013  3.9104  0.1963 -0.8618
14464TIP3   OH264806   3.117   4.097  11.476  0.4128 -0.1304  0.4259
14464TIP3    H164807   3.090   4.009  11.504  1.4832  0.3475  3.3020
14464TIP3    H264808   3.176   4.081  11.402 -1.6876 -1.5844 -1.0592
14465TIP3   OH264809   2.063   6.257   1.154 -0.0923  0.4807  0.4402
14465TIP3    H164810   2.113   6.230   1.077  1.0858 -2.3008  2.0378
14465TIP3    H264811   1.994   6.192   1.162  0.0852  0.4350  1.9771
14466TIP3   OH264812   2.776   2.068  12.010  0.2684 -0.3218  0.0855
14466TIP3    H164813   2.682   2.050  12.001  0.2548  0.0250 -0.4669
14466TIP3    H264814   2.815   1.983  12.028 -0.0756 -0.5665 -0.3097
14467TIP3   OH264815   3.361   3.678  13.115  0.2750  0.0762 -0.3082
14467TIP3    H164816   3.327   3.626  13.187  0.0712 -1.6718 -1.5951
14467TIP3    H264817   3.371   3.616  13.043  1.2326  1.5868 -1.5552
14468TIP3   OH264818   1.996   6.753  12.046 -0.4162  0.3705  0.1814
14468TIP3    H164819   1.928   6.798  12.096 -0.5541 -1.7283  1.9984
14468TIP3    H264820   2.078   6.785  12.083 -0.5143 -0.8628  1.5385
14469TIP3   OH264821   6.731   6.318  11.542 -1.0690 -0.4138 -0.0143
14469TIP3    H164822   6.714   6.383  11.474 -1.1568 -0.1002  0.3045
14469TIP3    H264823   6.722   6.234  11.497 -0.7827 -0.2094 -0.4707
14470TIP3   OH264824   3.210   2.356  11.914  0.2154  0.1435  0.1475
14470TIP3    H164825   3.164   2.273  11.927 -0.5367  0.3943 -0.7607
14470TIP3    H264826   3.140   2.421  11.912  0.6629  0.6075 -0.6777
14471TIP3   OH264827   1.017   4.295  12.503  0.1434  0.1517  0.1494
14471TIP3    H164828   1.019   4.218  12.447  1.6534 -0.5356  1.0683
14471TIP3    H264829   1.093   4.347  12.476 -0.4331  0.9503  0.0370
14472TIP3   OH264830   5.957   5.446  16.946  0.2324  0.2481 -0.2797
14472TIP3    H164831   5.873   5.431  16.901  0.0475 -0.0344  0.1527
14472TIP3    H264832   6.007   5.366  16.930 -0.1840 -0.2480  0.7719
14473TIP3   OH264833   6.718   4.615  16.014 -0.0223  0.4405 -0.1290
14473TIP3    H164834   6.639   4.657  16.050 -0.1374  1.3498 -1.4003
14473TIP3    H264835   6.744   4.670  15.941  0.6418 -0.9542 -0.9885
14474TIP3   OH264836   2.209   3.105   4.736  0.0685  0.7688 -0.1772
14474TIP3    H164837   2.178   3.049   4.665 -0.5022  2.3234 -1.2230
14474TIP3    H264838   2.178   3.193   4.712  2.2281  1.8082  0.5842
14475TIP3   OH264839   4.289   4.879   4.867 -0.1890  0.0299 -0.0344
14475TIP3    H164840   4.337   4.875   4.784 -0.7025  0.2786 -0.3413
14475TIP3    H264841   4.342   4.827   4.927  0.3349  0.0839 -0.4424
14476TIP3   OH264842   6.186   6.399  11.796 -0.0401  0.1485  0.6343
14476TIP3    H164843   6.267   6.389  11.747  0.7674  1.4991  1.6271
14476TIP3    H264844   6.131   6.455  11.741 -0.7765 -1.6096 -0.5230
14477TIP3   OH264845   3.941   5.349  12.782 -0.6184  0.0172 -0.4096
14477TIP3    H164846   4.015   5.409  12.787  1.1259 -2.0828  1.3585
14477TIP3    H264847   3.891   5.365  12.862 -0.9821  0.1111 -0.6523
14478TIP3   OH264848   3.484   1.338  11.200  0.4597 -0.0987 -0.8782
14478TIP3    H164849   3.524   1.254  11.178 -0.7065 -0.7244 -0.6808
14478TIP3    H264850   3.489   1.343  11.295  1.1181  0.3693 -0.9311
14479TIP3   OH264851   6.247   2.166  13.148  0.0290  0.3035 -0.2822
14479TIP3    H164852   6.246   2.198  13.057 -3.3369  0.0247 -0.4699
14479TIP3    H264853   6.314   2.098  13.149 -0.5072 -0.3787 -2.8579
14480TIP3   OH264854   1.467   6.301   2.827  0.1562  0.6971  0.2980
14480TIP3    H164855   1.442   6.312   2.919 -1.7467  0.2486 -0.1215
14480TIP3    H264856   1.387   6.320   2.778  0.3392 -1.8064 -1.1103
14481TIP3   OH264857   1.217   5.284  12.002  0.2806 -0.1596  0.0583
14481TIP3    H164858   1.148   5.310  11.942 -0.3838 -0.1938  0.7976
14481TIP3    H264859   1.174   5.277  12.087  1.2250 -0.0299  0.5590
14482TIP3   OH264860   5.119   1.520   4.328 -0.3455  0.3833  0.1674
14482TIP3    H164861   5.151   1.606   4.303  3.8145 -0.7877  0.6707
14482TIP3    H264862   5.099   1.477   4.245 -0.8866  1.2713 -0.1749
14483TIP3   OH264863   3.805   6.550   6.506  0.0867 -0.2878 -0.9976
14483TIP3    H164864   3.833   6.512   6.589 -2.1896 -0.9900 -0.4900
14483TIP3    H264865   3.737   6.613   6.530 -0.6668 -0.5697 -2.3227
14484TIP3   OH264866   4.954   1.100  16.888 -0.8789  0.0795  0.1733
14484TIP3    H164867   4.968   1.129  16.978  1.1859  1.0412 -0.3915
14484TIP3    H264868   5.006   1.161  16.835 -1.7271 -0.7063 -1.6361
14485TIP3   OH264869   0.826   4.480  11.541  0.8189 -0.9214 -0.0006
14485TIP3    H164870   0.744   4.475  11.492  1.0210  0.8399 -0.5980
14485TIP3    H264871   0.806   4.536  11.616  1.5970  0.0917 -0.5081
14486TIP3   OH264872   1.452   5.133   0.374  0.2082  0.5788  0.0025
14486TIP3    H164873   1.542   5.138   0.343 -0.2758  0.3207 -1.5209
14486TIP3    H264874   1.435   5.039   0.382  0.0470  0.6248  0.1886
14487TIP3   OH264875   3.216   1.186  12.955 -0.6861 -0.5392 -0.1612
14487TIP3    H164876   3.296   1.156  12.911  0.0072  0.1061  0.6142
14487TIP3    H264877   3.236   1.276  12.981 -1.3307 -0.6775  0.8496
14488TIP3   OH264878   1.753   6.506  11.878 -0.1418 -0.2515 -0.0517
14488TIP3    H164879   1.830   6.536  11.829 -0.1458  0.7996  0.5560
14488TIP3    H264880   1.687   6.574  11.862 -1.1127 -1.3503 -0.9232
14489TIP3   OH264881   0.699   5.509  16.730 -0.1180 -0.4056  0.0062
14489TIP3    H164882   0.641   5.435  16.748 -0.7716  0.2460  0.6181
14489TIP3    H264883   0.642   5.576  16.692  0.4480 -0.1689 -0.4461
14490TIP3   OH264884   0.364   3.341  14.947  0.1312  0.2898 -0.3088
14490TIP3    H164885   0.418   3.372  14.874  2.6863  0.2798  1.4756
14490TIP3    H264886   0.346   3.420  14.999  0.4778 -0.0884  0.3928
14491TIP3   OH264887   4.359   4.523   0.420  0.0097  0.0662 -0.0726
14491TIP3    H164888   4.278   4.542   0.468 -0.0795  0.2979 -0.3163
14491TIP3    H264889   4.420   4.492   0.488  0.0705  0.9457  0.2924
14492TIP3   OH264890   0.442   4.477  16.981  0.5550 -0.5883 -1.0782
14492TIP3    H164891   0.492   4.399  16.957  0.8154 -0.2381 -1.7182
14492TIP3    H264892   0.369   4.479  16.919 -1.3576 -2.0760  0.9426
14493TIP3   OH264893   0.301   6.595   0.865  0.3582 -0.1069  0.4680
14493TIP3    H164894   0.325   6.527   0.929 -0.4718  0.2157  1.1389
14493TIP3    H264895   0.225   6.638   0.903 -0.7696 -0.5340 -1.2132
14494TIP3   OH264896   3.623   6.151   2.809  0.0298  0.1250 -0.5778
14494TIP3    H164897   3.558   6.101   2.859 -0.1383 -0.0829 -0.9958
14494TIP3    H264898   3.621   6.238   2.847 -0.6761  0.1852 -0.7425
14495TIP3   OH264899   1.783   1.973   5.702 -0.1597 -0.4617 -0.3760
14495TIP3    H164900   1.847   1.966   5.631 -0.3831 -1.2518 -0.5098
14495TIP3    H264901   1.823   1.927   5.775 -1.1101 -2.1232 -0.8645
14496TIP3   OH264902   5.019   4.347  14.565  0.5390  0.3493  0.7769
14496TIP3    H164903   5.071   4.282  14.612 -0.3193  0.1631  1.4916
14496TIP3    H264904   5.066   4.429  14.580  0.8622  0.1194  1.0609
14497TIP3   OH264905   1.206   3.589  11.628  0.3569  0.0880 -0.0937
14497TIP3    H164906   1.243   3.671  11.661 -0.6697 -0.2538  2.1094
14497TIP3    H264907   1.276   3.525  11.640  1.1898  0.6020 -1.8908
14498TIP3   OH264908   4.337   5.099   3.398 -0.3711 -0.4242 -0.1673
14498TIP3    H164909   4.333   5.131   3.308 -0.0003  1.3344  0.4126
14498TIP3    H264910   4.424   5.061   3.406  0.9383  2.4762  0.3799
14499TIP3   OH264911   5.917   1.651  14.153 -0.2657  0.0489  0.0164
14499TIP3    H164912   5.996   1.632  14.202  0.0466  0.4138 -0.3367
14499TIP3    H264913   5.896   1.569  14.109  0.6556  0.2877 -0.9163
14500TIP3   OH264914   6.216   2.550   3.040  0.0729 -0.3140 -0.2535
14500TIP3    H164915   6.153   2.497   3.088 -1.2593  0.2582 -1.3005
14500TIP3    H264916   6.173   2.636   3.032  0.2154 -0.4042 -2.4701
14501TIP3   OH264917   3.947   3.889   1.562  0.3307  0.1798  0.4391
14501TIP3    H164918   3.965   3.880   1.469  0.7268  0.3704  0.4958
14501TIP3    H264919   3.924   3.982   1.573  0.3676  0.1769  0.5450
14502TIP3   OH264920   1.805   0.742  17.020 -0.1211 -0.2790  0.3780
14502TIP3    H164921   1.895   0.775  17.024 -0.1864 -0.2501  2.0181
14502TIP3    H264922   1.814   0.648  17.004  0.2712 -0.5460  2.0289
14503TIP3   OH264923   4.349   4.276   2.428  0.3729 -0.3232  0.8927
14503TIP3    H164924   4.406   4.229   2.368  0.4651  0.0196  0.7079
14503TIP3    H264925   4.405   4.298   2.502  0.5246  0.1629  0.6340
14504TIP3   OH264926   1.562   3.548   6.136 -0.3217 -0.5674  0.4467
14504TIP3    H164927   1.525   3.635   6.149  0.2903 -0.5376  2.1285
14504TIP3    H264928   1.539   3.499   6.215 -1.3250 -2.2124 -0.7891
14505TIP3   OH264929   0.254   1.364  10.885  0.0853  0.1719 -0.5446
14505TIP3    H164930   0.233   1.272  10.904  0.7321 -0.5342 -2.8471
14505TIP3    H264931   0.170   1.402  10.857  0.0726 -0.0854 -0.8601
14506TIP3   OH264932   3.100   3.247  16.749  0.5193  0.0727 -0.3786
14506TIP3    H164933   3.059   3.168  16.715 -2.7920  1.1645  0.7025
14506TIP3    H264934   3.157   3.216  16.820  2.3829 -1.5675 -2.4439
14507TIP3   OH264935   6.072   6.493  15.373 -0.2241 -0.0425 -0.4070
14507TIP3    H164936   5.980   6.479  15.392 -0.4658 -0.2886 -1.6519
14507TIP3    H264937   6.119   6.440  15.437 -0.9553 -0.3148 -0.0959
14508TIP3   OH264938   3.256   2.846  14.952 -0.4777  0.2860  0.5464
14508TIP3    H164939   3.267   2.751  14.949 -0.0051  0.3519 -2.0765
14508TIP3    H264940   3.302   2.873  15.031  1.2365 -1.4837  0.2395
14509TIP3   OH264941   1.533   2.024  16.389 -0.2150  0.3029 -0.1216
14509TIP3    H164942   1.489   2.063  16.313 -1.4581  0.0839  0.4605
14509TIP3    H264943   1.622   2.059  16.385 -0.2669  0.3433 -1.6338
14510TIP3   OH264944   6.092   5.236   1.360 -0.5165  0.0993  0.0130
14510TIP3    H164945   6.100   5.180   1.283  0.2319 -0.3464  0.4109
14510TIP3    H264946   6.041   5.184   1.423  0.6857 -0.3945  0.6062
14511TIP3   OH264947   3.965   3.924   6.499 -0.8573  0.1384  0.1716
14511TIP3    H164948   3.965   3.859   6.428  2.6755  1.2687 -1.0696
14511TIP3    H264949   3.957   4.008   6.454  2.1108  0.9188  0.9110
14512TIP3   OH264950   4.416   1.796  13.009  0.5198  0.4264  0.3440
14512TIP3    H164951   4.396   1.890  13.005 -1.0952  0.1159  0.3865
14512TIP3    H264952   4.419   1.777  13.103 -0.1716  0.2447  0.3319
14513TIP3   OH264953   0.295   6.060   4.928 -0.0508 -0.7749 -0.1411
14513TIP3    H164954   0.378   6.036   4.969  1.1545  0.0938 -1.9589
14513TIP3    H264955   0.269   5.983   4.878  0.3064 -0.6281 -0.5559
14514TIP3   OH264956   3.233   2.427  12.416  0.2158 -0.4945 -0.2660
14514TIP3    H164957   3.325   2.451  12.404  0.3060  0.9860  2.6389
14514TIP3    H264958   3.235   2.352  12.475 -0.4522 -1.0503 -0.9255
14515TIP3   OH264959   0.083   4.645   5.565  0.0547 -0.1822 -0.5862
14515TIP3    H164960   0.070   4.682   5.653  0.3403  1.3642 -1.1668
14515TIP3    H264961  -0.006   4.628   5.533 -0.1465  1.0076 -0.7048
14516TIP3   OH264962   1.482   6.020  14.533 -0.0378  0.2275 -0.3439
14516TIP3    H164963   1.529   6.010  14.616  1.8779 -1.0938 -1.5190
14516TIP3    H264964   1.501   6.109  14.505 -0.2284  0.4879  0.3273
14517TIP3   OH264965   1.348   4.363  10.690 -0.0468  0.3225 -0.2722
14517TIP3    H164966   1.335   4.425  10.762  0.1970  0.0791 -0.0139
14517TIP3    H264967   1.314   4.280  10.724  0.6763  0.0514 -0.1823
14518TIP3   OH264968   1.368   5.410  14.567  0.0311 -0.0162  0.4101
14518TIP3    H164969   1.419   5.403  14.648  0.1161 -1.3857  0.2685
14518TIP3    H264970   1.285   5.450  14.593 -0.2653 -1.1926  1.3527
14519TIP3   OH264971   5.986   3.727   2.594  0.3276  0.1495 -0.3889
14519TIP3    H164972   5.939   3.779   2.529  0.9069  1.6308  0.3314
14519TIP3    H264973   5.918   3.677   2.639 -0.1038 -0.7714 -1.9778
14520TIP3   OH264974   5.321   2.980  15.916  0.0740 -0.1190 -0.4955
14520TIP3    H164975   5.390   3.039  15.946 -0.2581  1.0494 -1.8689
14520TIP3    H264976   5.313   2.915  15.985  1.1275  0.9014  0.6472
14521TIP3   OH264977   6.668   5.808   5.243 -0.0310  0.1544 -0.0350
14521TIP3    H164978   6.609   5.874   5.207  0.6073  0.1462 -1.1609
14521TIP3    H264979   6.721   5.781   5.168  0.9268 -0.3299  0.7968
14522TIP3   OH264980   3.194   1.950  10.909 -0.7352  0.0941 -0.1485
14522TIP3    H164981   3.158   2.021  10.855 -1.7992  0.4436  0.9970
14522TIP3    H264982   3.143   1.873  10.885  1.0095 -0.5919 -2.0654
14523TIP3   OH264983   6.258   0.892   5.708  0.6098 -0.0211 -0.1653
14523TIP3    H164984   6.304   0.808   5.697 -2.3612 -1.6959 -0.9377
14523TIP3    H264985   6.231   0.892   5.800 -0.1591 -0.3853 -0.3809
14524TIP3   OH264986   3.991   4.551  11.628  0.1014  0.2233  0.4158
14524TIP3    H164987   4.021   4.502  11.705  2.4635  0.5593 -0.1964
14524TIP3    H264988   4.053   4.527  11.559 -1.4074  0.6334 -1.1552
14525TIP3   OH264989   2.142   0.226  14.568 -0.0730  0.0234 -0.2265
14525TIP3    H164990   2.049   0.245  14.574  0.1098  0.5621  1.3656
14525TIP3    H264991   2.183   0.287  14.629  1.2557 -0.6798 -0.3804
14526TIP3   OH264992   0.248   1.013  16.083 -0.2091  0.1946 -0.2830
14526TIP3    H164993   0.255   0.965  16.165  0.5276  0.5850 -0.1106
14526TIP3    H264994   0.201   1.093  16.106 -0.0362  0.2862 -0.2438
14527TIP3   OH264995   0.458   0.136   4.880  0.0014  0.0733 -0.5328
14527TIP3    H164996   0.504   0.060   4.844  1.2570  1.1466 -1.2575
14527TIP3    H264997   0.526   0.201   4.894 -1.2218  1.5221 -1.1079
14528TIP3   OH264998   0.314   5.793   3.876  1.0234 -0.0130 -0.3206
14528TIP3    H164999   0.249   5.859   3.899  0.7443  0.6136 -2.6686
14528TIP3    H265000   0.281   5.712   3.917 -1.0505  0.3701 -1.0984
14529TIP3   OH265001   1.841   0.643   3.031  0.2588  0.4061  0.3189
14529TIP3    H165002   1.900   0.645   2.956 -1.0449  1.3811 -0.7228
14529TIP3    H265003   1.776   0.712   3.013 -0.3569  0.3517  2.1151
14530TIP3   OH265004   4.945   5.094  10.711  0.2158  0.1222  0.7495
14530TIP3    H165005   4.961   5.024  10.648  2.0802 -0.2538  1.5851
14530TIP3    H265006   4.872   5.062  10.764 -0.8385  0.0949 -0.6446
14531TIP3   OH265007   2.173   0.858  11.579 -0.7289  0.2645  0.2676
14531TIP3    H165008   2.161   0.915  11.503 -0.9592  1.4329  1.1575
14531TIP3    H265009   2.089   0.811  11.587 -0.9094  0.5671  0.1493
14532TIP3   OH265010   3.753   3.065   4.737 -0.0519 -0.0798 -0.3557
14532TIP3    H165011   3.789   3.147   4.772  0.3560 -0.2825 -0.2953
14532TIP3    H265012   3.704   3.092   4.659 -1.4983  0.4585  0.7026
14533TIP3   OH265013   6.040   5.794   5.584 -0.0317 -0.3095 -0.0297
14533TIP3    H165014   5.958   5.751   5.611 -0.2441 -0.2256 -0.5259
14533TIP3    H265015   6.085   5.729   5.530 -0.6235  0.2654 -1.2720
14534TIP3   OH265016   0.661   6.225  12.408 -0.0715  0.5569 -0.2090
14534TIP3    H165017   0.599   6.290  12.374 -0.9590  0.8305  1.7963
14534TIP3    H265018   0.672   6.249  12.500  1.0665 -1.0111  0.0942
14535TIP3   OH265019   3.202   5.044  16.898  0.0708  0.2825 -0.1464
14535TIP3    H165020   3.194   5.107  16.970  0.6461 -0.2783  0.4186
14535TIP3    H265021   3.113   5.035  16.863  0.2719  3.0494 -1.6833
14536TIP3   OH265022   1.313   6.265   2.102  0.1108  0.3112  0.0762
14536TIP3    H165023   1.393   6.318   2.108  1.6891 -2.0606  1.5822
14536TIP3    H265024   1.268   6.280   2.185 -1.5724  2.2844 -1.0862
14537TIP3   OH265025   1.693   6.216   4.399 -0.6831 -0.2811 -0.5632
14537TIP3    H165026   1.778   6.180   4.376 -1.4163 -3.0192  0.5446
14537TIP3    H265027   1.658   6.154   4.464 -1.1159  3.7230  3.5190
14538TIP3   OH265028   4.438   0.497  15.913 -0.0819  0.6022  0.0608
14538TIP3    H165029   4.353   0.455  15.930 -0.3511  1.0495 -0.1555
14538TIP3    H265030   4.417   0.571  15.856  0.6092  0.0221 -0.9752
14539TIP3   OH265031   3.620   5.936   0.027 -0.0968 -0.4680 -0.1579
14539TIP3    H165032   3.528   5.940   0.051  0.2059  0.5140  0.8946
14539TIP3    H265033   3.637   5.843   0.011 -0.7861 -0.9453  1.6513
14540TIP3   OH265034   4.446   4.422  16.818  0.1808 -0.2362  0.5236
14540TIP3    H165035   4.370   4.369  16.796  0.5297 -1.1812  1.5402
14540TIP3    H265036   4.425   4.509  16.785 -1.0540 -0.6454  0.2035
14541TIP3   OH265037   2.980   3.741  13.753  0.1527 -0.4874 -0.7301
14541TIP3    H165038   2.953   3.649  13.753  1.1605 -0.8388  1.3466
14541TIP3    H265039   3.034   3.750  13.832 -0.1546  1.9612 -0.7327
14542TIP3   OH265040   0.412   0.750   2.438  0.1047  0.0156 -0.5256
14542TIP3    H165041   0.318   0.734   2.433  0.0479 -0.3893  1.1791
14542TIP3    H265042   0.452   0.680   2.387 -0.5283  0.6301 -1.9046
14543TIP3   OH265043   2.392   1.039  10.765  0.9657  0.1802  0.6744
14543TIP3    H165044   2.389   1.021  10.859  0.2346  3.4441  1.3971
14543TIP3    H265045   2.339   0.970  10.726 -0.5450 -0.0460  2.9101
14544TIP3   OH265046   0.947   3.604  14.556  0.1470 -0.6297  0.3354
14544TIP3    H165047   1.025   3.660  14.563 -1.3274  1.5011  0.8233
14544TIP3    H265048   0.915   3.597  14.646 -1.6072  0.7399 -0.1085
14545TIP3   OH265049   6.418   5.583  11.145 -0.1260 -0.2124 -0.2705
14545TIP3    H165050   6.465   5.659  11.180  0.2745 -0.2877 -0.6295
14545TIP3    H265051   6.419   5.520  11.216 -0.6478  0.1967  0.1058
14546TIP3   OH265052   3.089   4.240   2.915 -0.1546 -0.2154 -0.1899
14546TIP3    H165053   3.164   4.187   2.887  0.9183  1.2198 -0.1155
14546TIP3    H265054   3.101   4.323   2.870 -0.7487  0.6391  1.2022
14547TIP3   OH265055   2.728   1.167   0.302  0.5032 -0.5999  0.5324
14547TIP3    H165056   2.674   1.169   0.381  1.3606 -0.6384  1.1373
14547TIP3    H265057   2.817   1.149   0.334  1.2160  1.3205 -0.2250
14548TIP3   OH265058   0.594   5.213   5.221 -0.5635 -0.3780  0.5343
14548TIP3    H165059   0.530   5.282   5.205 -0.8329 -0.6427  0.4646
14548TIP3    H265060   0.543   5.132   5.221 -0.2962 -0.5518  0.9101
14549TIP3   OH265061   5.012   5.915   0.053  0.0403 -0.2033  0.1741
14549TIP3    H165062   4.960   5.851   0.101  0.5687 -0.6865  0.1180
14549TIP3    H265063   5.049   5.866  -0.021  0.1947  0.2427 -0.0483
14550TIP3   OH265064   1.832   1.691   1.873 -0.0842 -0.0613  0.2283
14550TIP3    H165065   1.865   1.780   1.880  1.5542 -0.7120  1.4220
14550TIP3    H265066   1.790   1.675   1.958  0.7268 -0.8106  0.5053
14551TIP3   OH265067   3.316   2.957   2.601 -0.9499  0.2142 -0.0998
14551TIP3    H165068   3.317   2.862   2.616 -0.1546  0.5948  2.7673
14551TIP3    H265069   3.325   2.966   2.506 -1.4302 -2.5694 -0.4912
14552TIP3   OH265070   2.759   2.843   0.304 -0.6844 -0.0676  0.3345
14552TIP3    H165071   2.680   2.848   0.358  0.0343  0.9392  1.3486
14552TIP3    H265072   2.794   2.756   0.320 -0.4323  0.2513  1.5913
14553TIP3   OH265073   3.950   1.994   0.615  0.0383 -0.0838 -0.3461
14553TIP3    H165074   3.916   2.060   0.556  0.7690  0.6065 -0.0182
14553TIP3    H265075   3.877   1.973   0.673  0.1519  1.3834  0.3629
14554TIP3   OH265076   5.521   3.763   4.451  0.3220  0.5078 -0.8346
14554TIP3    H165077   5.587   3.806   4.398  0.1407  0.6579 -0.9423
14554TIP3    H265078   5.449   3.826   4.455 -0.0832  0.0844 -1.2718
14555TIP3   OH265079   5.817   4.676  16.965 -0.0699 -0.0250 -0.5478
14555TIP3    H165080   5.770   4.596  16.985  0.1163 -0.0463 -0.1796
14555TIP3    H265081   5.791   4.737  17.035 -1.4681  0.7682 -1.7047
14556TIP3   OH265082   2.311   1.591  16.151 -0.2606  0.4055 -0.2827
14556TIP3    H165083   2.301   1.628  16.063  2.1612  0.4140 -0.6245
14556TIP3    H265084   2.282   1.500  16.141 -2.2523  1.0249 -0.4654
14557TIP3   OH265085   0.902   2.192  15.299 -0.0010 -0.2961 -0.4900
14557TIP3    H165086   0.912   2.153  15.385  0.1528 -0.5448 -0.6190
14557TIP3    H265087   0.975   2.254  15.291 -0.6550  0.5570  0.0011
14558TIP3   OH265088   6.183   1.604  11.810  0.2167  0.1179  0.0689
14558TIP3    H165089   6.271   1.631  11.837  0.1053  3.1138 -2.1529
14558TIP3    H265090   6.196   1.562  11.725 -0.5486  1.3604 -0.6780
14559TIP3   OH265091   5.558   6.379  11.717  0.4504  0.2939  0.3310
14559TIP3    H165092   5.644   6.344  11.691  0.0739 -0.1597 -0.3581
14559TIP3    H265093   5.546   6.456  11.662  0.9816  1.1349  1.3679
14560TIP3   OH265094   2.127   2.083  13.041 -0.0316 -0.4896 -1.0595
14560TIP3    H165095   2.057   2.112  12.982 -0.3005  0.5353 -0.2669
14560TIP3    H265096   2.208   2.099  12.993 -0.3048 -1.2879 -1.8183
14561TIP3   OH265097   4.401   4.913   2.804 -0.7069 -0.1231 -0.4220
14561TIP3    H165098   4.418   4.861   2.725 -1.0858  1.5158 -1.6296
14561TIP3    H265099   4.444   4.997   2.788  0.4630 -0.2116  1.7697
14562TIP3   OH265100   5.465   1.882   3.749 -0.0775 -0.4286 -0.1468
14562TIP3    H165101   5.491   1.945   3.682  0.5441 -0.0234  0.4558
14562TIP3    H265102   5.412   1.932   3.810 -0.6422 -0.7967 -0.3317
14563TIP3   OH265103   3.851   1.314   0.418 -0.3220  0.4344  0.0990
14563TIP3    H165104   3.881   1.310   0.509  0.7465 -0.7583 -0.2774
14563TIP3    H265105   3.932   1.325   0.368 -0.8974  0.9770 -0.7232
14564TIP3   OH265106   1.486   5.296  14.333 -0.1154 -0.0160  0.1398
14564TIP3    H165107   1.469   5.202  14.336  0.9951 -0.2126  1.9289
14564TIP3    H265108   1.443   5.331  14.411 -0.7706  1.0342 -0.6666
14565TIP3   OH265109   2.322   5.882   4.428  0.4356 -0.0738  0.3062
14565TIP3    H165110   2.232   5.887   4.395 -0.0306 -1.1607  1.3420
14565TIP3    H265111   2.313   5.879   4.523  1.6714  1.2930  0.5019
14566TIP3   OH265112   3.029   0.012  15.231 -0.2324  0.1617 -0.1225
14566TIP3    H165113   3.099   0.062  15.273  0.4333  1.6710 -2.7558
14566TIP3    H265114   2.950   0.065  15.245 -0.4463 -0.4348  0.9993
14567TIP3   OH265115   5.885   3.093   0.447  0.1516 -0.7160  0.2975
14567TIP3    H165116   5.885   3.092   0.542  1.3904  0.8721  0.3423
14567TIP3    H265117   5.932   3.172   0.423 -1.9528  0.0703 -1.6409
14568TIP3   OH265118   2.297   1.635   4.954 -0.0760  0.3388 -0.3805
14568TIP3    H165119   2.267   1.573   5.020  1.5294 -0.1829 -0.1063
14568TIP3    H265120   2.217   1.661   4.908 -1.1310  0.1863  1.2911
14569TIP3   OH265121   1.549   0.823  17.051 -0.2018 -0.4401 -0.8224
14569TIP3    H165122   1.625   0.784  17.008 -0.7914  1.4814 -3.9849
14569TIP3    H265123   1.584   0.901  17.094  0.0858 -1.3230  0.5817
14570TIP3   OH265124   4.238   5.637   4.558  0.3640 -0.3105  0.4517
14570TIP3    H165125   4.330   5.614   4.570  0.1886 -1.0522  0.4350
14570TIP3    H265126   4.237   5.699   4.485  0.8553 -0.2212  0.5189
14571TIP3   OH265127   2.219   1.046  12.343  0.5543 -0.2228 -0.3058
14571TIP3    H165128   2.190   1.128  12.383 -0.3223 -0.6391 -0.0728
14571TIP3    H265129   2.238   0.989  12.417 -0.0640 -0.6480 -0.4710
14572TIP3   OH265130   6.122   4.590   3.232 -0.2356  0.1215  0.1604
14572TIP3    H165131   6.191   4.635   3.282 -0.9873  0.8634  0.5452
14572TIP3    H265132   6.068   4.660   3.197 -1.2413 -0.4720  0.4871
14573TIP3   OH265133   1.526   0.496  16.178  0.3264 -0.9522 -0.1982
14573TIP3    H165134   1.457   0.532  16.123 -0.5124  0.0770  1.4535
14573TIP3    H265135   1.534   0.405  16.149 -2.8167 -1.5854  0.5204
14574TIP3   OH265136   2.735   4.564   2.530  0.2541  0.6607  0.1298
14574TIP3    H165137   2.645   4.582   2.558  0.1450 -0.6727  0.6752
14574TIP3    H265138   2.768   4.650   2.503 -1.9280  0.8639 -2.3178
14575TIP3   OH265139   2.006   1.505  15.412  0.7389  0.2569  0.3617
14575TIP3    H165140   2.062   1.454  15.353 -1.6771 -2.1338 -0.0664
14575TIP3    H265141   2.039   1.485  15.499 -0.0692 -2.1081  0.1927
14576TIP3   OH265142   3.420   5.090  15.250  0.3277  0.3552  0.6248
14576TIP3    H165143   3.431   4.995  15.260 -1.1474  0.0550 -0.1649
14576TIP3    H265144   3.486   5.115  15.185  0.7140 -0.1273  0.8232
14577TIP3   OH265145   3.850   2.611  12.662 -0.3850  0.3515 -0.2559
14577TIP3    H165146   3.765   2.654  12.668 -0.6051 -0.0970 -0.1080
14577TIP3    H265147   3.898   2.641  12.740 -0.7091 -0.0374  0.0946
14578TIP3   OH265148   3.708   1.068   2.137  0.0917 -0.0900  0.0850
14578TIP3    H165149   3.780   1.016   2.172  0.8388 -0.2646 -1.5970
14578TIP3    H265150   3.749   1.150   2.111 -0.4851  0.1408 -0.1121
14579TIP3   OH265151   4.184   6.278   4.911  0.8994 -0.2913  0.2685
14579TIP3    H165152   4.168   6.183   4.915 -0.9463  0.0023  1.0705
14579TIP3    H265153   4.209   6.294   4.820 -0.4647 -1.3300 -0.3341
14580TIP3   OH265154   3.883   5.201   0.066  0.5481  0.0623 -0.5638
14580TIP3    H165155   3.907   5.134   0.131  0.7592 -1.2223 -1.9248
14580TIP3    H265156   3.802   5.168   0.027  0.4332  0.8160 -0.9687
14581TIP3   OH265157   2.369   5.886   2.798  0.1815 -0.9951  0.2771
14581TIP3    H165158   2.334   5.949   2.860  1.6864 -0.1698  0.3209
14581TIP3    H265159   2.405   5.816   2.852 -0.7983 -1.5472  0.2442
14582TIP3   OH265160   3.006   6.249   4.272 -0.1373  0.0116  0.1228
14582TIP3    H165161   3.027   6.270   4.182 -1.4344 -0.4727 -0.3199
14582TIP3    H265162   3.010   6.333   4.318  2.1699  0.0130 -0.0037
14583TIP3   OH265163   3.848   4.227   2.142 -0.2856 -0.2045  0.3592
14583TIP3    H165164   3.795   4.215   2.063 -0.0692 -3.2028  0.5753
14583TIP3    H265165   3.938   4.223   2.111 -0.1909 -2.1480  0.7736
14584TIP3   OH265166   3.124   3.270  11.625 -0.3926 -0.1111  0.4841
14584TIP3    H165167   3.126   3.340  11.559  0.2141  0.3176  0.9419
14584TIP3    H265168   3.216   3.251  11.642 -0.5512 -1.1007  0.2976
14585TIP3   OH265169   0.349   6.779  14.289 -0.3040  0.3716 -0.1296
14585TIP3    H165170   0.421   6.716  14.296 -0.9208 -0.4552 -1.0029
14585TIP3    H265171   0.271   6.728  14.312 -0.7483  0.9497 -0.3543
14586TIP3   OH265172   2.389   5.822  11.108  0.3773  0.2728  0.4351
14586TIP3    H165173   2.322   5.826  11.177 -0.8500  0.7189 -0.7453
14586TIP3    H265174   2.432   5.737  11.121 -3.0056 -1.8915 -1.0728
14587TIP3   OH265175   6.354   0.204   5.667 -0.2984 -0.1276  0.1242
14587TIP3    H165176   6.387   0.292   5.649  1.5395 -0.6455  0.6546
14587TIP3    H265177   6.264   0.217   5.696  0.2185  1.6921  1.1060
14588TIP3   OH265178   1.213   3.236   4.929  0.0621  0.3327  0.0741
14588TIP3    H165179   1.159   3.227   4.851  0.2973 -0.9369  0.0298
14588TIP3    H265180   1.295   3.192   4.907  0.2807  0.3200  0.8808
14589TIP3   OH265181   4.805   0.451  11.632  0.1044 -0.5825  0.2584
14589TIP3    H165182   4.894   0.459  11.598 -0.4606 -2.8876 -2.1427
14589TIP3    H265183   4.765   0.536  11.615  1.9680  0.7489  2.0710
14590TIP3   OH265184   6.767   5.347  15.241  0.2740  0.6994  0.3745
14590TIP3    H165185   6.772   5.408  15.166 -2.4057  1.9501  1.1079
14590TIP3    H265186   6.802   5.265  15.207 -0.7201  1.2572 -2.2496
14591TIP3   OH265187   2.510   3.784   0.932  0.3865  0.0747  0.0443
14591TIP3    H165188   2.524   3.871   0.970 -0.8086 -0.3417  1.5032
14591TIP3    H265189   2.586   3.771   0.875 -0.3186  2.8602 -1.7588
14592TIP3   OH265190   1.546   4.736  11.896  0.1968  0.0140 -0.5360
14592TIP3    H165191   1.558   4.686  11.977  1.3668 -0.1559 -0.8083
14592TIP3    H265192   1.585   4.821  11.914 -1.7144  0.8673 -0.1034
14593TIP3   OH265193   6.039   4.219   3.776  0.1791 -0.3462  0.4772
14593TIP3    H165194   6.044   4.138   3.725 -2.6837 -0.2127 -0.1378
14593TIP3    H265195   6.095   4.281   3.728  1.5920 -1.6149  0.4020
14594TIP3   OH265196   0.383   5.357   5.135  0.5414 -0.3630  0.4867
14594TIP3    H165197   0.332   5.310   5.069 -1.8812  2.5708 -0.0023
14594TIP3    H265198   0.404   5.441   5.093 -0.5038  1.3503  3.1042
14595TIP3   OH265199   2.041   2.706   0.892 -0.2930  0.7752  0.0393
14595TIP3    H165200   2.021   2.750   0.975 -1.3121 -0.9541  0.7626
14595TIP3    H265201   2.071   2.619   0.918  4.1676  1.6998 -1.2243
14596TIP3   OH265202   0.561   4.819   2.104  0.0734 -0.1432 -0.1980
14596TIP3    H165203   0.508   4.876   2.049 -0.3070 -1.6305 -1.4356
14596TIP3    H265204   0.618   4.773   2.043 -0.7883 -2.3124  0.5488
14597TIP3   OH265205   4.815   1.766  16.255  0.3646 -0.2687 -0.1925
14597TIP3    H165206   4.834   1.820  16.179  0.9710 -0.5166 -0.2253
14597TIP3    H265207   4.818   1.827  16.329  0.5328 -0.1648 -0.2853
14598TIP3   OH265208   2.580   6.800  17.076 -0.0063  0.0394 -0.0025
14598TIP3    H165209   2.570   6.796  17.171  0.9944  0.1040  0.1207
14598TIP3    H265210   2.531   6.878  17.050 -0.0089  0.2126  0.5053
14599TIP3   OH265211   2.587   3.674  17.028 -0.6321  0.5906 -0.2842
14599TIP3    H165212   2.606   3.744  16.967 -0.2612  0.6866 -0.0630
14599TIP3    H265213   2.665   3.667  17.083 -0.7944  0.2295 -0.0899
14600TIP3   OH265214   5.969   2.327   2.762 -0.5033  0.4601 -0.5576
14600TIP3    H165215   6.056   2.352   2.793 -1.0521  0.2251  1.2963
14600TIP3    H265216   5.975   2.234   2.744 -0.8063  0.0068  1.4127
14601TIP3   OH265217   6.106   0.374  12.190 -0.4979 -0.5731  0.6052
14601TIP3    H165218   6.180   0.393  12.132 -1.4412  5.4519  0.7380
14601TIP3    H265219   6.147   0.347  12.272  1.3858 -0.6334 -0.3002
14602TIP3   OH265220   3.121   6.267   3.580 -0.1138  0.5844  0.4612
14602TIP3    H165221   3.169   6.246   3.660  2.0984 -0.6709 -1.0866
14602TIP3    H265222   3.038   6.303   3.610  0.8168  0.5568  3.2962
14603TIP3   OH265223   6.470   1.091  14.734 -0.2352 -0.0112 -0.5000
14603TIP3    H165224   6.422   1.011  14.712 -1.1212  0.7217 -1.3591
14603TIP3    H265225   6.491   1.130  14.650 -0.7916  1.2183 -0.0871
14604TIP3   OH265226   1.012   5.672  11.550 -0.3066  0.1720 -0.2198
14604TIP3    H165227   0.978   5.751  11.508 -0.8823  0.2510  0.3702
14604TIP3    H265228   1.047   5.703  11.634  0.8063  0.0167 -0.6036
14605TIP3   OH265229   4.587   4.341  11.860  0.3962 -0.0099 -0.3277
14605TIP3    H165230   4.501   4.382  11.852  0.7909  0.9982  0.4153
14605TIP3    H265231   4.606   4.307  11.772 -0.2564  0.7736 -0.7771
14606TIP3   OH265232   6.023   6.303   1.791  0.3258  0.3181  0.4961
14606TIP3    H165233   5.986   6.304   1.703  1.1925 -1.1511  0.0806
14606TIP3    H265234   6.102   6.358   1.785  1.1244 -0.8523 -0.0176
14607TIP3   OH265235   1.837   6.255   3.965 -0.5952  0.4677  0.2800
14607TIP3    H165236   1.747   6.228   3.945 -0.7294  1.1488 -0.0824
14607TIP3    H265237   1.871   6.186   4.022 -0.7011 -0.8097 -1.1334
14608TIP3   OH265238   1.694   6.688  16.577  0.7915 -0.5004  0.8830
14608TIP3    H165239   1.736   6.750  16.518 -0.9821  0.7341  0.8416
14608TIP3    H265240   1.745   6.694  16.658  0.0134  1.9532  1.2884
14609TIP3   OH265241   3.752   0.236  16.611  0.0316 -0.7250  0.4401
14609TIP3    H165242   3.737   0.322  16.571  0.4152 -0.0613  1.6496
14609TIP3    H265243   3.822   0.197  16.560  1.6827  0.8133  1.4151
14610TIP3   OH265244   6.315   6.593  12.630 -0.3133  0.1479  0.3213
14610TIP3    H165245   6.280   6.539  12.559  0.3150 -0.2491  0.3037
14610TIP3    H265246   6.331   6.530  12.701 -0.0485  0.3958  0.4800
14611TIP3   OH265247   5.123   3.750   6.114 -0.1337 -0.0872 -0.1979
14611TIP3    H165248   5.061   3.815   6.079  0.3161  1.3231  1.4834
14611TIP3    H265249   5.067   3.679   6.146 -0.7138 -0.0321 -1.0651
14612TIP3   OH265250   5.411   0.281   1.660  0.0555  0.7955  0.1896
14612TIP3    H165251   5.351   0.263   1.588  0.1421 -1.6639  0.6177
14612TIP3    H265252   5.494   0.243   1.632  0.5597  1.3566  0.8752
14613TIP3   OH265253   0.552   2.853   0.805  0.2061  0.0552 -0.1709
14613TIP3    H165254   0.610   2.841   0.730  0.5326  1.8075 -0.2343
14613TIP3    H265255   0.580   2.936   0.844 -1.3673  0.2583  0.6067
14614TIP3   OH265256   0.053   5.705   3.472 -0.7960 -0.0305  0.3015
14614TIP3    H165257  -0.012   5.657   3.421  0.3953  0.4045 -1.7118
14614TIP3    H265258   0.130   5.649   3.471  0.1052  1.1722 -0.7322
14615TIP3   OH265259   2.033   1.568  11.635  0.2309 -0.0796  0.2078
14615TIP3    H165260   2.052   1.659  11.611 -2.0605  0.6221  0.8357
14615TIP3    H265261   1.966   1.541  11.572 -0.0748 -0.8825  0.8771
14616TIP3   OH265262   0.838   1.664  14.286  0.8048  0.1249 -0.5349
14616TIP3    H165263   0.772   1.727  14.256  0.2916  0.0840  0.4499
14616TIP3    H265264   0.791   1.581  14.294  0.5005  0.4345  1.7345
14617TIP3   OH265265   0.795   4.580  16.588 -0.0677  0.5529  0.2952
14617TIP3    H165266   0.793   4.649  16.521  0.7007  3.4538  2.9960
14617TIP3    H265267   0.876   4.596  16.635 -0.7388 -1.1341  2.1376
14618TIP3   OH265268   5.448   0.645  16.144  0.3694 -0.5497 -0.3193
14618TIP3    H165269   5.464   0.674  16.234 -2.3059 -1.9159  0.7126
14618TIP3    H265270   5.425   0.726  16.097  0.7803  0.0457  0.4823
14619TIP3   OH265271   3.858   4.891   1.806 -0.1064 -0.4485  0.2590
14619TIP3    H165272   3.832   4.883   1.897  1.7168 -0.6381  0.8078
14619TIP3    H265273   3.793   4.840   1.758 -2.3222  1.3540  1.1651
14620TIP3   OH265274   2.911   0.749   2.573 -0.0914 -0.5100 -0.0761
14620TIP3    H165275   2.930   0.677   2.513  0.2398 -0.5457  0.0686
14620TIP3    H265276   2.933   0.714   2.659  0.2623 -0.1678 -0.0268
14621TIP3   OH265277   1.946   3.787  13.951 -0.2593  0.5038 -0.0354
14621TIP3    H165278   1.927   3.723  14.019  1.6384 -0.5040 -0.3950
14621TIP3    H265279   1.866   3.840  13.945 -2.3922 -2.4905 -0.5296
14622TIP3   OH265280   1.724   6.433   0.927 -0.1010  0.0009  0.2793
14622TIP3    H165281   1.778   6.466   0.998 -0.7019 -0.2512  0.8716
14622TIP3    H265282   1.751   6.342   0.917  0.8950  0.3983 -0.7092
14623TIP3   OH265283   0.904   5.244   0.579 -0.2487 -0.3635 -0.1219
14623TIP3    H165284   0.888   5.272   0.669 -1.0505  2.6656 -1.0807
14623TIP3    H265285   0.993   5.208   0.581  0.0349  0.3183  1.7459
14624TIP3   OH265286   0.933   6.107   2.615 -0.4616  0.1196 -0.0606
14624TIP3    H165287   0.936   6.127   2.709  1.4025  0.5432 -0.1844
14624TIP3    H265288   0.911   6.190   2.573 -1.6662 -0.1495 -0.0054
14625TIP3   OH265289   6.040   5.227   3.826 -0.3681 -0.2342 -0.1270
14625TIP3    H165290   6.103   5.202   3.893 -1.3806 -1.2960  0.4489
14625TIP3    H265291   5.959   5.244   3.874 -0.3762  1.8283 -0.7700
14626TIP3   OH265292   4.566   0.349  17.008 -0.1372  0.2589 -0.0688
14626TIP3    H165293   4.559   0.439  16.977  0.4531  0.2120 -0.3567
14626TIP3    H265294   4.475   0.321  17.022 -0.3308  0.8346 -0.1569
14627TIP3   OH265295   2.270   2.794  12.932 -0.3892 -0.3856 -0.1650
14627TIP3    H165296   2.279   2.888  12.945  0.8366 -0.6990  1.5859
14627TIP3    H265297   2.227   2.786  12.847  0.3825  1.7235 -0.8269
14628TIP3   OH265298   3.411   6.315  13.785 -0.6957 -0.5580 -0.2908
14628TIP3    H165299   3.364   6.234  13.808 -0.8233 -0.9723 -1.9283
14628TIP3    H265300   3.362   6.351  13.712 -0.1729  0.6049 -0.0816
14629TIP3   OH265301   3.876   6.234   5.099 -0.4350  0.3744  0.1016
14629TIP3    H165302   3.849   6.161   5.043  1.5317  0.6845 -1.3486
14629TIP3    H265303   3.906   6.301   5.038  1.1744  0.9902  1.4977
14630TIP3   OH265304   1.580   3.046   6.697  0.0076  0.4838 -0.1581
14630TIP3    H165305   1.598   3.023   6.606  1.8349  0.2375  0.2385
14630TIP3    H265306   1.514   2.982   6.726  0.8368 -0.6528 -0.7470
14631TIP3   OH265307   6.563   0.610   3.954  0.0662 -0.1488 -0.2215
14631TIP3    H165308   6.605   0.525   3.939  2.9395  1.3948 -1.7614
14631TIP3    H265309   6.507   0.622   3.877 -1.0340 -0.9648  0.4220
14632TIP3   OH265310   5.309   3.680   0.821 -0.3796  0.3398 -0.3583
14632TIP3    H165311   5.345   3.635   0.744  1.9009  1.4622 -0.0377
14632TIP3    H265312   5.351   3.766   0.820 -1.7620  1.0898  1.1201
14633TIP3   OH265313   1.949   4.350   0.764  0.5557  0.4086 -0.1929
14633TIP3    H165314   2.022   4.410   0.778  1.0281 -0.3145  0.5808
14633TIP3    H265315   1.961   4.318   0.674  0.8939  0.6856 -0.2490
14634TIP3   OH265316   6.225   2.290  13.758 -0.2543  0.2405  0.1628
14634TIP3    H165317   6.274   2.253  13.684  1.2425 -1.4935  1.9149
14634TIP3    H265318   6.168   2.219  13.787 -1.0988  1.0263  0.4951
14635TIP3   OH265319   0.104   1.454  12.086 -0.0609 -0.0643  0.3182
14635TIP3    H165320   0.043   1.381  12.096 -0.8815  0.4209 -0.9818
14635TIP3    H265321   0.124   1.457  11.993  3.9402 -1.7364  0.9134
14636TIP3   OH265322   6.293   2.927  15.879  0.6790  0.0169  0.2593
14636TIP3    H165323   6.315   2.884  15.797  0.6236  0.4940 -0.0124
14636TIP3    H265324   6.215   2.980  15.859 -0.0768 -0.7984  0.9271
14637TIP3   OH265325   1.832   3.309   1.718  0.4115 -0.2774 -0.3719
14637TIP3    H165326   1.866   3.332   1.804 -0.1690  1.2088 -0.4998
14637TIP3    H265327   1.883   3.361   1.657  1.5453 -2.1131 -1.0683
14638TIP3   OH265328   6.706   0.473   1.015  0.1595 -0.1314 -0.0435
14638TIP3    H165329   6.779   0.500   1.071 -2.2563  1.5592  2.5898
14638TIP3    H265330   6.714   0.378   1.009  2.0084 -0.0859  1.0287
14639TIP3   OH265331   3.204   2.169  17.078  0.2948  0.5010  0.1582
14639TIP3    H165332   3.159   2.252  17.097 -1.1713 -0.6311  1.9762
14639TIP3    H265333   3.289   2.196  17.044 -0.4783  2.7479 -0.2336
14640TIP3   OH265334   5.933   5.700   4.622  0.6877 -0.0804 -0.6419
14640TIP3    H165335   5.893   5.614   4.607  0.3973 -0.1759  0.5634
14640TIP3    H265336   5.995   5.685   4.694 -0.3312  0.9710  0.5052
14641TIP3   OH265337   1.324   4.209  12.386 -0.1277 -0.1022  0.1312
14641TIP3    H165338   1.304   4.275  12.452 -0.7348  0.0544 -0.2019
14641TIP3    H265339   1.248   4.150  12.387 -0.1651 -0.0707 -0.4561
14642TIP3   OH265340   6.260   4.089   4.542  0.1216 -0.2780 -0.3458
14642TIP3    H165341   6.279   4.137   4.623 -2.2240  2.2525 -1.1398
14642TIP3    H265342   6.321   4.125   4.478 -0.3054  0.2367 -0.4723
14643TIP3   OH265343   0.944   3.653   3.033 -0.5975 -0.3179  0.4622
14643TIP3    H165344   0.967   3.705   2.956  0.2039  0.3717  1.1442
14643TIP3    H265345   0.925   3.566   2.999 -0.0937 -0.0696 -0.4929
14644TIP3   OH265346   2.363   5.476  12.739  0.2353  0.4626  0.2647
14644TIP3    H165347   2.371   5.522  12.655  1.1496  0.9031  0.5756
14644TIP3    H265348   2.346   5.546  12.803  1.1463  0.3349  0.6693
14645TIP3   OH265349   3.311   1.357  16.528  0.4152 -0.3629 -0.2737
14645TIP3    H165350   3.315   1.332  16.620  0.6515  0.5842 -0.0167
14645TIP3    H265351   3.295   1.275  16.481 -1.2267 -0.6511  0.7278
14646TIP3   OH265352   6.297   0.453  13.168 -0.2453  0.1074 -0.3246
14646TIP3    H165353   6.388   0.452  13.197 -0.1496 -0.1422 -0.6310
14646TIP3    H265354   6.288   0.534  13.119  0.6287 -1.1980 -2.8493
14647TIP3   OH265355   6.699   2.104   1.033 -0.0984  0.3916  0.2504
14647TIP3    H165356   6.688   2.195   1.058 -0.4797  0.4032  0.0512
14647TIP3    H265357   6.793   2.087   1.041 -0.2287  0.2912  2.0525
14648TIP3   OH265358   4.569   0.281  11.577 -0.1588  0.4655  0.0692
14648TIP3    H165359   4.660   0.312  11.574  0.9085 -1.7389  3.7044
14648TIP3    H265360   4.517   0.361  11.570  2.0869  2.0134 -0.2291
14649TIP3   OH265361   4.164   5.042   2.044  0.1247  0.7831 -0.4375
14649TIP3    H165362   4.201   4.959   2.076 -4.0829 -2.0767 -2.0552
14649TIP3    H265363   4.195   5.048   1.954  2.4126  2.4877  0.3634
14650TIP3   OH265364   2.437   3.661  12.647  0.2031 -0.3012  0.3609
14650TIP3    H165365   2.429   3.756  12.655 -0.2056 -0.3019  0.0377
14650TIP3    H265366   2.497   3.635  12.717  1.5481  0.3741 -0.5225
14651TIP3   OH265367   4.062   6.504   1.488 -0.2856  0.4695  0.2025
14651TIP3    H165368   3.980   6.454   1.497  0.6247 -1.1910 -0.1840
14651TIP3    H265369   4.108   6.489   1.570  0.7503 -0.8386 -0.5702
14652TIP3   OH265370   3.238   3.422  12.012  0.2437 -0.1826 -0.2884
14652TIP3    H165371   3.143   3.422  12.027  0.2115 -0.9695 -0.4281
14652TIP3    H265372   3.250   3.475  11.933  0.0294  0.7651  0.3035
14653TIP3   OH265373   0.335   1.725  16.838 -0.2850 -0.0064 -0.6928
14653TIP3    H165374   0.428   1.709  16.854 -0.6155  0.3018  1.9494
14653TIP3    H265375   0.298   1.639  16.819  0.0982 -0.6077  1.0874
14654TIP3   OH265376   3.249   2.682   3.511 -0.2843 -0.0529  0.1413
14654TIP3    H165377   3.187   2.701   3.441 -0.9972 -0.4898  0.6484
14654TIP3    H265378   3.200   2.696   3.592  0.8060  1.4322  0.6043
14655TIP3   OH265379   6.799   2.031  16.079  0.4281  0.1216  0.1448
14655TIP3    H165380   6.820   1.985  16.160  0.7987  0.0256 -0.0026
14655TIP3    H265381   6.847   2.114  16.085 -1.7694  1.3858  1.2932
14656TIP3   OH265382   1.202   1.285   4.365 -0.2206 -1.0852  0.3292
14656TIP3    H165383   1.116   1.263   4.328 -0.1763  1.1180 -1.3353
14656TIP3    H265384   1.264   1.263   4.296  0.0202  1.6311 -0.4668
14657TIP3   OH265385   3.716   2.674  10.849  0.2307  0.0130 -0.9741
14657TIP3    H165386   3.778   2.717  10.791 -0.9546  0.6116 -1.8382
14657TIP3    H265387   3.732   2.580  10.837 -0.4211  0.0914 -2.8003
14658TIP3   OH265388   3.594   2.700   4.722  0.4050 -0.0939 -0.4297
14658TIP3    H165389   3.679   2.743   4.711  0.0427  0.2986 -1.7901
14658TIP3    H265390   3.586   2.642   4.646  0.4773 -1.9400  0.8885
14659TIP3   OH265391   4.080   1.596   3.452 -0.4496 -0.0399  0.7096
14659TIP3    H165392   4.169   1.627   3.438  0.1715 -1.5636  1.0375
14659TIP3    H265393   4.053   1.635   3.535 -0.2741  0.7749  0.3956
14660TIP3   OH265394   0.407   0.139  17.078  0.3401  0.0499  0.0806
14660TIP3    H165395   0.321   0.105  17.053 -0.0470  0.2170  1.1255
14660TIP3    H265396   0.419   0.110  17.169  2.0546 -1.2611 -0.4973
14661TIP3   OH265397   3.494   6.485  11.022 -0.0054 -0.2460  0.6798
14661TIP3    H165398   3.555   6.467  10.950  0.0691 -0.4650  0.7961
14661TIP3    H265399   3.407   6.486  10.980  0.1679  1.1761  0.3247
14662TIP3   OH265400   6.318   5.034   0.858 -0.3801 -0.1605 -0.3013
14662TIP3    H165401   6.381   5.013   0.788 -1.9650 -2.1243 -1.2180
14662TIP3    H265402   6.243   5.071   0.812 -1.3641 -1.2870  0.3565
14663TIP3   OH265403   2.975   2.494  11.407  0.4450  0.0490 -0.4074
14663TIP3    H165404   2.948   2.405  11.383  0.7066 -0.5679  1.4615
14663TIP3    H265405   3.011   2.486  11.495  2.0946  1.7220 -0.8599
14664TIP3   OH265406   3.490   4.886  11.544 -0.2739  0.1186 -0.2279
14664TIP3    H165407   3.403   4.851  11.567 -0.5436  0.7845 -0.2223
14664TIP3    H265408   3.494   4.971  11.587  0.4669  0.0062 -0.0717
14665TIP3   OH265409   3.088   2.130   5.879 -0.0413  0.4452  0.4678
14665TIP3    H165410   3.136   2.098   5.803 -1.1488 -0.8476  0.2795
14665TIP3    H265411   3.151   2.126   5.951  0.4242 -0.2707  0.0278
14666TIP3   OH265412   2.229   5.369   4.782  0.7565 -0.5108 -0.4096
14666TIP3    H165413   2.229   5.403   4.871  1.2164 -3.3827  0.8060
14666TIP3    H265414   2.320   5.374   4.754  0.5415  0.8082 -0.9432
14667TIP3   OH265415   5.267   5.590  13.132  0.2318 -0.1820 -0.0152
14667TIP3    H165416   5.335   5.533  13.096 -0.8585 -1.0298 -0.7771
14667TIP3    H265417   5.309   5.676  13.139  1.9437 -1.0627  1.2744
14668TIP3   OH265418   3.904   2.487   1.343  0.1189 -0.1054  0.1639
14668TIP3    H165419   3.896   2.571   1.388 -0.0469  0.4898 -0.9287
14668TIP3    H265420   3.925   2.424   1.412 -1.3229  0.5503  1.2407
14669TIP3   OH265421   2.607   3.306   5.015  0.2782 -0.0532  0.4477
14669TIP3    H165422   2.659   3.300   5.096 -1.3534  0.1362  1.5625
14669TIP3    H265423   2.663   3.355   4.955  1.1843  0.6204  1.7689
14670TIP3   OH265424   2.899   1.621   0.814  0.2743 -0.0879 -0.0489
14670TIP3    H165425   2.868   1.536   0.844 -0.4816  0.7005  1.4677
14670TIP3    H265426   2.914   1.671   0.894 -0.5833  1.6578 -0.9424
14671TIP3   OH265427   0.556   5.646  16.540  0.5296 -0.2903  0.0456
14671TIP3    H165428   0.537   5.592  16.463  0.6600 -1.5228  0.8361
14671TIP3    H265429   0.483   5.707  16.545 -0.6647 -1.6597  0.1816
14672TIP3   OH265430   6.418   3.903  11.629 -0.2035 -0.4641  0.4560
14672TIP3    H165431   6.496   3.864  11.669  0.8941 -0.5800 -1.6790
14672TIP3    H265432   6.405   3.985  11.677  0.1176 -1.3073  2.0423
14673TIP3   OH265433   4.188   6.467  15.915  0.0552 -0.5371  0.0086
14673TIP3    H165434   4.125   6.504  15.976 -0.1547  1.3860 -1.2853
14673TIP3    H265435   4.134   6.426  15.847  0.1992  0.1252 -0.5151
14674TIP3   OH265436   4.951   1.465   5.663  0.1776 -0.7555 -0.2003
14674TIP3    H165437   5.012   1.397   5.636  0.4554  0.3053 -2.4450
14674TIP3    H265438   4.966   1.538   5.603 -1.0047  0.8328  1.2849
14675TIP3   OH265439   0.563   4.924   2.750 -0.1948  0.2709  0.3108
14675TIP3    H165440   0.519   4.930   2.835  0.2029 -2.7626  0.8248
14675TIP3    H265441   0.500   4.881   2.693  0.6103 -0.4108 -0.0818
14676TIP3   OH265442   4.322   6.044  14.544  0.2325  0.2237 -0.5158
14676TIP3    H165443   4.333   6.119  14.601 -1.4732 -0.1321  0.3433
14676TIP3    H265444   4.292   5.973  14.602  0.0751 -0.6108 -1.5701
14677TIP3   OH265445   6.797   1.453  13.987  0.8079  0.8361 -0.3124
14677TIP3    H165446   6.723   1.408  14.027  0.5911  0.7301 -0.8210
14677TIP3    H265447   6.811   1.407  13.905  1.5961  0.7023 -0.1068
14678TIP3   OH265448   5.161   3.682  14.646 -0.0427 -0.4170  0.2908
14678TIP3    H165449   5.248   3.715  14.666 -0.0843 -0.6725  0.9206
14678TIP3    H265450   5.101   3.743  14.690 -0.1232 -1.2230  1.3459
14679TIP3   OH265451   3.805   4.377  12.508 -0.3416 -0.1025  0.1058
14679TIP3    H165452   3.782   4.375  12.601 -1.8435 -1.3900 -0.2436
14679TIP3    H265453   3.861   4.301  12.495 -0.5968 -0.2553 -0.1296
14680TIP3   OH265454   5.899   4.770   3.383 -0.5925  0.6837 -0.6623
14680TIP3    H165455   5.937   4.814   3.458  2.0169  0.2545 -1.5971
14680TIP3    H265456   5.848   4.698   3.420  1.4539 -0.1455  0.7581
14681TIP3   OH265457   2.752   4.537  11.360  0.0662 -0.2275 -0.0823
14681TIP3    H165458   2.733   4.615  11.413 -0.4958 -0.5442  0.1983
14681TIP3    H265459   2.749   4.464  11.423 -0.2074 -0.5652 -0.4826
14682TIP3   OH265460   5.523   5.698   5.171  0.5423 -0.5960 -0.1417
14682TIP3    H165461   5.473   5.669   5.094 -1.1026  0.0018  0.6510
14682TIP3    H265462   5.491   5.787   5.188  1.9295 -0.1726  0.3929
14683TIP3   OH265463   2.490   2.671   2.600  0.0136 -0.2174 -0.1764
14683TIP3    H165464   2.408   2.659   2.647 -0.5330  0.1739 -0.9951
14683TIP3    H265465   2.511   2.585   2.564  0.0501 -0.3514  0.1584
14684TIP3   OH265466   2.867   5.965   2.962 -0.0265  0.5201  0.1444
14684TIP3    H165467   2.840   5.985   2.872  1.0793 -0.1489 -0.3605
14684TIP3    H265468   2.803   5.899   2.991 -0.2629  0.5773 -0.2310
14685TIP3   OH265469   1.691   0.653   5.799  0.3240  0.3243 -0.5321
14685TIP3    H165470   1.611   0.606   5.820  0.4927  0.8042  1.4468
14685TIP3    H265471   1.758   0.585   5.788  0.0257 -0.0136 -0.2726
14686TIP3   OH265472   1.249   3.242   2.519 -0.1575  0.1295 -0.2682
14686TIP3    H165473   1.331   3.219   2.563 -0.6832  0.1813  0.7649
14686TIP3    H265474   1.180   3.214   2.579 -0.8609  1.9477 -0.1655
14687TIP3   OH265475   3.057   3.006  11.003  0.1741  0.3199 -0.4484
14687TIP3    H165476   2.985   3.047  10.953  0.4550 -1.0859 -2.0946
14687TIP3    H265477   3.041   2.912  10.995 -0.1112  0.0065  2.7309
14688TIP3   OH265478   6.220   4.096  14.752  0.1007  0.0879  1.0513
14688TIP3    H165479   6.294   4.112  14.694 -1.7389  1.1576 -1.1552
14688TIP3    H265480   6.186   4.011  14.725 -0.8632  0.6627  0.3628
14689TIP3   OH265481   0.383   2.172  14.460  0.0388  0.7271 -0.2521
14689TIP3    H165482   0.446   2.209  14.522  0.5343  0.0184 -0.3197
14689TIP3    H265483   0.297   2.189  14.499  0.2526  1.8344 -0.2289
14690TIP3   OH265484   1.796   4.883  14.941 -0.4077  0.0591 -0.3454
14690TIP3    H165485   1.755   4.798  14.956  0.0718 -0.0758  0.2215
14690TIP3    H265486   1.829   4.909  15.027 -1.2281  1.1773 -0.3406
14691TIP3   OH265487   4.822   3.279   1.204  0.0037  0.5592 -0.1180
14691TIP3    H165488   4.904   3.243   1.170 -0.7765 -0.1635 -1.3598
14691TIP3    H265489   4.845   3.365   1.238  0.7423  1.9654 -3.6852
14692TIP3   OH265490   1.442   2.571  16.567  0.2291 -0.1618 -0.4982
14692TIP3    H165491   1.498   2.634  16.522  1.2241 -0.4896  0.2321
14692TIP3    H265492   1.438   2.496  16.508  1.9063 -0.7737  0.1062
14693TIP3   OH265493   5.352   5.558   6.237  0.1272  0.1261 -0.1949
14693TIP3    H165494   5.386   5.474   6.204  0.2128 -0.2569  0.8417
14693TIP3    H265495   5.334   5.609   6.158  0.8451 -0.5651 -0.8237
14694TIP3   OH265496   3.578   4.717  12.776  0.2312 -0.3349  0.4025
14694TIP3    H165497   3.544   4.777  12.710 -1.6972 -0.2325  1.4333
14694TIP3    H265498   3.538   4.745  12.858  0.3095 -2.1989  1.1336
14695TIP3   OH265499   0.968   5.143  11.374  0.0259  0.2253  0.2373
14695TIP3    H165500   0.926   5.069  11.329 -0.5700 -0.1597  1.3989
14695TIP3    H265501   0.898   5.206  11.387  0.0370  0.0482  1.2123
14696TIP3   OH265502   3.299   0.330  11.484 -0.1136 -0.1197  0.6276
14696TIP3    H165503   3.367   0.268  11.456  0.3281  0.8912 -0.6513
14696TIP3    H265504   3.270   0.372  11.403 -1.1771  0.5662  1.3394
14697TIP3   OH265505   4.174   4.652   6.263  0.5772  0.2624  0.1435
14697TIP3    H165506   4.177   4.735   6.310  0.5159  0.4168 -0.1235
14697TIP3    H265507   4.089   4.615   6.283 -0.5036  1.4998 -1.8253
14698TIP3   OH265508   2.310   5.133   5.033 -0.3183  0.1207  0.1581
14698TIP3    H165509   2.340   5.043   5.041  0.3660  0.3908  0.7262
14698TIP3    H265510   2.375   5.185   5.081 -0.8962  0.8764  0.1514
14699TIP3   OH265511   2.730   2.152  16.361  0.4058 -0.1318  0.2810
14699TIP3    H165512   2.665   2.208  16.403 -0.1969 -0.3709 -0.3139
14699TIP3    H265513   2.804   2.210  16.342 -0.8138  0.8710 -1.7465
14700TIP3   OH265514   6.483   4.559   2.316  0.7795  0.2550 -0.6361
14700TIP3    H165515   6.456   4.651   2.329  0.4936  0.1156 -0.2047
14700TIP3    H265516   6.449   4.514   2.394 -0.2520 -0.4677 -1.4797
14701TIP3   OH265517   4.899   2.134   5.576 -0.3014 -0.2066 -0.3983
14701TIP3    H165518   4.864   2.223   5.587 -0.5345 -0.2522 -0.7561
14701TIP3    H265519   4.942   2.136   5.490 -1.7262 -0.8951 -1.1636
14702TIP3   OH265520   0.077   3.151  14.775  0.4168  0.3147 -0.1917
14702TIP3    H165521   0.081   3.150  14.871  2.1560 -0.4801 -0.2327
14702TIP3    H265522  -0.008   3.113  14.754  0.0237  0.4781  1.0324
14703TIP3   OH265523   3.850   5.914   5.284  0.0780 -0.3940  0.0976
14703TIP3    H165524   3.841   5.938   5.192  0.8045 -4.6593 -1.2913
14703TIP3    H265525   3.943   5.926   5.302  0.3693 -1.6834 -0.4707
14704TIP3   OH265526   0.462   4.677  15.055  0.2439 -0.4091 -0.5473
14704TIP3    H165527   0.425   4.604  15.106  0.7311  1.4565  2.8000
14704TIP3    H265528   0.556   4.662  15.058  0.2391 -0.7887 -1.8427
14705TIP3   OH265529   1.174   0.425  14.272  0.3173 -0.1877 -0.0041
14705TIP3    H165530   1.146   0.371  14.346  0.1352 -0.8647 -0.5569
14705TIP3    H265531   1.131   0.386  14.196  0.1116  0.7889 -0.4134
14706TIP3   OH265532   0.489   0.195   1.652  0.0680  0.1312  0.0635
14706TIP3    H165533   0.446   0.117   1.618  2.5461 -1.1774 -0.2634
14706TIP3    H265534   0.567   0.205   1.599  0.7260  1.8217  1.2550
14707TIP3   OH265535   0.566   4.167  15.851 -0.2629 -0.3016  0.1965
14707TIP3    H165536   0.498   4.195  15.913 -0.9158 -0.4804 -0.4291
14707TIP3    H265537   0.646   4.207  15.884 -0.1680 -2.0868  2.3941
14708TIP3   OH265538   4.244   4.097   0.979  0.8350  0.0792 -0.4046
14708TIP3    H165539   4.325   4.131   0.941  1.1560  0.0146  0.2127
14708TIP3    H265540   4.207   4.172   1.025  0.4097  0.1771 -0.8968
14709TIP3   OH265541   1.111   3.432   2.083  0.1763  0.3421 -0.3078
14709TIP3    H165542   1.066   3.510   2.115 -1.2258 -0.6232  0.1965
14709TIP3    H265543   1.116   3.375   2.160  0.9605 -0.1677 -0.7269
14710TIP3   OH265544   2.554   1.535   4.457 -0.2533 -0.1813  0.3965
14710TIP3    H165545   2.603   1.496   4.384  1.2815  0.3931  1.0774
14710TIP3    H265546   2.619   1.586   4.505 -1.2392 -0.4534  2.1207
14711TIP3   OH265547   1.128   1.297  16.398  0.3737 -0.3184 -0.9836
14711TIP3    H165548   1.187   1.353  16.449  0.5851 -1.8980  0.5734
14711TIP3    H265549   1.128   1.337  16.311  1.9102  1.0595 -0.4156
14712TIP3   OH265550   2.030   0.440  14.729  0.7232  0.2830 -0.3951
14712TIP3    H165551   2.109   0.488  14.755  2.1740 -1.9695 -0.3275
14712TIP3    H265552   1.958   0.500  14.748  2.2713  1.7045  1.4203
14713TIP3   OH265553   4.057   1.331  12.016 -0.4318 -0.2363 -0.1223
14713TIP3    H165554   4.044   1.267  12.087  1.1741  0.2907  0.7093
14713TIP3    H265555   4.139   1.303  11.974 -0.6235  0.2874 -0.8597
14714TIP3   OH265556   2.198   5.099   4.798  0.0755  0.5428 -0.4451
14714TIP3    H165557   2.157   5.183   4.781 -1.0354 -0.1105 -1.0994
14714TIP3    H265558   2.240   5.110   4.884 -1.9014  1.1113  0.5185
14715TIP3   OH265559   5.635   5.304  13.722 -0.3253  0.6175  0.6374
14715TIP3    H165560   5.707   5.349  13.678  0.2408 -1.5969 -0.8952
14715TIP3    H265561   5.598   5.247  13.655 -1.7596 -0.2899  2.1303
14716TIP3   OH265562   1.984   3.390   4.285 -0.3531 -0.3046  0.8348
14716TIP3    H165563   1.999   3.418   4.375 -0.9599 -1.3099  1.2756
14716TIP3    H265564   2.071   3.373   4.250 -0.0799  0.5681  1.0624
14717TIP3   OH265565   2.657   3.222  15.510 -0.5506 -0.0127  0.0124
14717TIP3    H165566   2.648   3.265  15.425 -3.2619  1.9436  1.1517
14717TIP3    H265567   2.726   3.272  15.555  0.4421 -0.6534 -0.7643
14718TIP3   OH265568   4.139   0.126  14.675 -0.4316  0.3112 -0.1905
14718TIP3    H165569   4.135   0.215  14.641  0.4847 -0.5947 -2.9845
14718TIP3    H265570   4.229   0.098  14.657 -0.7968 -1.2898  0.3254
14719TIP3   OH265571   5.775   2.529  15.337  0.3603 -0.0234 -0.2066
14719TIP3    H165572   5.716   2.467  15.380 -0.1356 -0.0234 -0.8734
14719TIP3    H265573   5.733   2.548  15.253  2.1816 -1.4102 -1.5116
14720TIP3   OH265574   6.297   1.783   3.420  0.3567 -0.2041  0.4392
14720TIP3    H165575   6.252   1.846   3.476 -1.4545 -2.2427  1.4208
14720TIP3    H265576   6.264   1.802   3.332 -1.3481 -0.6883  0.9369
14721TIP3   OH265577   1.652   4.714   4.663 -0.1616  0.5495  0.4478
14721TIP3    H165578   1.686   4.722   4.574 -1.2625 -0.0587 -0.0510
14721TIP3    H265579   1.686   4.790   4.709  0.1182  1.0773 -0.6002
14722TIP3   OH265580   0.124   6.380  15.020  0.4061  0.2976  0.0568
14722TIP3    H165581   0.164   6.299  14.989 -0.1030  0.3180 -0.6744
14722TIP3    H265582   0.136   6.377  15.115 -2.2202 -2.1079  0.4400
14723TIP3   OH265583   4.337   0.889   2.824  0.0109 -0.2447  0.0008
14723TIP3    H165584   4.347   0.892   2.729 -0.3766 -3.1851 -0.2224
14723TIP3    H265585   4.248   0.860   2.839  0.0509  0.2013  1.3013
14724TIP3   OH265586   0.118   5.888  16.094 -0.4120 -0.3142  0.2751
14724TIP3    H165587   0.126   5.943  16.172 -0.8791  0.8340 -0.4710
14724TIP3    H265588   0.179   5.815  16.111  2.6319  1.9488  0.0083
14725TIP3   OH265589   3.974   3.622  13.422 -0.3835 -0.1766 -0.5737
14725TIP3    H165590   3.944   3.649  13.509  0.0197  0.3578 -0.6007
14725TIP3    H265591   3.915   3.550  13.398 -0.2828 -0.5504  0.2822
14726TIP3   OH265592   4.091   6.426  14.778  0.3777  0.1885  0.3600
14726TIP3    H165593   4.021   6.371  14.814 -0.2624  1.2282  0.7577
14726TIP3    H265594   4.055   6.515  14.781  2.3473  0.9930  2.1690
14727TIP3   OH265595   5.052   6.656   4.193 -0.2507  0.2606  0.2056
14727TIP3    H165596   4.997   6.700   4.258  1.1170 -0.2177  1.7423
14727TIP3    H265597   5.019   6.688   4.109 -0.8474  2.3752  1.1665
14728TIP3   OH265598   1.293   6.161   1.853 -0.6393  0.5843  0.6984
14728TIP3    H165599   1.316   6.195   1.939  0.6609  0.0854  0.5571
14728TIP3    H265600   1.334   6.075   1.849  1.4591  1.5848 -1.3419
14729TIP3   OH265601   2.686   3.656   5.911 -0.4654 -0.2538 -0.2942
14729TIP3    H165602   2.713   3.602   5.984  0.4462  1.1623  0.4507
14729TIP3    H265603   2.611   3.705   5.944 -0.7465 -0.4139 -0.6824
14730TIP3   OH265604   5.963   6.395   2.141 -0.3908  0.0379 -0.4436
14730TIP3    H165605   5.967   6.385   2.046  0.7911  0.6005 -0.4663
14730TIP3    H265606   6.037   6.344   2.174 -1.4017 -1.0259  0.2741
14731TIP3   OH265607   5.430   1.400   1.639  0.1962 -0.5524 -0.0136
14731TIP3    H165608   5.494   1.456   1.683 -0.0894 -0.1992 -0.0381
14731TIP3    H265609   5.378   1.461   1.586 -0.4969 -0.7581  0.4145
14732TIP3   OH265610   4.051   0.969   0.608 -0.3637  0.2320  0.3255
14732TIP3    H165611   4.015   0.914   0.538  0.8545  0.2712 -0.3568
14732TIP3    H265612   4.009   1.054   0.595 -0.0674  0.2693 -0.4296
14733TIP3   OH265613   5.397   3.829  15.012 -0.3346  0.4867 -0.1652
14733TIP3    H165614   5.385   3.923  15.019  1.8826  0.7993  0.1465
14733TIP3    H265615   5.395   3.811  14.918 -1.0968  0.7629 -0.2105
14734TIP3   OH265616   1.676   5.955   0.291  0.8728 -0.3390  0.2592
14734TIP3    H165617   1.713   6.003   0.365  2.0103  0.5144 -0.8188
14734TIP3    H265618   1.734   5.880   0.279  0.8151 -0.3602  0.1032
14735TIP3   OH265619   2.619   3.233   0.608  0.1524 -0.2433  0.5250
14735TIP3    H165620   2.711   3.246   0.630  0.5438  0.0501 -1.1436
14735TIP3    H265621   2.588   3.167   0.670  0.9914  0.9329  2.2791
14736TIP3   OH265622   3.518   5.673  16.319 -0.2500 -0.1789  0.3372
14736TIP3    H165623   3.600   5.625  16.330  0.0580  0.5327  1.2156
14736TIP3    H265624   3.544   5.764  16.308 -0.8225 -0.1845 -1.3684
14737TIP3   OH265625   4.389   2.675  14.635 -0.2762  0.2032  0.1663
14737TIP3    H165626   4.394   2.694  14.728 -2.3660 -0.8450  0.5439
14737TIP3    H265627   4.412   2.582  14.628  2.3340  0.8334 -0.7215
14738TIP3   OH265628   4.677   6.118   4.223 -0.4768 -0.0680  0.0357
14738TIP3    H165629   4.675   6.077   4.136 -1.6349 -0.8047  0.3747
14738TIP3    H265630   4.634   6.203   4.210 -1.7660 -0.6789  0.0884
14739TIP3   OH265631   3.597   2.691  12.726  0.2103 -0.2465  0.3489
14739TIP3    H165632   3.524   2.733  12.771  0.0957 -0.6144  0.5128
14739TIP3    H265633   3.580   2.597  12.735  1.7382 -0.4058  2.1779
14740TIP3   OH265634   0.304   5.369  14.555 -0.7636 -0.1503 -0.0751
14740TIP3    H165635   0.212   5.363  14.581 -0.1361  0.3244  2.6694
14740TIP3    H265636   0.352   5.368  14.638  1.7960 -1.3900 -1.4586
14741TIP3   OH265637   1.832   4.301   1.199 -0.3785  0.4611 -0.4497
14741TIP3    H165638   1.769   4.345   1.256  1.3345  1.0506  1.1319
14741TIP3    H265639   1.785   4.226   1.163 -1.7354  0.4074  1.2916
14742TIP3   OH265640   3.866   1.019  17.063 -0.3864  0.1573  0.6483
14742TIP3    H165641   3.787   0.972  17.039 -0.5343  0.6684  0.1233
14742TIP3    H265642   3.844   1.112  17.052  0.3387  0.2991  0.3100
14743TIP3   OH265643   3.207   1.453   0.979 -0.6606  0.0139 -0.2233
14743TIP3    H165644   3.222   1.363   1.007 -0.4232  0.3423  0.7654
14743TIP3    H265645   3.196   1.448   0.884 -0.3879 -1.0172 -0.2075
14744TIP3   OH265646   2.708   5.304  14.818  0.6151 -0.5468 -0.2948
14744TIP3    H165647   2.783   5.246  14.836  1.4924  0.5951 -0.2057
14744TIP3    H265648   2.687   5.288  14.726  1.4125 -0.3759 -0.5107
14745TIP3   OH265649   2.771   1.642   0.442 -0.2080  0.0845 -0.5276
14745TIP3    H165650   2.798   1.734   0.436 -1.2605  0.3378 -1.6891
14745TIP3    H265651   2.676   1.646   0.449 -0.1497 -0.8636  1.4959
14746TIP3   OH265652   5.053   3.279  16.405 -0.0155  0.2897 -0.6715
14746TIP3    H165653   5.125   3.330  16.441 -0.2334 -1.0764  1.9355
14746TIP3    H265654   4.977   3.305  16.458 -0.4894 -1.3975 -0.4854
14747TIP3   OH265655   1.609   5.337   0.006 -0.3563 -0.3072  0.3421
14747TIP3    H165656   1.545   5.280  -0.035 -1.1858  1.0350 -0.3079
14747TIP3    H265657   1.594   5.423  -0.034  0.7672  0.3998  1.3562
14748TIP3   OH265658   5.255   1.086   6.021 -0.3645 -0.4678  0.1643
14748TIP3    H165659   5.238   1.172   6.060 -1.6553  0.1405 -1.5661
14748TIP3    H265660   5.235   1.023   6.091  1.6522  0.6038  1.8091
14749TIP3   OH265661   5.998   2.126   1.257 -0.1322 -0.3616  0.1684
14749TIP3    H165662   6.036   2.042   1.285  0.6598  0.1678  0.7313
14749TIP3    H265663   5.906   2.105   1.239  0.0444 -1.3478  0.3173
14750TIP3   OH265664   1.057   6.462  17.086  1.0247 -0.5598  0.3391
14750TIP3    H165665   1.020   6.519  17.153  4.2884  1.0654  1.0032
14750TIP3    H265666   1.074   6.520  17.012  0.9560 -1.5225 -0.4476
14751TIP3   OH265667   6.528   4.591   4.346 -0.3178  0.5789  0.0205
14751TIP3    H165668   6.459   4.556   4.291  0.7885 -1.3481 -0.2282
14751TIP3    H265669   6.486   4.661   4.396 -1.7662  1.1994 -1.9652
14752TIP3   OH265670   3.519   4.812  16.197 -0.0739  0.2073  0.1909
14752TIP3    H165671   3.537   4.849  16.111 -0.4763  0.4675  0.2190
14752TIP3    H265672   3.593   4.753  16.213 -1.6075 -2.4483 -1.7557
14753TIP3   OH265673   6.159   5.738  16.373  0.4626  0.4121 -0.0389
14753TIP3    H165674   6.139   5.695  16.290 -0.5111 -0.2415  0.5177
14753TIP3    H265675   6.121   5.825  16.365 -2.8979 -0.8022  1.0044
14754TIP3   OH265676   6.400   5.046  12.532 -0.3081  0.3152 -0.0098
14754TIP3    H165677   6.398   5.141  12.516  0.3326 -0.1572 -3.7744
14754TIP3    H265678   6.331   5.011  12.476 -0.7176 -1.4511  1.5417
14755TIP3   OH265679   0.537   3.757  11.713 -0.1104  0.1829 -0.0245
14755TIP3    H165680   0.613   3.734  11.660 -0.0614 -0.2246  0.2222
14755TIP3    H265681   0.466   3.702  11.679 -0.2343  0.3779 -0.0846
14756TIP3   OH265682   2.673   3.731  11.170 -0.8224 -0.4799 -0.5284
14756TIP3    H165683   2.751   3.687  11.203 -0.4590 -1.0473 -2.0571
14756TIP3    H265684   2.610   3.659  11.156 -1.4878 -0.0797  0.2770
14757TIP3   OH265685   2.235   0.101  15.319  0.2925 -0.0885 -0.8759
14757TIP3    H165686   2.184   0.036  15.271  0.1540 -0.2761 -0.4798
14757TIP3    H265687   2.194   0.185  15.298  0.3168 -0.1543 -1.1895
14758TIP3   OH265688   4.217   5.358   4.012 -0.1443  0.1423  0.1293
14758TIP3    H165689   4.191   5.450   4.009  0.3050  0.2590 -0.5600
14758TIP3    H265690   4.313   5.361   4.007 -0.1250 -0.3594  0.1971
14759TIP3   OH265691   3.695   3.374   4.414 -0.1041 -0.4862 -0.0323
14759TIP3    H165692   3.762   3.409   4.355 -0.5842  0.5168  0.0002
14759TIP3    H265693   3.670   3.449   4.469 -0.0288 -1.2789  1.1114
14760TIP3   OH265694   1.718   1.469   4.777  0.4128  0.3685  0.2303
14760TIP3    H165695   1.788   1.408   4.753  0.0314  0.5409 -1.4832
14760TIP3    H265696   1.667   1.421   4.842  1.4624 -0.2027  0.6669
14761TIP3   OH265697   5.049   4.467  12.311 -0.1656 -0.0626  0.2329
14761TIP3    H165698   4.973   4.494  12.363 -0.9632 -0.4819 -0.6845
14761TIP3    H265699   5.029   4.378  12.283  0.5724 -0.1061 -0.1940
14762TIP3   OH265700   6.077   3.922   6.734 -0.0854 -0.0060  0.6652
14762TIP3    H165701   6.002   3.982   6.734 -0.0868 -0.0063  0.9287
14762TIP3    H265702   6.152   3.978   6.717 -0.2698 -0.1748 -0.8541
14763TIP3   OH265703   0.781   5.902   3.233 -0.1632 -0.2358 -0.0825
14763TIP3    H165704   0.787   5.813   3.269  0.3876 -0.8966 -1.7316
14763TIP3    H265705   0.688   5.925   3.243 -0.5954 -1.5299 -0.8107
14764TIP3   OH265706   5.241   4.811  10.704  0.1156  0.4252  0.0679
14764TIP3    H165707   5.170   4.802  10.767  0.1481  1.6778  0.2963
14764TIP3    H265708   5.241   4.728  10.655 -0.5341 -0.1638  1.0536
14765TIP3   OH265709   0.310   5.276  12.092 -0.3005  0.2812 -0.2929
14765TIP3    H165710   0.315   5.236  12.006 -0.5271  0.2614 -0.2981
14765TIP3    H265711   0.218   5.302  12.101 -0.1343  0.8914 -0.3330
14766TIP3   OH265712   0.174   6.747   5.385  0.2726  0.0874  0.1903
14766TIP3    H165713   0.242   6.750   5.452  0.7203  2.4299 -0.2679
14766TIP3    H265714   0.170   6.655   5.357  2.8398 -0.2091  0.6211
14767TIP3   OH265715   5.650   0.880   5.882 -0.0223 -0.2987 -0.3018
14767TIP3    H165716   5.566   0.899   5.925  0.1355 -0.3895  0.0505
14767TIP3    H265717   5.689   0.812   5.936 -0.1399 -0.9279 -1.0011
14768TIP3   OH265718   3.620   5.807   5.916 -0.2138  0.3669  0.3052
14768TIP3    H165719   3.590   5.718   5.931 -1.2965  0.6040 -0.3458
14768TIP3    H265720   3.624   5.846   6.003 -2.6261  0.5590  0.3858
14769TIP3   OH265721   5.474   4.361   4.281 -0.0706 -0.1415 -0.3625
14769TIP3    H165722   5.484   4.414   4.201  1.7944  1.8259  1.0307
14769TIP3    H265723   5.410   4.409   4.333  0.3982 -0.1427  0.2294
14770TIP3   OH265724   5.631   0.713  15.557 -0.2162 -0.3301 -0.0691
14770TIP3    H165725   5.695   0.777  15.525  0.0555 -0.8828 -0.6481
14770TIP3    H265726   5.681   0.654  15.612 -0.6267  0.4325  1.1668
14771TIP3   OH265727   3.642   4.972   3.432 -0.0118  0.2129 -0.0335
14771TIP3    H165728   3.663   5.061   3.459  0.7506  0.6696 -1.9358
14771TIP3    H265729   3.549   4.976   3.408  0.2390  0.7731 -0.9869
14772TIP3   OH265730   3.301   3.063  14.047 -0.2570 -0.3298 -0.4786
14772TIP3    H165731   3.281   3.101  13.961  1.1159 -1.6370 -1.4205
14772TIP3    H265732   3.383   3.104  14.073  0.0438 -0.9415 -0.4463
14773TIP3   OH265733   0.616   0.306  13.977 -0.6032  0.6882 -0.2806
14773TIP3    H165734   0.647   0.217  13.961 -0.8736  0.3977  0.7108
14773TIP3    H265735   0.570   0.300  14.061 -2.7497  1.2323 -1.3436
14774TIP3   OH265736   2.160   4.348  11.500 -0.1171 -0.6988 -0.3655
14774TIP3    H165737   2.154   4.288  11.425 -0.5696 -0.0630 -0.8479
14774TIP3    H265738   2.070   4.360  11.529  0.2275 -2.8693  1.8788
14775TIP3   OH265739   5.309   1.024  14.862  0.0737 -0.4920 -0.0791
14775TIP3    H165740   5.348   0.941  14.836 -0.0812 -1.0178  1.2649
14775TIP3    H265741   5.216   1.006  14.869 -0.2777  0.4115 -1.9787
14776TIP3   OH265742   6.509   4.132   0.333  0.1487  0.1113  0.0382
14776TIP3    H165743   6.427   4.083   0.331 -0.1648  0.6198  0.1998
14776TIP3    H265744   6.524   4.149   0.426 -0.6561  1.8102 -0.1133
14777TIP3   OH265745   6.539   0.148   1.295 -0.0398  0.3035  0.0164
14777TIP3    H165746   6.582   0.119   1.214  1.4525  0.4132  0.7342
14777TIP3    H265747   6.608   0.145   1.361 -1.0664  0.8631  1.1523
14778TIP3   OH265748   6.290   0.167   0.815  0.2571 -0.4454 -0.7629
14778TIP3    H165749   6.279   0.187   0.908 -0.4559  2.0428 -1.2892
14778TIP3    H265750   6.231   0.094   0.798 -0.7080  0.0263  0.4638
14779TIP3   OH265751   0.398   1.529   2.695  0.4647 -0.1738  0.0202
14779TIP3    H165752   0.320   1.487   2.732  1.1840 -2.2772 -0.7063
14779TIP3    H265753   0.468   1.509   2.757  0.5930  1.1437  0.3321
14780TIP3   OH265754   2.563   1.333   5.920  0.2599  0.0621  0.2132
14780TIP3    H165755   2.647   1.288   5.929  0.4745  0.3488 -0.3161
14780TIP3    H265756   2.551   1.379   6.003  1.1897  0.9683 -0.1379
14781TIP3   OH265757   3.512   2.136  13.702 -0.5450 -0.7312  0.3601
14781TIP3    H165758   3.599   2.174  13.716 -0.5173 -0.4782 -0.4199
14781TIP3    H265759   3.528   2.065  13.639 -0.9067 -0.6449  0.1662
14782TIP3   OH265760   2.266   6.567  16.974  0.3332 -0.3325 -0.0433
14782TIP3    H165761   2.184   6.611  16.953  1.2541  1.0346 -0.9976
14782TIP3    H265762   2.253   6.533  17.063 -0.3495  2.2211  0.9446
14783TIP3   OH265763   6.207   5.551  14.297 -0.4586 -0.2785  0.4960
14783TIP3    H165764   6.299   5.537  14.273 -0.7008 -0.6009 -0.2687
14783TIP3    H265765   6.177   5.619  14.236 -1.1995 -1.3977 -0.4253
14784TIP3   OH265766   0.886   6.550  12.246 -0.9411  0.3722 -0.3915
14784TIP3    H165767   0.943   6.474  12.258  0.5481  1.0182 -2.6386
14784TIP3    H265768   0.936   6.624  12.280 -1.7887  0.5623  0.4899
14785TIP3   OH265769   6.524   6.286   1.276  0.2359 -0.2986  0.3823
14785TIP3    H165770   6.482   6.280   1.191  0.7151 -0.7123  0.1650
14785TIP3    H265771   6.452   6.292   1.339 -0.2309 -2.9051  0.1850
14786TIP3   OH265772   2.255   0.702  13.938  0.5713  0.0269 -0.0551
14786TIP3    H165773   2.287   0.664  14.020 -0.7269 -2.2027 -0.4829
14786TIP3    H265774   2.237   0.627  13.882  1.8483  1.4936 -2.6219
14787TIP3   OH265775   5.636   1.105  11.650  0.1847 -0.1905  0.0422
14787TIP3    H165776   5.579   1.085  11.725  0.6299 -0.8491  0.2093
14787TIP3    H265777   5.634   1.200  11.644  0.7422 -0.0806  1.3709
14788TIP3   OH265778   3.304   3.690  13.516  0.3280 -0.1615 -0.1155
14788TIP3    H165779   3.241   3.652  13.454 -0.7419 -0.3072  1.0257
14788TIP3    H265780   3.271   3.778  13.533 -0.5768 -0.8200  1.7893
14789TIP3   OH265781   2.653   5.836   1.839  0.0275  0.0128 -0.5281
14789TIP3    H165782   2.574   5.793   1.872  0.0914  1.2657  1.3557
14789TIP3    H265783   2.725   5.790   1.881  0.1164  1.4834  1.0208
14790TIP3   OH265784   6.685   3.461   5.573  0.3905 -0.0315 -0.1815
14790TIP3    H165785   6.666   3.543   5.527  0.9968  0.2907  0.1177
14790TIP3    H265786   6.607   3.443   5.625 -0.7563 -0.9902 -2.1520
14791TIP3   OH265787   3.837   4.755  10.935 -0.3156 -0.0192 -0.5534
14791TIP3    H165788   3.819   4.849  10.938 -2.4107 -0.3946  2.0871
14791TIP3    H265789   3.923   4.746  10.975 -0.2598  0.7544 -0.4823
14792TIP3   OH265790   4.354   6.746  15.964 -0.3708 -0.2599 -0.1217
14792TIP3    H165791   4.267   6.785  15.952  0.1440  1.2911  0.7556
14792TIP3    H265792   4.361   6.732  16.059  0.0079 -1.2007 -0.2822
14793TIP3   OH265793   6.046   1.366   4.934 -0.4671 -0.7798  0.0878
14793TIP3    H165794   6.077   1.277   4.950  0.4861 -0.0272  2.9366
14793TIP3    H265795   5.968   1.376   4.989 -1.3913 -0.2295 -1.2449
14794TIP3   OH265796   4.969   6.007   3.539 -0.0626  0.0089  0.0297
14794TIP3    H165797   4.957   5.920   3.577  0.4865 -0.2491 -0.3568
14794TIP3    H265798   4.880   6.038   3.522 -0.2661 -0.5112  0.1017
14795TIP3   OH265799   0.913   5.030   5.935 -0.4786 -0.0198 -0.5870
14795TIP3    H165800   0.988   5.089   5.944 -1.5142  1.1975  0.3690
14795TIP3    H265801   0.863   5.041   6.015 -1.2351 -1.4895 -0.8108
14796TIP3   OH265802   6.250   3.114   3.416 -0.0797  0.3292  0.3432
14796TIP3    H165803   6.248   3.174   3.342 -0.0652  0.9727  0.8525
14796TIP3    H265804   6.333   3.134   3.460 -0.3532  0.3610  0.8537
14797TIP3   OH265805   6.563   1.285   2.989 -0.4852 -0.3135  0.1249
14797TIP3    H165806   6.525   1.364   2.950 -1.8299 -1.0283 -0.0836
14797TIP3    H265807   6.657   1.301   2.991 -0.7016  1.0869 -0.3670
14798TIP3   OH265808   3.516   4.722  15.537 -0.4137 -0.0761 -0.3092
14798TIP3    H165809   3.577   4.765  15.477 -0.9225  3.9569  1.7160
14798TIP3    H265810   3.569   4.661  15.586  0.9639 -0.0848 -1.7232
14799TIP3   OH265811   3.436   1.494  14.886  0.0431 -0.0735 -0.1089
14799TIP3    H165812   3.449   1.399  14.877 -1.1152 -0.3201  0.5860
14799TIP3    H265813   3.384   1.518  14.809  0.9875  0.1628 -0.6979
14800TIP3   OH265814   6.198   4.437  11.338 -0.0999 -0.2618 -0.4888
14800TIP3    H165815   6.203   4.491  11.417 -1.1931 -1.6187  0.5604
14800TIP3    H265816   6.265   4.370  11.351 -2.0108 -2.0937  0.6442
14801TIP3   OH265817   6.164   2.043   2.924 -0.5011  0.2363  0.1466
14801TIP3    H165818   6.237   2.034   2.862 -1.3603  0.4066 -0.9103
14801TIP3    H265819   6.085   2.035   2.871 -1.2747  0.7565  1.1688
14802TIP3   OH265820   2.371   5.125   3.409  0.1593  0.4976 -0.4049
14802TIP3    H165821   2.279   5.101   3.414 -0.1561  1.4588 -1.1109
14802TIP3    H265822   2.408   5.097   3.492 -0.4039 -1.3193 -0.7379
14803TIP3   OH265823   3.719   6.029   1.597  0.1918 -0.2134 -0.4087
14803TIP3    H165824   3.811   6.050   1.581  0.9751 -2.2763  0.9758
14803TIP3    H265825   3.684   6.006   1.511 -0.1482  4.0415 -1.6412
14804TIP3   OH265826   5.804   1.819  11.249  0.2026 -0.1909 -0.6511
14804TIP3    H165827   5.779   1.761  11.178  0.7835 -0.9518 -0.2436
14804TIP3    H265828   5.894   1.843  11.231  0.0071  0.4934 -0.7475
14805TIP3   OH265829   0.777   4.428  12.217 -0.0150 -0.3130 -0.4754
14805TIP3    H165830   0.697   4.376  12.224  0.3480 -0.8419 -0.1382
14805TIP3    H265831   0.798   4.452  12.308 -1.5680  2.6152 -0.7913
14806TIP3   OH265832   3.730   4.294   1.361  0.8215 -0.3362  0.4926
14806TIP3    H165833   3.663   4.263   1.422  0.0798  1.4591  0.6575
14806TIP3    H265834   3.699   4.381   1.335  2.4947  0.0254 -0.3741
14807TIP3   OH265835   1.839   6.409  10.783  0.3781  0.0434 -0.0748
14807TIP3    H165836   1.850   6.443  10.872  2.5021  0.1938 -0.3339
14807TIP3    H265837   1.886   6.326  10.783 -0.0199 -0.1940 -0.9366
14808TIP3   OH265838   5.156   1.282   3.853  0.1488 -0.0974 -0.1683
14808TIP3    H165839   5.119   1.195   3.869 -0.8906  0.2352 -0.6774
14808TIP3    H265840   5.171   1.284   3.758  0.0583  0.3188 -0.1735
14809TIP3   OH265841   6.125   5.517   1.357 -0.2332 -0.0191  0.3546
14809TIP3    H165842   6.066   5.456   1.313  0.5438  0.7990 -1.9978
14809TIP3    H265843   6.212   5.480   1.344 -0.0493 -0.4435  2.4774
14810TIP3   OH265844   5.769   1.862   1.843 -0.7218 -0.2441  0.4795
14810TIP3    H165845   5.794   1.890   1.755 -2.2333  0.8036  0.3451
14810TIP3    H265846   5.787   1.768   1.845  0.4720 -0.0569 -0.5256
14811TIP3   OH265847   0.600   3.433   2.909  0.5174  0.2270  0.2976
14811TIP3    H165848   0.606   3.513   2.962 -1.8959 -0.5036  1.7801
14811TIP3    H265849   0.678   3.383   2.933  1.3734  1.5279  0.3453
14812TIP3   OH265850   0.875   1.904  13.428 -0.1461  0.5767 -0.2338
14812TIP3    H165851   0.922   1.826  13.458  0.1722  0.9147  0.1706
14812TIP3    H265852   0.824   1.932  13.504 -1.1934  0.0809 -0.7435
14813TIP3   OH265853   4.482   2.992   3.678 -0.1824  0.5555  0.1996
14813TIP3    H165854   4.472   3.047   3.600  1.1491  0.1514 -0.2792
14813TIP3    H265855   4.408   2.931   3.673  0.9501 -0.7809 -1.8831
14814TIP3   OH265856   5.586   0.150   4.881 -0.2780 -0.2798  0.2306
14814TIP3    H165857   5.679   0.134   4.897  0.0099 -1.5912 -2.2444
14814TIP3    H265858   5.584   0.226   4.824 -0.8086  0.1841  0.8450
14815TIP3   OH265859   1.369   6.625  16.143 -0.3428 -0.2763  0.0268
14815TIP3    H165860   1.379   6.537  16.178  0.3722 -0.5391 -0.8104
14815TIP3    H265861   1.451   6.643  16.098 -0.5018  0.8017  0.1330
14816TIP3   OH265862   0.992   3.969  14.776  0.2920  0.7506 -0.6047
14816TIP3    H165863   0.990   4.040  14.712  1.1360  0.4139 -1.0232
14816TIP3    H265864   1.082   3.969  14.808  0.8044 -1.2796 -1.9301
14817TIP3   OH265865   3.248   4.050  14.053  0.5483 -0.5616  0.1369
14817TIP3    H165866   3.241   3.998  14.133  1.2648 -0.4044  0.3099
14817TIP3    H265867   3.236   3.986  13.982  0.3999 -0.7865  0.3639
14818TIP3   OH265868   2.746   3.703  16.245 -0.3483 -0.5280 -0.7989
14818TIP3    H165869   2.688   3.650  16.190  1.6501 -2.3479 -1.2850
14818TIP3    H265870   2.828   3.654  16.248 -0.3582 -0.8211  4.1043
14819TIP3   OH265871   3.284   1.766  11.094 -0.9093  0.0767  0.1371
14819TIP3    H165872   3.309   1.686  11.047  0.2574  0.3088  0.3409
14819TIP3    H265873   3.260   1.827  11.025 -0.3954  0.0152 -0.1046
14820TIP3   OH265874   4.707   2.034  12.493 -0.1845 -0.3447  0.1576
14820TIP3    H165875   4.622   2.017  12.532 -0.4779  0.4107 -0.1498
14820TIP3    H265876   4.692   2.103  12.429  0.9401  0.9847  1.2657
14821TIP3   OH265877   1.812   4.428   0.298  1.0168 -0.1839  0.0664
14821TIP3    H165878   1.743   4.455   0.237 -2.4638 -0.1666  3.5590
14821TIP3    H265879   1.861   4.509   0.316 -0.8411  0.9012  0.5746
14822TIP3   OH265880   5.326   3.069   5.534 -0.2363  0.3381 -0.0832
14822TIP3    H165881   5.399   3.129   5.519  1.6888 -2.0033 -0.7567
14822TIP3    H265882   5.300   3.039   5.447 -2.4978  1.5582  0.0912
14823TIP3   OH265883   2.981   3.888   4.029 -0.0239 -0.3704 -0.0615
14823TIP3    H165884   2.974   3.886   4.124  0.1773  1.7387  0.0570
14823TIP3    H265885   2.891   3.893   3.998 -0.0408  0.5855  0.1189
14824TIP3   OH265886   5.124   0.297  13.312  0.3944  0.1722 -0.4941
14824TIP3    H165887   5.099   0.334  13.397  0.3225 -3.0284  1.0589
14824TIP3    H265888   5.099   0.363  13.248 -0.9640  2.1035  1.8634
14825TIP3   OH265889   2.678   4.457   4.639 -0.2285  0.6068 -0.4157
14825TIP3    H165890   2.616   4.395   4.600  1.0561 -0.5218 -0.7598
14825TIP3    H265891   2.708   4.511   4.566 -0.4103  0.7989 -0.3484
14826TIP3   OH265892   0.798   0.825   5.044  0.2637 -0.0058 -0.3441
14826TIP3    H165893   0.742   0.834   5.121 -2.8014 -1.3272 -2.2451
14826TIP3    H265894   0.803   0.914   5.007  2.4260  0.8073  1.6406
14827TIP3   OH265895   5.185   2.334   5.077  0.1132 -0.1070 -0.2374
14827TIP3    H165896   5.272   2.296   5.089 -0.0488 -0.2346  0.5814
14827TIP3    H265897   5.128   2.259   5.061  0.3144  0.0508 -1.9032
14828TIP3   OH265898   3.263   4.438  16.381 -0.6278  0.2340  0.2220
14828TIP3    H165899   3.266   4.491  16.302 -0.3557 -1.4933 -0.9755
14828TIP3    H265900   3.342   4.462  16.429 -0.4513  0.8258 -0.3590
14829TIP3   OH265901   2.939   0.413   3.075  0.2247  0.5855  0.8104
14829TIP3    H165902   3.030   0.443   3.083 -0.4741  3.0867  0.1839
14829TIP3    H265903   2.887   0.493   3.076 -1.8331 -0.5977 -1.1767
14830TIP3   OH265904   3.707   4.213  16.040 -0.0803  0.0981 -0.3185
14830TIP3    H165905   3.679   4.262  16.117  2.0170  0.0064  0.5765
14830TIP3    H265906   3.734   4.128  16.074  0.2265 -0.1991 -1.2679
14831TIP3   OH265907   4.506   0.482  13.785 -0.2220  0.5752  0.5929
14831TIP3    H165908   4.536   0.514  13.870  0.8488 -0.5185  0.6613
14831TIP3    H265909   4.448   0.409  13.807 -0.8973  1.0555  0.4054
14832TIP3   OH265910   4.173   4.464   3.937 -0.1494 -0.3078 -0.3811
14832TIP3    H165911   4.247   4.429   3.889  0.6456 -0.1239  0.6662
14832TIP3    H265912   4.164   4.407   4.014  0.8633  1.4010  1.0901
14833TIP3   OH265913   0.990   0.037  10.352  0.0996  0.6656  0.2159
14833TIP3    H165914   1.018  -0.054  10.344 -0.3388  0.5056  0.4927
14833TIP3    H265915   1.069   0.088  10.332  0.6172  0.2232  1.0921
14834TIP3   OH265916   5.259   0.678  11.726  0.5434 -0.0343  0.5421
14834TIP3    H165917   5.283   0.766  11.695  0.7067  0.0999  1.0403
14834TIP3    H265918   5.341   0.642  11.760  0.9501 -1.1909 -1.5283
14835TIP3   OH265919   1.435   0.578   4.280 -0.1344  0.4656  0.4511
14835TIP3    H165920   1.339   0.586   4.275 -0.2668 -1.5062 -2.2077
14835TIP3    H265921   1.463   0.575   4.189  2.4744  0.6314  1.1847
14836TIP3   OH265922   3.114   1.500   4.220 -0.0145  0.0043 -0.2243
14836TIP3    H165923   3.208   1.487   4.207  0.1023  1.4921 -1.1468
14836TIP3    H265924   3.076   1.412   4.215  1.3901 -0.6898  0.8263
14837TIP3   OH265925   4.595   0.770   1.001  0.5755 -0.2267  0.4498
14837TIP3    H165926   4.528   0.776   0.933  0.6106 -0.2188  0.4161
14837TIP3    H265927   4.675   0.803   0.960  1.3139 -2.8941 -0.4289
14838TIP3   OH265928   1.911   6.584  16.362  0.5920 -0.4179 -0.5644
14838TIP3    H165929   1.864   6.501  16.365  3.2028 -2.0112  2.6917
14838TIP3    H265930   1.988   6.566  16.307  0.9264 -0.0162 -0.2381
14839TIP3   OH265931   4.347   4.427   0.143  0.1923 -0.0643  0.3528
14839TIP3    H165932   4.333   4.463   0.230  0.7447  1.6701 -0.2298
14839TIP3    H265933   4.293   4.348   0.140 -1.0475  0.6896  1.7298
14840TIP3   OH265934   4.140   5.543   3.571 -0.0131 -0.0537 -0.1697
14840TIP3    H165935   4.118   5.473   3.509 -3.4272 -0.4943  1.3414
14840TIP3    H265936   4.181   5.498   3.645  0.4814 -0.0289 -0.4217
14841TIP3   OH265937   1.317   5.019  12.744  0.2577 -0.7145  0.0739
14841TIP3    H165938   1.409   4.996  12.757  1.0518  1.4611 -1.0176
14841TIP3    H265939   1.277   4.940  12.708  1.7047 -1.6968  0.5360
14842TIP3   OH265940   3.887   4.899  13.696 -0.0959  0.0880 -0.6074
14842TIP3    H165941   3.839   4.838  13.641 -1.6543  0.1895  0.5738
14842TIP3    H265942   3.826   4.921  13.766  1.5250  0.5934  0.7088
14843TIP3   OH265943   4.180   6.613   0.715 -0.1240 -0.0105  0.3207
14843TIP3    H165944   4.228   6.653   0.642  1.4288 -1.0634  0.7304
14843TIP3    H265945   4.221   6.648   0.794 -0.9439  0.1151  0.7080
14844TIP3   OH265946   4.684   1.370   1.128 -0.2438  0.4450 -0.1537
14844TIP3    H165947   4.780   1.364   1.122 -0.2993  0.6130 -1.4752
14844TIP3    H265948   4.667   1.459   1.160  0.0411  0.1658  0.8281
14845TIP3   OH265949   0.932   4.821   2.480  0.4030  0.1148 -0.0014
14845TIP3    H165950   1.011   4.824   2.426  0.6070  0.1643  0.2999
14845TIP3    H265951   0.861   4.836   2.418  0.8507  4.3697  0.2652
14846TIP3   OH265952   5.765   4.480   1.399 -0.4604  0.0922  0.2892
14846TIP3    H165953   5.837   4.443   1.348 -0.9609  0.7327 -0.9234
14846TIP3    H265954   5.806   4.513   1.479  0.6468  0.7844 -0.5447
14847TIP3   OH265955   2.403   5.706   3.667 -0.7488 -0.0820  0.0753
14847TIP3    H165956   2.332   5.666   3.618  1.6584 -3.7251 -0.8140
14847TIP3    H265957   2.360   5.750   3.740 -3.9495 -0.9052 -1.1511
14848TIP3   OH265958   6.781   5.520   5.214  0.4769  0.0150  0.3657
14848TIP3    H165959   6.699   5.554   5.248 -0.9113 -2.5792 -0.1163
14848TIP3    H265960   6.758   5.478   5.132  1.5675 -3.5410  1.6722
14849TIP3   OH265961   5.992   3.633  17.013 -0.6845  0.5984  0.2830
14849TIP3    H165962   6.087   3.647  17.009 -0.9192  2.2600 -0.9541
14849TIP3    H265963   5.981   3.549  17.057  1.3888  0.0072 -0.2190
14850TIP3   OH265964   1.279   4.757  15.261 -0.8783  0.1216 -0.1709
14850TIP3    H165965   1.316   4.682  15.214  0.8008 -0.6136  2.1169
14850TIP3    H265966   1.315   4.834  15.216  0.4591 -0.5540 -0.3099
14851TIP3   OH265967   5.592   5.248  12.694  0.3219 -0.5402 -0.0713
14851TIP3    H165968   5.622   5.315  12.632 -2.1303 -0.7092 -1.5897
14851TIP3    H265969   5.540   5.188  12.641  0.5442 -2.3895  1.6723
14852TIP3   OH265970   5.691   6.413   4.488  0.3198 -0.0086  0.4667
14852TIP3    H165971   5.696   6.321   4.461 -1.2748 -0.1084  0.3734
14852TIP3    H265972   5.770   6.453   4.454  0.2655 -1.0049 -0.9112
14853TIP3   OH265973   2.032   3.260   3.755 -0.0437  0.3418  0.7852
14853TIP3    H165974   2.052   3.248   3.848  1.3158  1.0530  0.6083
14853TIP3    H265975   2.097   3.323   3.725  0.4684 -0.9602 -0.9949
14854TIP3   OH265976   1.125   5.767   6.006  0.1336  0.7463 -0.0372
14854TIP3    H165977   1.057   5.750   5.941 -0.2878 -1.1010  0.8455
14854TIP3    H265978   1.101   5.714   6.082  3.1796 -1.0099 -0.1486
14855TIP3   OH265979   4.411   5.540  16.025 -0.0092 -0.1582  0.8012
14855TIP3    H165980   4.382   5.465  15.973 -1.4572  1.3247 -0.6764
14855TIP3    H265981   4.349   5.544  16.098 -0.8390  0.3635  0.1032
14856TIP3   OH265982   3.810   1.875  16.676  0.0438 -0.0035 -0.4570
14856TIP3    H165983   3.836   1.821  16.750 -1.4995  0.8797  0.8024
14856TIP3    H265984   3.823   1.965  16.705 -2.5698  0.4387 -0.3555
14857TIP3   OH265985   3.250   3.887   4.108  0.1401 -0.4818  0.4612
14857TIP3    H165986   3.325   3.944   4.127  0.8691 -1.5948  1.0663
14857TIP3    H265987   3.198   3.936   4.045  0.8795  0.7322  0.7579
14858TIP3   OH265988   1.870   3.147   0.549  0.2926 -0.0506 -0.3042
14858TIP3    H165989   1.929   3.072   0.543  0.8999  0.3866  0.1284
14858TIP3    H265990   1.927   3.224   0.542 -0.3403  0.3778 -0.9171
14859TIP3   OH265991   5.907   4.511  14.418  0.1412  0.1109  0.0129
14859TIP3    H165992   5.892   4.443  14.353 -0.6210 -0.0811  0.3722
14859TIP3    H265993   5.875   4.591  14.377 -1.2702 -0.1734  0.4951
14860TIP3   OH265994   5.752   3.020  12.743 -0.3945 -0.2901 -0.1011
14860TIP3    H165995   5.748   3.031  12.648  2.2164  2.0740 -0.0607
14860TIP3    H265996   5.739   3.108  12.779 -0.6743 -1.0107  1.6966
14861TIP3   OH265997   0.281   6.283   4.760  0.1661 -0.0467 -0.0062
14861TIP3    H165998   0.359   6.238   4.730 -0.1529 -0.8348  0.3334
14861TIP3    H265999   0.250   6.232   4.834  0.0653  0.9991  0.6999
14862TIP3   OH266000   5.285   1.341   4.076  0.6749 -0.4752 -0.3913
14862TIP3    H166001   5.322   1.429   4.081  0.0724 -0.2900  2.5052
14862TIP3    H266002   5.242   1.337   3.991  0.4954  2.1457 -0.4823
14863TIP3   OH266003   6.095   4.520   5.230  0.0133  0.7604 -0.2877
14863TIP3    H166004   6.040   4.585   5.274 -1.0898 -0.0377 -0.4801
14863TIP3    H266005   6.080   4.439   5.277  0.3943  0.3509 -0.8578
14864TIP3   OH266006   5.088   5.780   2.182 -0.1488  0.2258 -0.2308
14864TIP3    H166007   5.144   5.721   2.132 -2.8306 -0.0068 -3.2711
14864TIP3    H266008   5.041   5.722   2.242  0.4341 -0.0406 -0.0214
14865TIP3   OH266009   3.809   5.095  12.376 -0.0385 -0.0651 -0.1183
14865TIP3    H166010   3.859   5.154  12.320 -1.0447 -0.2174 -1.2439
14865TIP3    H266011   3.724   5.087  12.331 -0.9070 -0.1622  1.4724
14866TIP3   OH266012   1.621   4.204  14.427 -0.2394 -0.6374 -0.5238
14866TIP3    H166013   1.620   4.265  14.353  0.3105  3.4238  2.5249
14866TIP3    H266014   1.529   4.198  14.454 -0.3426 -1.5936 -1.0061
14867TIP3   OH266015   4.857   2.995  14.953 -0.1101 -0.1153  0.4500
14867TIP3    H166016   4.893   3.034  14.874 -1.5588 -1.6066 -1.0153
14867TIP3    H266017   4.852   3.068  15.015  1.1108  1.0751 -0.7770
14868TIP3   OH266018   1.528   6.328  11.788 -0.1628  0.0795 -0.1565
14868TIP3    H166019   1.481   6.396  11.836  1.7775  0.2408  1.6669
14868TIP3    H266020   1.566   6.374  11.713 -0.8000  0.4820 -0.2382
14869TIP3   OH266021   6.382   2.463  11.913 -0.4600  0.4532  0.0164
14869TIP3    H166022   6.434   2.544  11.910  0.4279 -0.0706  0.7949
14869TIP3    H266023   6.389   2.427  11.825  0.1951  0.5872  0.0063
14870TIP3   OH266024   5.320   1.126  15.347 -0.4771  0.9312 -0.1072
14870TIP3    H166025   5.385   1.189  15.378 -0.9015  0.7807  1.1660
14870TIP3    H266026   5.256   1.179  15.299 -0.6305  1.4278  0.6269
14871TIP3   OH266027   2.845   2.947   5.923 -0.7333  0.5047 -0.2361
14871TIP3    H166028   2.881   2.911   6.005  0.2756  2.5306  0.2928
14871TIP3    H266029   2.757   2.910   5.918 -0.0684 -1.3674  0.6136
14872TIP3   OH266030   1.974   0.267  11.570  0.0484  0.0797  0.4253
14872TIP3    H166031   2.038   0.338  11.576  0.3379 -0.2241  0.9745
14872TIP3    H266032   1.899   0.297  11.620 -1.7215  1.9435 -2.9674
14873TIP3   OH266033   5.988   0.094   0.065 -0.2762 -0.9816 -0.6367
14873TIP3    H166034   5.913   0.095   0.005  0.1433 -0.9909 -1.1687
14873TIP3    H266035   6.053   0.040   0.021  0.5335  0.0873 -0.8032
14874TIP3   OH266036   1.911   0.517   5.763  0.5486  0.1463  0.2616
14874TIP3    H166037   1.944   0.606   5.771 -0.6587  0.6572 -0.1143
14874TIP3    H266038   1.988   0.461   5.770  1.5856  1.2942 -1.3800
14875TIP3   OH266039   5.382   4.890   0.755  0.3935 -0.3137 -0.1302
14875TIP3    H166040   5.291   4.908   0.780 -0.2677  0.9004 -2.9730
14875TIP3    H266041   5.414   4.830   0.822 -2.6626 -1.1937  0.7068
14876TIP3   OH266042   0.618   3.080  16.858  0.0344 -0.5039 -0.5537
14876TIP3    H166043   0.649   3.081  16.948 -0.4353 -0.5872 -0.3894
14876TIP3    H266044   0.534   3.126  16.860  0.8924  1.2079 -1.2819
14877TIP3   OH266045   6.382   1.679   3.925 -0.1686 -0.0214 -0.1618
14877TIP3    H166046   6.400   1.771   3.942 -0.1110 -0.1674  0.6237
14877TIP3    H266047   6.409   1.665   3.834  0.0925  0.6628 -0.1923
14878TIP3   OH266048   1.502   0.378   2.600  0.4317  0.8877  0.1201
14878TIP3    H166049   1.543   0.419   2.523 -1.0468  3.8188  0.7274
14878TIP3    H266050   1.565   0.392   2.670  0.9267 -0.0308 -0.1215
14879TIP3   OH266051   1.320   5.187   4.783 -0.0372 -0.0770  0.0525
14879TIP3    H166052   1.317   5.258   4.719 -0.3230  1.3512  1.5718
14879TIP3    H266053   1.280   5.113   4.739  0.4716  0.6286 -1.6687
14880TIP3   OH266054   3.319   4.339   6.322 -0.7683 -0.5561 -0.2426
14880TIP3    H166055   3.409   4.355   6.292 -1.5664 -0.0184 -2.5631
14880TIP3    H266056   3.322   4.253   6.364  0.7782 -0.6294 -0.4596
14881TIP3   OH266057   4.640   5.479  10.525 -0.4872  0.4741 -0.0090
14881TIP3    H166058   4.566   5.459  10.467  0.8776  0.2216 -1.7618
14881TIP3    H266059   4.656   5.572  10.511  1.5053 -0.0941 -2.2154
14882TIP3   OH266060   1.108   3.657   5.353 -0.1207 -0.3420  0.1357
14882TIP3    H166061   1.054   3.590   5.395 -1.6278 -0.1381 -1.3916
14882TIP3    H266062   1.045   3.719   5.316  1.2158  1.3069  0.4962
14883TIP3   OH266063   4.310   5.249  16.952  0.0254 -0.0763  0.3251
14883TIP3    H166064   4.252   5.325  16.957 -0.5088 -0.4215 -0.3624
14883TIP3    H266065   4.251   5.175  16.939  0.5853 -0.5167  0.2542
14884TIP3   OH266066   4.461   1.301   1.802  1.1774 -0.0426 -0.1659
14884TIP3    H166067   4.465   1.393   1.777 -0.8870  0.6486  1.6778
14884TIP3    H266068   4.550   1.279   1.830  1.1561  2.3582  2.2571
14885TIP3   OH266069   4.782   0.168  12.424  0.6493  0.0093  0.5039
14885TIP3    H166070   4.835   0.231  12.376 -0.9862  0.0655 -1.3199
14885TIP3    H266071   4.703   0.216  12.449  0.1207 -0.8588  0.5653
14886TIP3   OH266072   0.521   5.847   1.386  0.3467 -0.0051  0.1396
14886TIP3    H166073   0.546   5.931   1.424 -0.9603  0.5874 -0.2451
14886TIP3    H266074   0.464   5.871   1.312 -1.3678 -1.2490  1.0117
14887TIP3   OH266075   3.430   4.052  14.761 -0.1823 -0.7330 -0.5051
14887TIP3    H166076   3.486   3.981  14.728  2.3260 -0.4241  2.5915
14887TIP3    H266077   3.470   4.132  14.726  0.3027 -0.5992  0.3343
14888TIP3   OH266078   1.194   1.311   4.851  0.1130  0.4485  0.3361
14888TIP3    H166079   1.280   1.306   4.809  0.4688 -1.1392  1.1731
14888TIP3    H266080   1.193   1.396   4.894  1.8853 -0.0692  1.5252
14889TIP3   OH266081   4.602   4.376  12.211 -0.1140  0.2289  0.0402
14889TIP3    H166082   4.684   4.356  12.165 -0.8077 -0.1037 -1.0838
14889TIP3    H266083   4.572   4.458  12.170 -0.5885  0.0894  0.1102
14890TIP3   OH266084   3.419   5.650   6.067 -0.3646  0.4080 -0.0214
14890TIP3    H166085   3.378   5.564   6.069  0.2194  0.1159 -0.3060
14890TIP3    H266086   3.351   5.710   6.099 -1.2500  0.0486 -1.1783
14891TIP3   OH266087   5.101   6.260   5.197  0.1011 -0.3719  0.2139
14891TIP3    H166088   5.099   6.214   5.114  0.5470 -1.5707  0.8434
14891TIP3    H266089   5.074   6.349   5.176 -0.5097 -0.8446 -1.0769
14892TIP3   OH266090   6.138   0.698   2.564  0.3287 -0.3924  0.1481
14892TIP3    H166091   6.083   0.696   2.643 -2.1023 -1.7187 -1.4780
14892TIP3    H266092   6.108   0.775   2.516  1.5501  0.1953  0.2785
14893TIP3   OH266093   2.936   1.949  10.632  0.0374  0.1767 -0.2907
14893TIP3    H166094   3.001   2.018  10.647 -0.7551  0.6587  1.1202
14893TIP3    H266095   2.932   1.900  10.715 -1.0184 -0.1514 -0.5108
14894TIP3   OH266096   5.652   5.577  12.230  0.1567 -0.2977 -0.1083
14894TIP3    H166097   5.741   5.578  12.195  0.1234  2.2860 -0.3609
14894TIP3    H266098   5.596   5.558  12.155  0.4183 -0.3405 -0.2932
14895TIP3   OH266099   3.523   2.963   1.632 -0.5772  0.3406  0.2299
14895TIP3    H166100   3.574   3.029   1.586  0.5816 -0.4527  0.3151
14895TIP3    H266101   3.469   2.922   1.564  0.6623 -0.3983 -0.3506
14896TIP3   OH266102   0.029   3.169   4.206  0.1284  0.2808 -0.1418
14896TIP3    H166103   0.010   3.234   4.274  2.4343  0.5412  0.3440
14896TIP3    H266104  -0.035   3.187   4.137 -1.2625  1.0248  1.2705
14897TIP3   OH266105   1.896   2.435  12.389 -0.1499 -0.0687 -0.0377
14897TIP3    H166106   1.808   2.400  12.403 -0.5757  1.5538  1.7442
14897TIP3    H266107   1.953   2.359  12.398 -1.2620 -0.9049  0.2355
14898TIP3   OH266108   6.014   6.702   2.936 -0.1139 -0.2094 -0.2985
14898TIP3    H166109   5.995   6.732   3.025 -0.0862 -1.6297  0.2134
14898TIP3    H266110   6.048   6.613   2.948  2.7816  0.6305 -1.5020
14899TIP3   OH266111   6.402   1.319   0.049  0.5555 -0.6011 -0.4855
14899TIP3    H166112   6.365   1.251  -0.008  1.0302 -1.3870  0.1276
14899TIP3    H266113   6.348   1.315   0.128  1.9004 -1.7477  0.4154
14900TIP3   OH266114   3.707   1.152  16.699  0.3572  0.3372 -0.2090
14900TIP3    H166115   3.664   1.177  16.617 -0.3572  0.3905  0.1785
14900TIP3    H266116   3.742   1.235  16.733 -0.5967  0.5681  0.2527
14901TIP3   OH266117   6.038   2.026  16.542 -0.2372  0.5401  0.1720
14901TIP3    H166118   6.043   2.117  16.515 -0.3718  0.9677  1.5126
14901TIP3    H266119   6.127   2.003  16.569  0.6828 -0.8670 -3.4438
14902TIP3   OH266120   5.918   2.061  12.454  0.1665 -0.2540 -0.8486
14902TIP3    H166121   5.990   2.035  12.397 -0.0618 -1.3364 -0.6629
14902TIP3    H266122   5.839   2.028  12.410 -0.1280  0.0579 -0.5632
14903TIP3   OH266123   0.247   1.717  15.991 -0.1059 -0.2145  0.0684
14903TIP3    H166124   0.178   1.774  15.958  1.4072  1.0753 -1.0167
14903TIP3    H266125   0.303   1.774  16.042  3.8703  0.6210 -4.4748
14904TIP3   OH266126   5.837   3.869  10.847  0.2326 -0.3075 -0.2317
14904TIP3    H166127   5.763   3.870  10.787 -1.1385 -0.8827  1.3863
14904TIP3    H266128   5.910   3.838  10.793 -1.0873 -1.4556 -1.4559
14905TIP3   OH266129   1.521   5.596  13.892 -0.2043  0.7408  0.0161
14905TIP3    H166130   1.475   5.522  13.931  0.4829  0.7034  0.7688
14905TIP3    H266131   1.518   5.579  13.798 -3.8118  1.9226 -0.2489
14906TIP3   OH266132   3.105   0.161  15.995  0.5543  0.5621  0.1409
14906TIP3    H166133   3.030   0.127  15.945 -0.2344  2.3880  0.0159
14906TIP3    H266134   3.135   0.236  15.944  2.7499 -0.3410 -0.0006
14907TIP3   OH266135   0.973   6.053   4.121  0.1872 -0.2506 -0.1591
14907TIP3    H166136   0.977   6.149   4.119  0.6415 -0.2641 -0.0219
14907TIP3    H266137   0.935   6.033   4.206 -2.0453 -0.1475 -1.0467
14908TIP3   OH266138   5.768   1.543   5.579 -0.2772  0.5600  0.0344
14908TIP3    H166139   5.849   1.536   5.629  0.1644  2.4030 -0.3400
14908TIP3    H266140   5.776   1.476   5.511 -0.1407 -0.8378  1.3588
14909TIP3   OH266141   3.220   0.192   3.552 -0.5450  0.2179  0.0418
14909TIP3    H166142   3.235   0.124   3.618 -0.6186  0.9558  0.8378
14909TIP3    H266143   3.292   0.254   3.565  0.0931 -0.1867 -1.3421
14910TIP3   OH266144   3.563   0.848  15.230  0.6641 -0.2805 -0.2106
14910TIP3    H166145   3.591   0.912  15.297 -1.1371  0.0920  0.2417
14910TIP3    H266146   3.562   0.898  15.149  0.7291 -0.1402 -0.1266
14911TIP3   OH266147   5.926   3.097  16.838 -0.2738 -0.1495 -0.4406
14911TIP3    H166148   5.987   3.143  16.896  0.5558 -0.7946 -0.7841
14911TIP3    H266149   5.857   3.161  16.822  0.7528  0.9389 -0.7569
14912TIP3   OH266150   5.169   3.132  11.308  0.5911 -0.7410  1.0691
14912TIP3    H166151   5.082   3.122  11.345 -0.2660 -0.3349 -0.7148
14912TIP3    H266152   5.222   3.166  11.379 -1.2468  1.1988  1.6026
14913TIP3   OH266153   0.890   5.340  14.034  0.2315 -0.6382  0.0629
14913TIP3    H166154   0.837   5.263  14.013  1.0138 -1.3520  0.6406
14913TIP3    H266155   0.861   5.366  14.121  0.9963 -1.1975  0.4979
14914TIP3   OH266156   6.232   5.990   2.430  0.3478 -0.0409 -0.2808
14914TIP3    H166157   6.287   6.056   2.472  1.5212 -1.9668  1.4295
14914TIP3    H266158   6.148   5.996   2.475 -0.0436  1.2284 -1.1505
14915TIP3   OH266159   6.323   0.511   4.277  0.2330 -0.8784 -0.6867
14915TIP3    H166160   6.363   0.432   4.314  0.5576 -0.4045 -0.0049
14915TIP3    H266161   6.235   0.513   4.313 -0.1271 -1.4540 -1.4978
14916TIP3   OH266162   2.603   1.230   5.196 -0.2580 -0.0440 -0.3985
14916TIP3    H166163   2.569   1.141   5.182  0.4485 -0.5152  0.7290
14916TIP3    H266164   2.685   1.231   5.146 -0.0389 -0.1878 -0.0473
14917TIP3   OH266165   5.586   5.424   2.629  0.1871  0.3282 -0.0778
14917TIP3    H166166   5.674   5.431   2.668 -0.3385 -1.2177  1.5392
14917TIP3    H266167   5.566   5.512   2.600  1.4348  1.1871  1.4788
14918TIP3   OH266168   1.322   3.475   1.564  0.4840  0.2223  0.0372
14918TIP3    H166169   1.406   3.520   1.575  1.1382 -1.0919  0.5880
14918TIP3    H266170   1.340   3.384   1.588 -0.5837 -0.5674 -1.9455
14919TIP3   OH266171   6.361   4.162  15.630 -0.0650  0.0067 -0.0740
14919TIP3    H166172   6.451   4.143  15.658 -0.4444  0.9406  1.9436
14919TIP3    H266173   6.311   4.086  15.658  0.0922 -0.6487 -1.4628
14920TIP3   OH266174   4.323   4.141  13.646  0.0663 -0.1248 -0.1949
14920TIP3    H166175   4.287   4.209  13.703 -2.7063 -1.1115 -0.6127
14920TIP3    H266176   4.307   4.059  13.694  0.8372 -0.7122 -0.9126
14921TIP3   OH266177   2.752   1.791   5.662 -0.0490  0.2038 -0.0508
14921TIP3    H166178   2.719   1.715   5.709 -0.8015 -0.0122 -0.8954
14921TIP3    H266179   2.812   1.833   5.723 -2.4141  1.0433  1.8823
14922TIP3   OH266180   3.684   2.736   1.747  0.3204 -0.0093 -0.3737
14922TIP3    H166181   3.642   2.817   1.719  1.2546  1.5859  2.3935
14922TIP3    H266182   3.654   2.724   1.838  1.9276 -1.5257  0.0041
14923TIP3   OH266183   1.433   1.259  11.151 -0.3937  0.1024  0.1704
14923TIP3    H166184   1.447   1.231  11.061 -0.0376  0.4470  0.1133
14923TIP3    H266185   1.458   1.183  11.204 -0.6734 -0.1243 -0.0235
14924TIP3   OH266186   5.113   1.663  15.117 -0.2167  0.5947 -1.1051
14924TIP3    H166187   5.107   1.619  15.202  2.3362 -2.7433 -2.4399
14924TIP3    H266188   5.030   1.643  15.073  0.1822 -1.5767 -0.9872
14925TIP3   OH266189   4.448   4.675   3.334 -0.1373  0.0229  0.0934
14925TIP3    H166190   4.474   4.620   3.408 -0.9298  0.7593  0.9487
14925TIP3    H266191   4.433   4.614   3.262  0.9728 -0.6764  0.4394
14926TIP3   OH266192   1.393   4.151   4.184  0.1529  0.2521 -0.0554
14926TIP3    H166193   1.423   4.239   4.203 -1.7364  1.4117 -1.9147
14926TIP3    H266194   1.322   4.136   4.247  0.0315  0.3299 -0.1737
14927TIP3   OH266195   5.537   2.458  16.379  0.0494 -0.0428  0.4857
14927TIP3    H166196   5.624   2.426  16.405  0.4922  1.6691  1.2649
14927TIP3    H266197   5.484   2.379  16.372  1.3562 -1.0393  1.2134
14928TIP3   OH266198   2.105   3.129  13.990  0.2367  0.9434 -0.2678
14928TIP3    H166199   2.031   3.143  14.050  1.5808 -0.2251  1.7788
14928TIP3    H266200   2.178   3.105  14.047  1.6695 -0.0262 -2.3771
14929TIP3   OH266201   5.089   2.394  14.652 -0.6421  0.0737 -0.2385
14929TIP3    H166202   5.024   2.339  14.608 -0.8123 -1.0964  1.4058
14929TIP3    H266203   5.173   2.353  14.630 -0.5415  0.7874 -1.2442
14930TIP3   OH266204   6.598   0.384  16.876 -0.6481 -0.1670 -0.6402
14930TIP3    H166205   6.527   0.435  16.914  1.5751  0.4579  3.1424
14930TIP3    H266206   6.604   0.306  16.931  1.3078 -0.4039 -1.1022
14931TIP3   OH266207   1.252   0.612   3.385 -0.5597  0.4128  0.2746
14931TIP3    H166208   1.343   0.601   3.357  0.0113 -1.3122  2.5212
14931TIP3    H266209   1.210   0.656   3.312  2.0930  1.3633 -0.8078
14932TIP3   OH266210   3.599   3.180   2.148  0.1245 -0.4585 -0.0647
14932TIP3    H166211   3.562   3.263   2.118 -0.7402 -0.9433 -0.4000
14932TIP3    H266212   3.614   3.193   2.241  1.6541  0.6461 -0.4127
14933TIP3   OH266213   3.622   3.513   2.941  0.2002  0.5392 -0.0209
14933TIP3    H166214   3.586   3.586   2.990 -3.0143 -0.3730 -0.7528
14933TIP3    H266215   3.632   3.443   3.005 -1.9474  0.0119 -0.1903
14934TIP3   OH266216   0.145   2.396  13.204  0.1319 -0.3785 -0.3296
14934TIP3    H166217   0.158   2.343  13.125  0.7774  0.1542 -0.5851
14934TIP3    H266218   0.207   2.468  13.195  0.4057 -0.4537  0.7943
14935TIP3   OH266219   2.829   0.576  12.078  0.1373 -0.8627  0.5726
14935TIP3    H166220   2.863   0.651  12.029 -1.1700  0.4539  1.6054
14935TIP3    H266221   2.886   0.569  12.154 -0.0688 -0.5619  0.7562
14936TIP3   OH266222   0.569   5.878  15.718 -0.4879  0.3931  0.2485
14936TIP3    H166223   0.613   5.952  15.759 -0.1415  0.2391  0.1580
14936TIP3    H266224   0.530   5.914  15.638 -0.6992  0.5732  0.4325
14937TIP3   OH266225   6.719   0.050   3.775 -0.3253 -0.2030  0.2844
14937TIP3    H166226   6.800   0.042   3.825  0.0526 -0.2647 -0.3331
14937TIP3    H266227   6.747   0.068   3.685 -0.9403 -1.6635 -0.2360
14938TIP3   OH266228   5.054   6.238  15.611  0.1292 -0.1101 -0.0477
14938TIP3    H166229   5.125   6.202  15.559 -0.2018  0.7719 -1.1336
14938TIP3    H266230   4.983   6.253  15.549 -0.4588  0.4948  0.7438
14939TIP3   OH266231   5.014   4.123   1.051 -0.3082  0.2047 -0.5169
14939TIP3    H166232   5.038   4.202   1.003  0.8133  0.5982  0.6073
14939TIP3    H266233   5.095   4.072   1.055 -0.1848  0.4798  1.4272
14940TIP3   OH266234   0.030   3.962  15.147  0.5246 -0.3154  0.0263
14940TIP3    H166235  -0.005   4.018  15.217  0.1218  2.5656 -2.2451
14940TIP3    H266236   0.032   3.874  15.185 -1.4097  0.7497  3.0020
14941TIP3   OH266237   5.792   5.064  13.514 -0.4113  1.1225  0.3387
14941TIP3    H166238   5.856   5.135  13.522 -0.5372  1.2856 -0.0631
14941TIP3    H266239   5.843   4.984  13.528 -0.4675  1.3332  1.8470
14942TIP3   OH266240   3.425   4.789  13.990  0.5539 -0.3546  0.1454
14942TIP3    H166241   3.494   4.845  14.026 -0.5225  0.0680  1.6767
14942TIP3    H266242   3.461   4.755  13.908  1.7129  1.6055 -0.2217
14943TIP3   OH266243   0.208   2.051   1.359  0.0343 -0.6279 -0.6085
14943TIP3    H166244   0.122   2.021   1.387 -0.9438  0.3982 -2.3606
14943TIP3    H266245   0.225   2.129   1.412  0.6735 -1.7528  0.9140
14944TIP3   OH266246   0.873   0.396  15.581 -0.1679 -0.5050  0.0611
14944TIP3    H166247   0.839   0.353  15.660  0.5503 -0.9913  0.1136
14944TIP3    H266248   0.943   0.338  15.551 -0.6435 -0.4900 -1.1150
14945TIP3   OH266249   0.209   1.130  11.107 -0.4483  0.7328  0.1858
14945TIP3    H166250   0.258   1.207  11.137  0.6486  0.2183 -0.2545
14945TIP3    H266251   0.246   1.057  11.156  0.9796 -0.0422 -1.9101
14946TIP3   OH266252   0.775   3.147  13.441  0.8880  0.1329  0.1614
14946TIP3    H166253   0.843   3.134  13.376  1.7387 -0.3761  1.1175
14946TIP3    H266254   0.820   3.185  13.516 -0.2003  1.4317  0.2056
14947TIP3   OH266255   4.450   0.281  14.550 -0.6141  0.6522  0.5472
14947TIP3    H166256   4.413   0.354  14.501 -0.3705  0.9838  0.8577
14947TIP3    H266257   4.416   0.203  14.506  0.2603  0.9356 -0.6642
14948TIP3   OH266258   2.866   5.872   3.259  0.0749  0.0003  0.5949
14948TIP3    H166259   2.959   5.880   3.279  0.4290  2.3575 -1.5182
14948TIP3    H266260   2.861   5.877   3.164 -2.3143  1.7381  0.7126
14949TIP3   OH266261   5.007   1.892   0.199 -0.2639  0.5645 -0.7762
14949TIP3    H166262   5.027   1.965   0.258  2.0458 -0.3744 -0.2725
14949TIP3    H266263   5.082   1.833   0.207 -1.0852 -0.8813 -2.7219
14950TIP3   OH266264   1.278   0.690   5.861 -0.0592 -0.0288 -0.2580
14950TIP3    H166265   1.315   0.742   5.932  0.3654 -0.2251 -0.3347
14950TIP3    H266266   1.305   0.735   5.781  0.3235 -0.3734 -0.3256
14951TIP3   OH266267   5.437   4.242   0.902 -0.0471  0.2676  0.0013
14951TIP3    H166268   5.376   4.304   0.943 -0.4380 -1.5325  2.3018
14951TIP3    H266269   5.521   4.258   0.945  0.7040  1.3799 -1.7604
14952TIP3   OH266270   4.798   3.603   6.088  0.3801 -0.6806  0.1648
14952TIP3    H166271   4.725   3.545   6.112  0.0696 -0.8752 -1.1265
14952TIP3    H266272   4.875   3.562   6.127 -0.1279 -0.7501  1.1229
14953TIP3   OH266273   3.552   4.942   2.903  0.2010 -0.4524  0.5834
14953TIP3    H166274   3.576   5.026   2.942 -1.0066 -1.0442  2.7186
14953TIP3    H266275   3.480   4.962   2.844 -2.6047 -0.3218  3.7626
14954TIP3   OH266276   0.348   1.959  12.071  0.3747 -0.3631 -0.0718
14954TIP3    H166277   0.389   1.875  12.092  1.3324 -0.6308 -2.6440
14954TIP3    H266278   0.335   1.956  11.976  0.3154  2.3537 -0.2279
14955TIP3   OH266279   4.383   0.139   0.350 -0.8732 -0.3756 -0.6985
14955TIP3    H166280   4.394   0.222   0.304  0.8683  0.6193  1.3331
14955TIP3    H266281   4.437   0.077   0.300  3.4011  1.3289  1.3196
14956TIP3   OH266282   1.589   4.326  15.958  0.5083  0.1462  0.0227
14956TIP3    H166283   1.612   4.254  15.899 -3.0524 -1.4844  0.3468
14956TIP3    H266284   1.592   4.287  16.046  0.3325  0.9125  0.3781
14957TIP3   OH266285   5.697   0.329  16.867 -0.5362  0.3219  0.7247
14957TIP3    H166286   5.646   0.339  16.787  1.1359 -0.2513 -0.4783
14957TIP3    H266287   5.719   0.236  16.870 -1.5438  0.1125  2.5000
14958TIP3   OH266288   5.761   5.640   5.305 -0.0354 -0.6032 -0.0964
14958TIP3    H166289   5.794   5.572   5.246 -0.5301 -1.3229  0.4459
14958TIP3    H266290   5.675   5.662   5.270 -0.6149 -1.4987  0.6988
14959TIP3   OH266291   5.797   6.476   5.443 -0.0597  0.2864 -0.4721
14959TIP3    H166292   5.889   6.450   5.447  0.4012  1.8692 -0.0505
14959TIP3    H266293   5.764   6.435   5.364  1.4167  0.8842 -1.4430
14960TIP3   OH266294   1.383   2.974  15.642 -0.3954 -0.0913  0.7372
14960TIP3    H166295   1.442   3.045  15.612  0.2896 -0.8163  0.3155
14960TIP3    H266296   1.367   2.923  15.563 -1.7521  0.1883  0.8180
14961TIP3   OH266297   0.465   6.058  14.359 -0.2404  0.3927  0.3761
14961TIP3    H166298   0.414   6.074  14.279  0.3134  1.2230  0.1691
14961TIP3    H266299   0.535   6.124  14.355  0.1168  0.0714  1.2683
14962TIP3   OH266300   2.944   1.905   5.859 -0.3074  0.4599  0.6124
14962TIP3    H166301   2.963   1.875   5.947  0.2815  0.2944  0.4296
14962TIP3    H266302   2.995   1.985   5.849 -0.4693  0.5455  0.4665
14963TIP3   OH266303   6.011   3.904  13.996  0.1422 -0.0784  0.8046
14963TIP3    H166304   5.945   3.835  13.995  0.4333 -0.3588 -0.6441
14963TIP3    H266305   5.966   3.979  14.036 -0.2548 -0.9931  2.1529
14964TIP3   OH266306   1.743   0.155  13.911 -0.3008  0.0760 -0.5629
14964TIP3    H166307   1.716   0.067  13.885 -0.1391  0.1192 -0.8781
14964TIP3    H266308   1.767   0.198  13.829  0.5872  0.0893 -0.3045
14965TIP3   OH266309   0.921   0.881   0.417 -0.1195  0.0646 -0.1956
14965TIP3    H166310   0.921   0.923   0.503  2.1608 -0.1323 -0.0466
14965TIP3    H266311   0.872   0.800   0.430 -0.0316  0.1601  0.8474
14966TIP3   OH266312   3.631   4.512   2.448  0.0354  0.0059 -0.3830
14966TIP3    H166313   3.683   4.479   2.375 -1.0793 -0.8339 -0.8399
14966TIP3    H266314   3.688   4.503   2.524  1.0540  0.4569 -1.0651
14967TIP3   OH266315   4.306   1.162  13.693  0.1736  0.0340  0.4438
14967TIP3    H166316   4.237   1.208  13.740  2.3324  2.4239  1.5189
14967TIP3    H266317   4.356   1.231  13.650  0.9605 -1.7380 -1.7236
14968TIP3   OH266318   2.772   3.635   0.358 -0.5060  0.0427  0.1779
14968TIP3    H166319   2.790   3.548   0.321 -1.3452  0.0549 -0.2713
14968TIP3    H266320   2.795   3.696   0.288  0.9959  0.2650  0.8126
14969TIP3   OH266321   6.563   6.541  15.556 -0.3396  0.5854  0.4631
14969TIP3    H166322   6.656   6.566  15.551  0.1398 -0.8595  1.3905
14969TIP3    H266323   6.544   6.542  15.650 -1.2178  0.6716  0.2871
14970TIP3   OH266324   4.405   0.625  15.565 -0.0120 -0.3047 -0.1843
14970TIP3    H166325   4.374   0.699  15.617  0.4383 -0.8508  0.8981
14970TIP3    H266326   4.333   0.562  15.566  1.1091 -1.7121  2.6031
14971TIP3   OH266327   4.430   3.990  16.158  0.9749  0.3184 -1.1467
14971TIP3    H166328   4.458   4.049  16.088 -0.6349  1.8554 -0.5818
14971TIP3    H266329   4.401   3.911  16.112  1.4882  0.6526 -2.0791
14972TIP3   OH266330   1.086   3.072  10.794  0.2037  0.4254 -0.2117
14972TIP3    H166331   1.144   3.118  10.856 -1.1875  0.9466  0.7639
14972TIP3    H266332   1.105   3.111  10.709  1.0981  0.7560  0.1304
14973TIP3   OH266333   2.055   3.561   2.358 -0.0362 -0.0508  0.3203
14973TIP3    H166334   2.042   3.558   2.453  1.0717  0.0637  0.4804
14973TIP3    H266335   2.136   3.513   2.343  0.0874  0.4022 -0.5237
14974TIP3   OH266336   5.079   2.185  16.147  0.0367  0.4918  0.5111
14974TIP3    H166337   5.051   2.197  16.238  1.4207 -1.0348  1.2099
14974TIP3    H266338   5.138   2.109  16.151  0.9151  1.0182 -1.5055
14975TIP3   OH266339   4.332   0.436  16.290  0.4287  0.2093 -0.5324
14975TIP3    H166340   4.238   0.449  16.303  0.6162  1.0458  0.0850
14975TIP3    H266341   4.356   0.502  16.225  0.7600  0.6597  0.0356
14976TIP3   OH266342   4.547   1.430  15.284  0.1461 -0.9732  1.0561
14976TIP3    H166343   4.499   1.459  15.362 -1.3073 -0.4738  0.0145
14976TIP3    H266344   4.590   1.509  15.252  0.8890 -1.2164  1.4415
14977TIP3   OH266345   5.509   3.792   4.062  0.2036  0.2740  0.3179
14977TIP3    H166346   5.422   3.753   4.050  0.0302  1.1735 -1.6990
14977TIP3    H266347   5.496   3.857   4.131 -0.4940 -0.2078  0.6626
14978TIP3   OH266348   1.791   3.432  11.493  0.2532  0.7282  0.1085
14978TIP3    H166349   1.794   3.432  11.397  1.7798 -2.1971  0.0507
14978TIP3    H266350   1.706   3.394  11.514  0.9125 -1.0065 -0.1964
14979TIP3   OH266351   1.367   0.944  16.863 -0.0762  0.1607 -0.2921
14979TIP3    H166352   1.391   0.884  16.933 -0.3182 -0.0464 -0.3830
14979TIP3    H266353   1.431   1.015  16.868 -0.7582  0.7225  0.8647
14980TIP3   OH266354   4.228   5.504   3.250  0.1097  0.0907  1.0403
14980TIP3    H166355   4.206   5.425   3.298 -0.7379 -0.1653  0.2736
14980TIP3    H266356   4.162   5.568   3.279  0.0995  0.1759  0.8303
14981TIP3   OH266357   3.768   5.036   4.081 -0.3831 -0.3287 -0.0249
14981TIP3    H166358   3.832   5.106   4.084  0.2153 -0.8836  0.4407
14981TIP3    H266359   3.692   5.075   4.037  0.4029  0.2243 -0.9456
14982TIP3   OH266360   5.690   2.117   6.202 -0.6032  0.0291 -0.0727
14982TIP3    H166361   5.689   2.051   6.271 -1.0914 -2.3723 -2.1976
14982TIP3    H266362   5.601   2.150   6.199 -0.4728  0.4781  0.6954
14983TIP3   OH266363   2.455   0.989  12.750 -0.3204  0.3380  0.6180
14983TIP3    H166364   2.424   1.065  12.700  0.7448 -0.5543 -1.5748
14983TIP3    H266365   2.391   0.977  12.819 -1.7835  1.8254 -0.4187
14984TIP3   OH266366   1.819   1.999   4.758  0.4906  0.3803  0.3571
14984TIP3    H166367   1.784   2.045   4.681  2.0179  1.3526  0.1957
14984TIP3    H266368   1.896   2.051   4.783  0.4083 -0.3012  2.1421
14985TIP3   OH266369   2.112   0.520  13.202  0.5906 -0.0615 -0.2032
14985TIP3    H166370   2.050   0.531  13.129  0.6471  2.2904  0.0241
14985TIP3    H266371   2.072   0.454  13.258 -0.4492 -0.4344 -1.3439
14986TIP3   OH266372   5.177   2.283  13.909 -0.0149  0.1672  0.5907
14986TIP3    H166373   5.155   2.191  13.927  0.1887 -0.2030 -0.9322
14986TIP3    H266374   5.113   2.311  13.845  0.5391  0.7791  0.2908
14987TIP3   OH266375   2.087   0.095  16.090  0.0579  0.0314 -0.5173
14987TIP3    H166376   2.005   0.140  16.107 -0.4981 -1.1390 -0.0032
14987TIP3    H266377   2.140   0.158  16.040 -0.7760  1.1380 -0.0233
14988TIP3   OH266378   4.287   3.359  14.443 -0.0945  0.0110  0.0615
14988TIP3    H166379   4.302   3.347  14.537 -0.5139  0.5703  0.1999
14988TIP3    H266380   4.374   3.353  14.404 -0.1117 -2.4131  0.2268
14989TIP3   OH266381   4.758   1.334   5.389 -0.0656  0.3290 -0.5260
14989TIP3    H166382   4.765   1.285   5.307  0.1535  1.8173 -1.4482
14989TIP3    H266383   4.836   1.390   5.389 -0.6710  1.1913  0.1163
14990TIP3   OH266384   4.939   2.263   2.704 -0.2263 -0.5178  0.3087
14990TIP3    H166385   4.993   2.342   2.707  0.6798 -1.0886 -0.4577
14990TIP3    H266386   4.868   2.285   2.644  1.0681 -0.8752 -1.4451
14991TIP3   OH266387   5.701   2.331   0.128 -0.1043 -0.3300 -0.1219
14991TIP3    H166388   5.784   2.308   0.169  0.3104 -0.8052 -1.1848
14991TIP3    H266389   5.657   2.388   0.191  1.0562 -0.0369  0.4322
14992TIP3   OH266390   2.230   6.198   1.967 -0.1678 -0.6568 -0.3468
14992TIP3    H166391   2.321   6.197   1.996  0.2065 -0.6051 -1.4707
14992TIP3    H266392   2.183   6.248   2.035  0.4714 -1.4366  0.6865
14993TIP3   OH266393   1.956   4.597  14.594  0.2096  0.3863  0.3656
14993TIP3    H166394   1.879   4.585  14.650 -0.4242 -0.9643 -0.7285
14993TIP3    H266395   1.956   4.520  14.537  0.7870  1.7303 -1.5315
14994TIP3   OH266396   0.049   4.922  12.299  0.3522 -0.3339 -0.4285
14994TIP3    H166397   0.016   5.009  12.276  1.4616  0.2394  0.0925
14994TIP3    H266398   0.089   4.890  12.219 -0.2419 -0.4658 -0.6822
14995TIP3   OH266399   5.597   5.693   3.959  0.2025 -0.1353 -0.1884
14995TIP3    H166400   5.592   5.728   3.870 -0.5705  1.6599  0.5239
14995TIP3    H266401   5.691   5.685   3.976  0.3642 -0.9280 -1.2930
14996TIP3   OH266402   2.420   3.590  16.736  0.3868 -0.2557  0.1645
14996TIP3    H166403   2.440   3.602  16.829 -0.0929 -0.3608  0.2835
14996TIP3    H266404   2.505   3.585  16.693  0.6123 -0.5937  0.6457
14997TIP3   OH266405   3.448   5.232   2.063 -0.0169  0.7094  0.2808
14997TIP3    H166406   3.461   5.295   2.134 -0.4637 -0.7541  1.6939
14997TIP3    H266407   3.498   5.269   1.990 -0.3166  2.7317  1.0312
14998TIP3   OH266408   6.578   3.169  11.832 -0.0089  0.1672 -0.2864
14998TIP3    H166409   6.510   3.223  11.874 -0.5698  0.1635 -1.1674
14998TIP3    H266410   6.649   3.166  11.896 -0.7932  0.2713  0.6107
14999TIP3   OH266411   0.778   5.776  11.372 -0.8467 -0.5709 -0.1723
14999TIP3    H166412   0.809   5.849  11.426 -0.3359 -1.6689  1.0760
14999TIP3    H266413   0.739   5.714  11.434 -1.7642 -1.1256 -1.2649
15000TIP3   OH266414   4.563   0.959  12.040  0.6377 -0.8792 -0.1241
15000TIP3    H166415   4.552   0.982  11.948  2.8260  0.1838 -0.1963
15000TIP3    H266416   4.546   0.865  12.044 -0.8857 -0.6901 -1.3274
15001TIP3   OH266417   0.355   3.873  15.284  0.0837  0.0483 -0.4090
15001TIP3    H166418   0.319   3.805  15.227 -1.0313  1.6599 -1.6965
15001TIP3    H266419   0.278   3.911  15.328  0.6916  0.4773  0.3156
15002TIP3   OH266420   2.821   1.967  12.370 -0.1701  0.2588 -0.0316
15002TIP3    H166421   2.778   2.052  12.375 -0.8836 -0.1681  2.0556
15002TIP3    H266422   2.764   1.914  12.315 -1.1951  0.3576  0.8971
15003TIP3   OH266423   3.320   6.542  16.184  0.0621 -0.2567  0.2585
15003TIP3    H166424   3.354   6.629  16.165 -0.3258  0.0199  0.7873
15003TIP3    H266425   3.344   6.489  16.108 -0.4156  0.5186 -0.4575
15004TIP3   OH266426   6.453   3.773   0.066 -0.6183 -0.2460 -0.2207
15004TIP3    H166427   6.406   3.758   0.147 -0.5356 -2.6029 -0.5183
15004TIP3    H266428   6.397   3.735  -0.002 -0.3864  1.0888 -1.2059
15005TIP3   OH266429   2.806   1.350  16.724  0.1262 -0.0932  0.1042
15005TIP3    H166430   2.834   1.280  16.784  0.1909  0.4959  0.7724
15005TIP3    H266431   2.779   1.421  16.782  0.7139  0.6913 -0.5705
15006TIP3   OH266432   2.999   2.000   2.665 -0.7820 -0.4017 -0.7030
15006TIP3    H166433   2.998   2.007   2.570  0.5593  1.0982 -0.6463
15006TIP3    H266434   3.074   1.944   2.684 -0.8146 -0.3848 -0.5219
15007TIP3   OH266435   0.429   3.124   6.026  0.5697  0.3334  0.3775
15007TIP3    H166436   0.347   3.159   5.991  0.0291 -1.2550 -0.0214
15007TIP3    H266437   0.433   3.034   5.993  1.0442 -0.5758  2.7373
15008TIP3   OH266438   0.013   6.600  11.772 -0.4050 -0.0725  0.6442
15008TIP3    H166439   0.109   6.605  11.771 -0.4498  1.2581  0.4720
15008TIP3    H266440  -0.015   6.683  11.732 -1.6194  1.5944  4.4277
15009TIP3   OH266441   1.688   1.130  12.702 -0.0066  0.2739  0.4343
15009TIP3    H166442   1.753   1.135  12.772  1.1713 -0.1028 -0.5924
15009TIP3    H266443   1.738   1.145  12.622 -1.5650  2.1670 -0.2507
15010TIP3   OH266444   3.883   4.822  14.782 -0.2939  0.4739 -0.0324
15010TIP3    H166445   3.802   4.867  14.760 -0.9585 -1.1679 -1.0980
15010TIP3    H266446   3.856   4.752  14.842  0.7473  1.5125  1.7662
15011TIP3   OH266447   1.566   2.462  14.496  0.3006  0.0775 -0.0383
15011TIP3    H166448   1.479   2.433  14.525 -0.1370 -1.3929 -2.5179
15011TIP3    H266449   1.558   2.558  14.490 -1.5977 -0.1019 -1.3431
15012TIP3   OH266450   6.087   6.485   5.658  0.0519 -0.1746 -0.0368
15012TIP3    H166451   6.179   6.506   5.677  0.4163  1.9172 -3.4469
15012TIP3    H266452   6.038   6.560   5.693 -0.5314 -1.4508  2.1002
15013TIP3   OH266453   4.049   3.732  13.709 -0.4595 -0.0891 -0.2783
15013TIP3    H166454   3.956   3.724  13.687 -0.5138  0.1903 -0.1522
15013TIP3    H266455   4.055   3.699  13.799 -0.8462  2.0428  0.6067
15014TIP3   OH266456   2.162   2.532   3.866 -0.6725  0.2630 -0.4642
15014TIP3    H166457   2.130   2.447   3.896 -1.5708  1.0649  0.9637
15014TIP3    H266458   2.155   2.589   3.943  0.7366  1.4178 -1.1414
15015TIP3   OH266459   5.367   3.634   6.406 -0.3197  0.6421  0.1800
15015TIP3    H166460   5.277   3.602   6.404 -0.1416  0.1750 -0.4445
15015TIP3    H266461   5.418   3.561   6.442  0.0495  0.2787 -1.0235
15016TIP3   OH266462   5.187   0.516  14.035  0.3609  0.1092  0.1203
15016TIP3    H166463   5.277   0.484  14.038 -0.0983 -1.2483  2.2868
15016TIP3    H266464   5.157   0.509  14.126 -2.4481 -1.0603 -0.8102
15017TIP3   OH266465   6.089   2.112   1.601 -0.3332 -0.1066 -0.3378
15017TIP3    H166466   6.095   2.161   1.519  2.6050 -1.0091 -0.7495
15017TIP3    H266467   6.164   2.053   1.600 -1.0775 -1.2509  2.3231
15018TIP3   OH266468   0.343   0.879   1.826 -0.0083 -0.7448 -0.5881
15018TIP3    H166469   0.430   0.859   1.792  0.9108 -1.0689  1.7801
15018TIP3    H266470   0.354   0.882   1.921 -2.2461  0.8981 -0.2902
15019TIP3   OH266471   2.622   4.181   1.927 -0.1840  0.2013 -0.6582
15019TIP3    H166472   2.584   4.267   1.911  0.9896  1.1572  1.3398
15019TIP3    H266473   2.702   4.180   1.875 -1.1138 -0.4652 -2.1468
15020TIP3   OH266474   0.878   1.971  16.649 -0.5304 -0.0704 -0.5666
15020TIP3    H166475   0.834   1.891  16.623  1.3955 -0.7401 -2.0596
15020TIP3    H266476   0.909   1.954  16.738 -1.1429 -0.5247 -0.4344
15021TIP3   OH266477   4.996   5.443   4.743  0.0595  0.4995  0.0163
15021TIP3    H166478   5.059   5.442   4.815  1.0881  0.4859 -0.8440
15021TIP3    H266479   5.032   5.506   4.681 -0.5752  0.2079 -0.6629
15022TIP3   OH266480   4.623   4.373  14.123  0.2273  0.0404  0.2446
15022TIP3    H166481   4.667   4.363  14.039 -2.1158  1.4891 -1.2612
15022TIP3    H266482   4.642   4.463  14.150 -0.3195  0.0986  0.4609
15023TIP3   OH266483   6.156   5.460  13.690 -0.0612 -0.1099  0.2120
15023TIP3    H166484   6.152   5.489  13.781  1.4462  2.2589 -0.3903
15023TIP3    H266485   6.109   5.527  13.641  1.6079  0.2360 -1.0293
15024TIP3   OH266486   3.781   1.296  12.451  0.3946 -0.9540  0.1271
15024TIP3    H166487   3.743   1.209  12.461  0.4402 -1.0186 -0.2576
15024TIP3    H266488   3.822   1.314  12.536 -1.9153 -0.1783  1.1686
15025TIP3   OH266489   5.543   1.226   5.629  0.6673 -0.1222  0.2731
15025TIP3    H166490   5.460   1.180   5.619 -1.0015  2.9338 -1.3717
15025TIP3    H266491   5.575   1.236   5.539  0.5372  2.4715  0.4476
15026TIP3   OH266492   2.484   6.702   2.120  0.0536  0.4795  0.2921
15026TIP3    H166493   2.502   6.608   2.116  0.0688  0.5042 -0.4591
15026TIP3    H266494   2.398   6.711   2.079  0.2652  0.8415 -0.0818
15027TIP3   OH266495   5.131   4.489  16.577 -0.5355 -0.2674 -0.0424
15027TIP3    H166496   5.193   4.452  16.640  0.6474  0.9947 -0.4141
15027TIP3    H266497   5.084   4.413  16.542 -0.0185 -1.1460  1.1033
15028TIP3   OH266498   4.706   2.848  15.680  0.3518  0.2131 -0.2558
15028TIP3    H166499   4.681   2.916  15.742  2.1473  0.3514  0.3575
15028TIP3    H266500   4.737   2.896  15.603 -0.6366  0.0453 -0.7807
15029TIP3   OH266501   4.036   5.176   5.632  0.5516  0.5137  0.0919
15029TIP3    H166502   4.081   5.112   5.578  3.7037  1.4698  1.3712
15029TIP3    H266503   3.974   5.125   5.684  0.7146 -1.0161 -1.1625
15030TIP3   OH266504   3.342   0.586  15.590 -0.1273  0.1936 -0.6110
15030TIP3    H166505   3.384   0.646  15.528  1.0297  0.3804  0.3146
15030TIP3    H266506   3.360   0.499  15.556 -1.6551  0.3368 -1.8639
15031TIP3   OH266507   2.087   6.297   0.135  0.2503 -0.4684 -0.5569
15031TIP3    H166508   2.002   6.275   0.173 -0.0139  0.5895 -0.5006
15031TIP3    H266509   2.104   6.386   0.165  1.2501 -0.5705 -0.8010
15032TIP3   OH266510   4.374   5.708   5.597 -0.4617 -0.0232  0.3466
15032TIP3    H166511   4.403   5.697   5.688 -0.5978  0.2652  0.4275
15032TIP3    H266512   4.428   5.780   5.564  1.0503 -1.4654 -0.4502
15033TIP3   OH266513   3.382   4.458  12.761  0.2864 -0.0315  0.0651
15033TIP3    H166514   3.315   4.504  12.811 -1.0398 -0.9274 -0.8185
15033TIP3    H266515   3.465   4.499  12.787 -0.6463  1.4486  0.7971
15034TIP3   OH266516   6.604   2.749  13.430  0.3423  0.0417 -0.1984
15034TIP3    H166517   6.630   2.658  13.417 -0.6089 -0.5840  1.8830
15034TIP3    H266518   6.652   2.777  13.508  0.1648  1.1487 -0.4651
15035TIP3   OH266519   4.686   1.420   4.254 -0.2184 -0.1540  0.9955
15035TIP3    H166520   4.671   1.513   4.272  2.2472  0.7090 -0.8359
15035TIP3    H266521   4.742   1.391   4.326  0.6553  0.3527  0.5382
15036TIP3   OH266522   4.132   0.044  16.680  0.5518 -0.1079 -0.0049
15036TIP3    H166523   4.161   0.132  16.702 -0.8347  0.0904  1.1898
15036TIP3    H266524   4.098   0.008  16.762 -3.4169  0.0707 -1.3468
15037TIP3   OH266525   3.284   2.278  13.742  0.0736  0.3466  0.0720
15037TIP3    H166526   3.371   2.243  13.723  0.0612  1.5144 -2.6280
15037TIP3    H266527   3.271   2.261  13.835  1.8275 -2.7234 -0.1112
15038TIP3   OH266528   1.923   0.862  11.382 -0.3502 -0.3813 -0.4528
15038TIP3    H166529   1.952   0.808  11.455 -0.2362 -0.2631 -0.4107
15038TIP3    H266530   1.857   0.920  11.420 -0.4072 -0.4293 -0.4785
15039TIP3   OH266531   3.319   3.744  13.962 -0.2077 -0.1298  0.3937
15039TIP3    H166532   3.388   3.809  13.947 -0.8548  0.1651 -1.5838
15039TIP3    H266533   3.303   3.706  13.876 -1.8562 -0.8783  0.9871
15040TIP3   OH266534   0.476   1.691   5.157 -0.1050  0.1055  0.3956
15040TIP3    H166535   0.492   1.613   5.104 -0.1927  1.5903 -1.9653
15040TIP3    H266536   0.552   1.696   5.216  0.9853 -0.6024 -0.9077
15041TIP3   OH266537   3.465   6.381  12.397 -0.0795  0.2792  0.1664
15041TIP3    H166538   3.556   6.404  12.380 -0.5828  2.3460 -0.0241
15041TIP3    H266539   3.417   6.413  12.320 -1.3730  2.3766  1.7435
15042TIP3   OH266540   2.155   0.443   3.324 -0.0696  0.0211  0.2829
15042TIP3    H166541   2.084   0.506   3.311 -0.6596 -0.5611  0.6363
15042TIP3    H266542   2.228   0.496   3.357 -0.9327  0.3621  1.7593
15043TIP3   OH266543   2.937   0.027   2.556 -0.2455 -0.0423 -0.3995
15043TIP3    H166544   3.029   0.049   2.547 -0.7168  2.7954  0.6225
15043TIP3    H266545   2.906   0.015   2.466  0.5357  1.9202 -0.9767
15044TIP3   OH266546   4.902   3.086   5.417 -0.5470 -0.3914  0.4529
15044TIP3    H166547   4.892   3.179   5.399 -1.9535 -0.6642 -0.2879
15044TIP3    H266548   4.915   3.046   5.332  0.1601 -0.8795  0.7780
15045TIP3   OH266549   6.195   1.489   1.414  0.1122 -0.2433  0.1469
15045TIP3    H166550   6.268   1.440   1.378 -0.3908 -1.5693  0.8748
15045TIP3    H266551   6.119   1.432   1.402 -0.6771  0.7638  0.1418
15046TIP3   OH266552   4.038   3.823  16.727 -0.7348  0.2087 -0.2728
15046TIP3    H166553   3.986   3.805  16.805 -0.4105  1.5359  0.2788
15046TIP3    H266554   4.125   3.792  16.748 -0.0537  2.6579  0.8690
15047TIP3   OH266555   0.830   0.350  13.631  0.1620 -0.1833  0.1011
15047TIP3    H166556   0.820   0.256  13.617 -0.3438 -0.6610  2.9563
15047TIP3    H266557   0.742   0.381  13.653  0.4597  0.7867 -0.0067
15048TIP3   OH266558   3.431   3.509  15.541 -0.3246 -0.4162  0.0326
15048TIP3    H166559   3.486   3.586  15.527 -0.6970 -0.0299  0.6291
15048TIP3    H266560   3.482   3.453  15.600 -0.2180 -0.4522 -0.0922
15049TIP3   OH266561   5.904   4.218   6.100 -0.0303 -0.3359  0.5508
15049TIP3    H166562   5.965   4.247   6.167  0.6252 -3.2624  1.3665
15049TIP3    H266563   5.943   4.139   6.064 -1.7877 -0.4799 -1.2587
15050TIP3   OH266564   4.539   4.169   2.263 -0.0410  0.3104 -0.6959
15050TIP3    H166565   4.619   4.134   2.302  0.7749  1.4079 -1.3168
15050TIP3    H266566   4.492   4.092   2.232 -1.0267 -0.6867  2.8615
15051TIP3   OH266567   1.920   6.505  12.315 -0.1997  0.6469 -0.8328
15051TIP3    H166568   1.965   6.484  12.233 -1.6897 -0.8304 -1.3137
15051TIP3    H266569   1.963   6.450  12.381 -0.7270 -0.1584 -1.1440
15052TIP3   OH266570   1.580   4.255  10.903 -0.7923  0.2349  0.0944
15052TIP3    H166571   1.598   4.209  10.821 -1.6687  0.2134 -0.0884
15052TIP3    H266572   1.485   4.252  10.913 -0.8185  1.4465  0.4081
15053TIP3   OH266573   2.605   5.292  15.117  0.3749 -0.1776  0.1083
15053TIP3    H166574   2.688   5.312  15.161  0.1030 -0.1332  0.5999
15053TIP3    H266575   2.617   5.325  15.028 -0.1323  2.4374  0.9282
15054TIP3   OH266576   1.575   3.519  16.019  0.0031  0.1237 -0.0693
15054TIP3    H166577   1.555   3.450  16.082 -0.8402  1.1944  0.8801
15054TIP3    H266578   1.574   3.476  15.934  2.0302 -1.5544  0.6756
15055TIP3   OH266579   1.037   4.260   1.406  0.3259  0.2582  0.0112
15055TIP3    H166580   1.080   4.331   1.359 -1.2416  0.2882 -1.4725
15055TIP3    H266581   1.092   4.183   1.392  1.0629  0.7642  0.0855
15056TIP3   OH266582   2.074   1.859   1.980 -0.1587 -0.0721 -0.3280
15056TIP3    H166583   2.042   1.835   2.066 -1.3460  1.2438 -0.3899
15056TIP3    H266584   2.107   1.948   1.989  3.0217 -1.1121 -0.4186
15057TIP3   OH266585   3.511   3.118  12.507 -0.1227  0.4909 -0.1242
15057TIP3    H166586   3.502   3.037  12.458 -0.7822  0.8916 -0.6950
15057TIP3    H266587   3.458   3.181  12.458  0.5836  1.3256  0.1622
15058TIP3   OH266588   0.636   1.275   0.065 -0.4078  0.0668  0.4561
15058TIP3    H166589   0.661   1.269   0.157 -1.9447 -0.2654  0.8710
15058TIP3    H266590   0.657   1.365   0.040 -0.1585  0.2130  1.1723
15059TIP3   OH266591   6.361   2.294  14.993 -0.2411 -0.7486  0.0177
15059TIP3    H166592   6.353   2.216  14.938  0.5689  0.1924 -1.4946
15059TIP3    H266593   6.423   2.350  14.947  1.2121 -0.2905  2.3838
15060TIP3   OH266594   3.958   3.830  12.153 -0.4136 -0.2886 -0.0074
15060TIP3    H166595   3.928   3.920  12.166  0.8013  0.1029  0.2148
15060TIP3    H266596   3.877   3.780  12.143 -1.0975  1.1492 -2.5033
15061TIP3   OH266597   4.022   1.085   4.082  0.2600 -0.4834  1.2587
15061TIP3    H166598   4.024   1.011   4.022  0.8683 -1.4085  2.3726
15061TIP3    H266599   3.962   1.147   4.042  3.1076  0.4842 -2.0387
15062TIP3   OH266600   4.496   4.836   5.042 -0.3705  0.4074  0.0033
15062TIP3    H166601   4.588   4.865   5.038  0.1855 -1.3270 -0.7153
15062TIP3    H266602   4.469   4.856   5.131  1.2934 -0.6792  0.8043
15063TIP3   OH266603   3.143   4.316   4.988  0.7183 -0.4876  0.5960
15063TIP3    H166604   3.233   4.337   5.011  0.3004  1.2609  0.7947
15063TIP3    H266605   3.107   4.399   4.955  0.0858 -1.8535 -2.5095
15064TIP3   OH266606   1.700   0.053   4.301 -0.2574 -0.0945  0.1934
15064TIP3    H166607   1.660   0.113   4.238 -0.7605  0.4901  1.0574
15064TIP3    H266608   1.626   0.011   4.345  0.0928 -0.7848  0.1396
15065TIP3   OH266609   6.337   2.939   4.424  0.0395  0.3476  0.0316
15065TIP3    H166610   6.312   2.987   4.503  0.2812 -0.0214  0.3370
15065TIP3    H266611   6.386   2.863   4.456 -0.8857 -0.4708 -0.3961
15066TIP3   OH266612   4.275   0.800   6.119  0.1891  0.1846 -0.1575
15066TIP3    H166613   4.199   0.832   6.169 -0.1034  0.9911 -1.0976
15066TIP3    H266614   4.251   0.711   6.095  0.0940 -0.0205  0.6497
15067TIP3   OH266615   4.937   4.572  17.052 -0.0046 -0.7359 -0.1702
15067TIP3    H166616   4.965   4.625  17.126 -2.7310 -0.7274  0.9724
15067TIP3    H266617   4.913   4.636  16.984  0.9260 -0.6903 -0.4644
15068TIP3   OH266618   3.958   6.602   0.977 -0.1739  0.1415 -0.2321
15068TIP3    H166619   3.938   6.694   0.991 -0.2572 -0.2944  3.8981
15068TIP3    H266620   4.054   6.599   0.971 -0.2490  0.6132 -2.9394
15069TIP3   OH266621   3.918   0.851  16.827  0.1609 -0.0291  0.4155
15069TIP3    H166622   3.938   0.942  16.852 -0.9542  0.9530 -1.9757
15069TIP3    H266623   3.991   0.825  16.771  0.2493 -0.4607  0.7254
15070TIP3   OH266624   0.560   3.578   4.662  0.0854  0.3240 -0.1194
15070TIP3    H166625   0.593   3.491   4.686  1.0553  0.4244 -1.0272
15070TIP3    H266626   0.628   3.639   4.691 -0.4223  0.7638  0.1841
15071TIP3   OH266627   3.990   4.798   2.599 -0.2199  0.5128 -0.7965
15071TIP3    H166628   3.994   4.703   2.589  0.4942  0.2212  1.7177
15071TIP3    H266629   3.904   4.815   2.635 -0.0237  0.7097 -0.4123
15072TIP3   OH266630   6.438   1.873  14.601 -0.1471  0.4737 -0.6106
15072TIP3    H166631   6.517   1.922  14.578  0.6835 -0.7263 -0.3585
15072TIP3    H266632   6.397   1.925  14.670  1.3687  0.2237  0.5280
15073TIP3   OH266633   2.257   1.924   6.422 -0.1039  0.1020  0.2285
15073TIP3    H166634   2.183   1.864   6.417 -0.2841  0.4129 -1.6814
15073TIP3    H266635   2.224   2.007   6.387  0.7307  0.6865  0.7821
15074TIP3   OH266636   1.284   6.553   4.575  0.5716  0.7855  0.2546
15074TIP3    H166637   1.282   6.527   4.483  0.2616  0.1003  0.4516
15074TIP3    H266638   1.225   6.629   4.580 -0.1719  0.2259  0.0661
15075TIP3   OH266639   6.408   5.712  14.796  0.8540  0.2431  0.4399
15075TIP3    H166640   6.481   5.651  14.786  0.3399  0.0141 -3.5158
15075TIP3    H266641   6.449   5.798  14.791  0.9800  0.1207 -0.9493
15076TIP3   OH266642   4.888   3.258  12.383 -0.0020 -0.7676  0.7138
15076TIP3    H166643   4.918   3.209  12.307  1.3723 -1.3270  1.5836
15076TIP3    H266644   4.884   3.349  12.353 -1.6129 -1.2146 -0.6293
15077TIP3   OH266645   1.084   2.564   3.260 -0.1987 -0.5170  0.0226
15077TIP3    H166646   1.076   2.473   3.232 -0.6444 -0.4199 -0.1853
15077TIP3    H266647   1.140   2.561   3.338  1.9439 -0.6728 -1.4651
15078TIP3   OH266648   4.520   4.700  10.758  0.0551 -0.1068  0.6907
15078TIP3    H166649   4.526   4.732  10.848 -1.7155  1.3211  0.3752
15078TIP3    H266650   4.441   4.645  10.758  0.7107 -1.0591  0.2645
15079TIP3   OH266651   5.988   6.047  13.893 -0.3571  0.1075  0.1005
15079TIP3    H166652   5.944   6.107  13.833 -1.2550 -1.3909 -0.8339
15079TIP3    H266653   5.928   6.038  13.967  0.9665  2.3315  1.5666
15080TIP3   OH266654   4.476   1.018  12.663  0.4251  0.1219  0.1211
15080TIP3    H166655   4.389   0.982  12.647 -0.3907  1.8212  0.5127
15080TIP3    H266656   4.503   0.978  12.746  0.3254 -0.9222 -0.3344
15081TIP3   OH266657   2.625   6.587   3.135 -0.4932 -0.0525  0.1634
15081TIP3    H166658   2.703   6.535   3.153 -1.5584 -1.5999  0.4984
15081TIP3    H266659   2.630   6.606   3.041  0.6951  0.5996  0.3407
15082TIP3   OH266660   4.503   5.104  12.615  0.0226  0.0127  0.3702
15082TIP3    H166661   4.490   5.065  12.702  1.8391  0.7761  1.0319
15082TIP3    H266662   4.434   5.170  12.608 -1.2168 -1.2273  0.4814
15083TIP3   OH266663   0.035   6.572   3.459 -0.6932 -0.1186  0.2570
15083TIP3    H166664   0.080   6.506   3.513  0.9130  2.5780  2.4529
15083TIP3    H266665  -0.056   6.542   3.455  0.1680 -3.0670  0.0603
15084TIP3   OH266666   0.014   2.261  10.610 -0.1559 -0.0746  0.1831
15084TIP3    H166667   0.025   2.302  10.524  0.3718 -0.1990  0.1877
15084TIP3    H266668   0.049   2.326  10.672 -0.2420 -0.1187  0.2779
15085TIP3   OH266669   1.415   6.150   0.989 -0.5069  0.2818 -0.2028
15085TIP3    H166670   1.455   6.066   1.011 -0.5522  0.6764  1.5189
15085TIP3    H266671   1.467   6.183   0.916  0.0496 -0.8428 -0.3333
15086TIP3   OH266672   1.331   1.460  16.491  0.1571 -0.0517 -0.1197
15086TIP3    H166673   1.421   1.480  16.465  0.4774  0.0985  1.0518
15086TIP3    H266674   1.296   1.545  16.518 -0.1071 -0.2367  0.1080
15087TIP3   OH266675   0.622   3.212  15.080 -0.4514 -0.0428 -0.2416
15087TIP3    H166676   0.546   3.184  15.029  0.4001 -1.3936 -0.8216
15087TIP3    H266677   0.697   3.174  15.034  0.5049  0.5069  0.8207
15088TIP3   OH266678   6.206   2.267   2.340 -0.2307 -0.2317  0.3113
15088TIP3    H166679   6.288   2.217   2.341 -0.8881 -1.4033  2.5455
15088TIP3    H266680   6.167   2.251   2.426 -1.9521  1.7608 -0.0155
15089TIP3   OH266681   0.289   3.161  10.986 -0.4263 -0.5184 -0.7793
15089TIP3    H166682   0.335   3.245  10.992 -0.6336 -0.4579  0.2453
15089TIP3    H266683   0.352   3.103  10.942  0.7335 -0.4697  0.7053
15090TIP3   OH266684   0.391   3.877   3.237 -0.3940  0.5275  0.1868
15090TIP3    H166685   0.342   3.842   3.162 -1.1499 -1.5093  1.5591
15090TIP3    H266686   0.360   3.967   3.246 -1.6155  0.2407 -0.8627
15091TIP3   OH266687   0.158   4.004   6.325  0.5573 -0.2877  0.0534
15091TIP3    H166688   0.188   4.090   6.356  1.9076 -0.8956  0.5211
15091TIP3    H266689   0.129   3.959   6.405 -0.3980 -0.1832 -0.2269
15092TIP3   OH266690   2.465   0.325   4.627  0.2212 -0.5931  0.0920
15092TIP3    H166691   2.517   0.289   4.699  0.3512 -0.7459 -0.0800
15092TIP3    H266692   2.375   0.325   4.660  0.1599 -1.4657 -0.0660
15093TIP3   OH266693   1.135   4.014   1.320  0.0678  0.0312 -0.4943
15093TIP3    H166694   1.065   3.954   1.346  0.4620  0.0835  0.7188
15093TIP3    H266695   1.216   3.969   1.344  0.4422  0.2058 -1.3910
15094TIP3   OH266696   1.407   4.194  12.751  0.1728 -0.0736  0.1619
15094TIP3    H166697   1.343   4.132  12.717  0.3979 -0.7853  1.0129
15094TIP3    H266698   1.429   4.161  12.838  0.6555  0.9357  0.4395
15095TIP3   OH266699   3.927   1.470   5.962  0.3237 -0.2624 -0.2575
15095TIP3    H166700   3.879   1.475   5.880 -0.2690  0.6528  0.1324
15095TIP3    H266701   3.887   1.396   6.008  1.7876 -1.9005 -1.4576
15096TIP3   OH266702   3.813   0.892  13.166 -0.3044 -0.3707  0.1088
15096TIP3    H166703   3.864   0.834  13.110 -0.5004 -1.1612  0.7309
15096TIP3    H266704   3.858   0.890  13.251 -0.5398  0.0729  0.2497
15097TIP3   OH266705   5.330   5.108  13.892  0.6291 -0.7014  0.3414
15097TIP3    H166706   5.336   5.119  13.987 -0.2570 -0.4795  0.3804
15097TIP3    H266707   5.331   5.197  13.857  0.1409 -0.7488  0.2024
15098TIP3   OH266708   6.148   4.628  14.160  0.2526  0.1224  0.1171
15098TIP3    H166709   6.187   4.632  14.072 -2.3149  2.2078 -1.0476
15098TIP3    H266710   6.078   4.564  14.151  0.4204 -0.1710  0.8822
15099TIP3   OH266711   2.834   6.189  11.421 -0.1032 -0.2287 -0.3944
15099TIP3    H166712   2.901   6.184  11.353 -0.3027  1.5276 -0.7646
15099TIP3    H266713   2.761   6.236  11.380 -0.1354  1.0863  1.0686
15100TIP3   OH266714   2.893   0.950   4.637 -0.1543  0.7165 -0.3342
15100TIP3    H166715   2.819   1.002   4.669 -0.4733 -0.4998  1.0148
15100TIP3    H266716   2.965   1.012   4.630 -1.5481  2.2227 -2.8860
15101TIP3   OH266717   3.291   6.294  15.744  0.0534  0.3314  0.2932
15101TIP3    H166718   3.329   6.354  15.679  0.8300  0.2184  0.6253
15101TIP3    H266719   3.285   6.210  15.698 -1.4971  0.7534 -0.3297
15102TIP3   OH266720   3.863   3.857  12.655 -0.8702 -0.2616 -0.2839
15102TIP3    H166721   3.929   3.926  12.647 -0.7116  0.1984  3.3580
15102TIP3    H266722   3.912   3.776  12.640 -0.3152  0.2424 -1.2772
15103TIP3   OH266723   5.264   2.952  12.063  0.1888 -0.7532 -0.1529
15103TIP3    H166724   5.216   2.932  11.982  2.2147 -0.0244 -1.6153
15103TIP3    H266725   5.329   2.883  12.070  1.2675  0.2394 -0.2002
15104TIP3   OH266726   2.920   5.293  12.133  0.3841  0.4169 -0.7385
15104TIP3    H166727   2.841   5.344  12.117  2.2479  2.9154 -3.0562
15104TIP3    H266728   2.907   5.211  12.087 -0.7872  0.8456 -1.1894
15105TIP3   OH266729   5.353   5.012   0.391 -0.4122 -0.1222  0.2136
15105TIP3    H166730   5.432   5.040   0.436 -0.1842 -1.8609  0.9757
15105TIP3    H266731   5.337   5.080   0.325  0.8948  0.9741  0.9886
15106TIP3   OH266732   3.906   3.163   1.588 -0.1555  0.1395 -0.3331
15106TIP3    H166733   3.926   3.181   1.679 -0.5083  0.0119 -0.2271
15106TIP3    H266734   3.976   3.105   1.558  2.3339  3.3445 -1.3292
15107TIP3   OH266735   6.158   6.762  15.332  0.5061 -0.3939  0.6909
15107TIP3    H166736   6.148   6.667  15.340  1.2478 -0.4698  0.7422
15107TIP3    H266737   6.251   6.778  15.346  0.7293  0.1604 -1.1923
15108TIP3   OH266738   4.235   3.037  15.319  0.0171 -0.6804 -0.2028
15108TIP3    H166739   4.187   3.086  15.252 -0.9777 -1.8111 -0.3571
15108TIP3    H266740   4.308   2.998  15.272  3.2224  3.6597  0.6086
15109TIP3   OH266741   6.290   1.761   5.287 -0.1329  0.1418 -0.1116
15109TIP3    H166742   6.266   1.752   5.194 -1.1840 -1.6732  0.2752
15109TIP3    H266743   6.340   1.842   5.291 -0.2185  0.3686 -2.2377
15110TIP3   OH266744   3.055   3.841   2.397  0.5904 -0.4753 -0.4023
15110TIP3    H166745   3.100   3.803   2.472  0.0649  1.3766  0.9172
15110TIP3    H266746   2.962   3.833   2.418  0.4543  1.0753 -0.2682
15111TIP3   OH266747   2.264   2.080   3.252  0.0455 -0.3988  0.0194
15111TIP3    H166748   2.301   2.110   3.169  0.2103  2.4929  1.0234
15111TIP3    H266749   2.340   2.047   3.301 -0.1433 -2.7635 -1.1087
15112TIP3   OH266750   5.722   0.493  16.458  0.1831 -0.4291  0.0718
15112TIP3    H166751   5.760   0.532  16.537 -0.5555 -1.8016  1.1630
15112TIP3    H266752   5.670   0.563  16.419 -2.3000 -0.5908  2.7546
15113TIP3   OH266753   2.685   2.639  16.868 -0.1555  0.5046  0.4290
15113TIP3    H166754   2.598   2.610  16.841 -1.0710  1.4735  2.1799
15113TIP3    H266755   2.699   2.597  16.953  0.9020  0.7219  0.3748
15114TIP3   OH266756   1.642   4.153   3.767 -0.7983 -0.0840  0.0642
15114TIP3    H166757   1.697   4.077   3.781 -0.9319 -0.2492 -0.2810
15114TIP3    H266758   1.689   4.226   3.808  1.3287  0.4318 -2.9600
15115TIP3   OH266759   2.485   6.611  10.731  0.1748  0.1242 -0.1853
15115TIP3    H166760   2.551   6.557  10.773  0.5887  1.6961  1.2665
15115TIP3    H266761   2.532   6.688  10.699 -0.3926 -0.3124 -2.2543
15116TIP3   OH266762   1.641   6.152   2.506  0.1793  0.8874  0.6522
15116TIP3    H166763   1.638   6.190   2.418  0.7290  0.6483  0.5278
15116TIP3    H266764   1.721   6.186   2.544 -0.0566  0.9905  1.0678
15117TIP3   OH266765   6.068   3.432  14.979  0.9226 -0.6159 -0.5565
15117TIP3    H166766   6.095   3.447  14.888 -0.6603  0.9319 -0.8182
15117TIP3    H266767   5.976   3.409  14.973  1.0847 -1.6557  0.6115
15118TIP3   OH266768   3.486   3.553  14.193  0.5441 -0.1332 -0.1077
15118TIP3    H166769   3.404   3.508  14.171  2.3712 -2.8757 -1.9679
15118TIP3    H266770   3.494   3.621  14.126  0.9134 -1.4960 -1.5118
15119TIP3   OH266771   3.454   5.679  14.457 -0.6009 -0.2459  0.6591
15119TIP3    H166772   3.408   5.609  14.411 -1.4875 -1.1114  2.7020
15119TIP3    H266773   3.398   5.698  14.533 -0.5522  2.9484  0.0186
15120TIP3   OH266774   2.856   5.070  15.322 -0.0514 -0.0634  0.1998
15120TIP3    H166775   2.876   5.147  15.270 -0.8420 -0.2597 -0.4199
15120TIP3    H266776   2.921   5.071  15.393  0.0504  1.0779  0.1139
15121TIP3   OH266777   5.576   1.344  12.983 -0.0037  0.8083 -0.1684
15121TIP3    H166778   5.558   1.287  13.058  2.0201  0.3619  0.0366
15121TIP3    H266779   5.517   1.313  12.914 -0.1400 -0.4057  0.4712
15122TIP3   OH266780   0.617   3.690  13.355 -0.3151  0.2759  0.8182
15122TIP3    H166781   0.586   3.701  13.444 -3.0548 -0.8915  0.1013
15122TIP3    H266782   0.694   3.634  13.363 -0.8576 -0.2823  2.4039
15123TIP3   OH266783   0.729   1.797  12.586 -0.2069 -0.1929 -0.6701
15123TIP3    H166784   0.790   1.783  12.513 -0.5592 -0.9047 -0.8399
15123TIP3    H266785   0.780   1.844  12.651 -0.2459  1.5956 -1.8759
15124TIP3   OH266786   5.836   1.565  12.589 -0.5756  0.3485 -0.1156
15124TIP3    H166787   5.894   1.629  12.547 -0.6169  1.4808  1.4530
15124TIP3    H266788   5.752   1.577  12.546 -0.8038  1.9972  0.6978
15125TIP3   OH266789   5.317   2.013  14.782 -0.9421 -0.1624  0.0750
15125TIP3    H166790   5.234   2.044  14.819 -1.1389 -0.6149  0.0170
15125TIP3    H266791   5.291   1.957  14.709 -0.5706  0.2522 -0.3793
15126TIP3   OH266792   5.944   5.809   6.685  0.0444 -0.2830  0.1815
15126TIP3    H166793   5.861   5.770   6.656  0.0912 -0.4129  0.2208
15126TIP3    H266794   5.992   5.736   6.725 -0.3427  0.0434  1.2865
15127TIP3   OH266795   0.120   3.326  14.043 -0.4800  0.1456 -0.1486
15127TIP3    H166796   0.120   3.408  13.993 -1.4146 -1.1343 -2.3820
15127TIP3    H266797   0.063   3.344  14.118  1.8561  2.4865  1.2660
15128TIP3   OH266798   1.964   3.092   2.885  0.1123  0.1511 -0.4050
15128TIP3    H166799   2.001   3.011   2.920 -1.0950  0.1650  0.9952
15128TIP3    H266800   2.036   3.131   2.836  0.8219 -1.5948 -0.8367
15129TIP3   OH266801   1.558   4.887   5.737 -0.5132  0.5328 -0.6202
15129TIP3    H166802   1.538   4.949   5.808 -0.8352  1.5464 -1.5652
15129TIP3    H266803   1.516   4.925   5.660 -2.5967 -1.9692 -0.8424
15130TIP3   OH266804   3.033   3.230  10.427  0.0201  0.2526  0.3519
15130TIP3    H166805   2.997   3.158  10.479  1.2421 -1.1366 -0.6300
15130TIP3    H266806   2.963   3.252  10.365 -0.7092  0.5866  1.2647
15131TIP3   OH266807   2.885   0.280  12.157  0.3620 -0.2933  0.0475
15131TIP3    H166808   2.907   0.356  12.212  0.7314 -0.7065  0.4790
15131TIP3    H266809   2.879   0.315  12.069  0.6644  0.2153  0.2249
15132TIP3   OH266810   6.671   5.389   6.320  0.0174 -0.0885 -0.0566
15132TIP3    H166811   6.611   5.348   6.258 -1.1651  1.9624 -0.3748
15132TIP3    H266812   6.620   5.394   6.402  0.6744 -0.5599  0.3887
15133TIP3   OH266813   2.390   1.200   2.277  0.2277 -0.0991  0.4835
15133TIP3    H166814   2.462   1.209   2.338 -0.6593  0.9275  1.4178
15133TIP3    H266815   2.412   1.259   2.205  2.7677 -3.4540 -1.8525
15134TIP3   OH266816   1.812   5.633  15.774 -0.4697  0.1313 -0.3547
15134TIP3    H166817   1.904   5.621  15.749 -0.2821  0.3421  0.2088
15134TIP3    H266818   1.790   5.721  15.744 -1.4227 -1.0036 -3.2294
15135TIP3   OH266819   2.629   1.694  16.614 -0.1198  0.1223 -0.5600
15135TIP3    H166820   2.550   1.747  16.611  1.6268  2.9818 -3.3654
15135TIP3    H266821   2.629   1.646  16.531 -0.2957 -2.2902  0.7446
15136TIP3   OH266822   3.881   6.004  11.258  0.0562 -0.5139  0.1805
15136TIP3    H166823   3.856   6.028  11.169 -1.0404  2.1311  1.1210
15136TIP3    H266824   3.972   5.974  11.251 -0.0324 -0.3870 -1.7993
15137TIP3   OH266825   6.002   3.314  16.381 -0.1863 -0.2468 -0.1358
15137TIP3    H166826   6.091   3.299  16.350 -0.2000  0.0966 -0.3476
15137TIP3    H266827   6.012   3.334  16.474  0.0686  0.8493 -0.3847
15138TIP3   OH266828   5.061   2.196  16.668 -0.1001  0.3143  0.1172
15138TIP3    H166829   5.091   2.275  16.712  1.3731 -0.2072  0.1094
15138TIP3    H266830   5.138   2.139  16.667 -0.7282 -0.5517 -1.1513
15139TIP3   OH266831   4.922   5.065   5.416  0.1436 -0.1797 -0.0991
15139TIP3    H166832   4.844   5.063   5.361  0.3408 -1.1113 -0.3755
15139TIP3    H266833   4.960   5.152   5.402 -1.6033  0.8503  1.1718
15140TIP3   OH266834   0.291   0.884  12.635  0.2493  0.2247 -0.4491
15140TIP3    H166835   0.355   0.954  12.630  0.7577 -0.2597 -0.7550
15140TIP3    H266836   0.218   0.914  12.580  0.1216  0.8565  0.0506
15141TIP3   OH266837   6.809   1.514   4.850 -0.3804 -0.0338  0.0869
15141TIP3    H166838   6.732   1.513   4.907  0.3033  0.8697  1.0555
15141TIP3    H266839   6.875   1.463   4.897  0.0040  0.2253 -0.1641
15142TIP3   OH266840   2.149   5.861   0.326  0.4246  0.0953 -0.0278
15142TIP3    H166841   2.211   5.794   0.352 -0.1978 -0.8360 -0.8617
15142TIP3    H266842   2.201   5.942   0.323  1.7792 -0.7609 -1.3360
15143TIP3   OH266843   2.701   0.758   4.532 -0.0468 -0.0714 -0.0328
15143TIP3    H166844   2.673   0.811   4.607  0.9862 -0.3833  0.5860
15143TIP3    H266845   2.763   0.695   4.569 -0.2285 -0.8350 -0.9975
15144TIP3   OH266846   5.031   4.697   0.205  0.3268  0.3927  0.2691
15144TIP3    H166847   5.122   4.668   0.205  0.5607  0.9086 -1.8885
15144TIP3    H266848   5.032   4.779   0.255  0.7632 -0.3232  1.4455
15145TIP3   OH266849   0.405   3.895   4.498 -0.4319  0.3757 -0.3866
15145TIP3    H166850   0.494   3.917   4.524 -1.0289 -0.3006  2.5862
15145TIP3    H266851   0.402   3.799   4.501 -1.0941  0.3638 -1.0803
15146TIP3   OH266852   2.531   2.025  15.471  0.0571  0.5220  0.1466
15146TIP3    H166853   2.580   2.034  15.389 -1.2183 -0.5109 -0.7681
15146TIP3    H266854   2.478   2.104  15.476  0.2481  0.6571  0.0575
15147TIP3   OH266855   0.106   2.847   1.244 -0.2844 -0.6750  0.2228
15147TIP3    H166856   0.149   2.827   1.160  0.4250 -1.6513  0.7948
15147TIP3    H266857   0.093   2.761   1.285  0.8213 -0.1140  1.8185
15148TIP3   OH266858   4.273   1.539   5.430  0.2560 -0.2616  1.2064
15148TIP3    H166859   4.317   1.471   5.480 -0.7751 -1.7575  0.1765
15148TIP3    H266860   4.279   1.510   5.339  1.7967  2.2088  0.4130
15149TIP3   OH266861   0.774   0.150  14.790  0.1240 -0.0577 -0.1238
15149TIP3    H166862   0.764   0.096  14.712  0.0494  1.3071 -1.1046
15149TIP3    H266863   0.753   0.239  14.761 -0.2315  0.4491  1.5314
15150TIP3   OH266864   3.767   2.503   1.648  0.0442  0.2139 -0.2395
15150TIP3    H166865   3.831   2.546   1.592 -0.2531 -0.1985 -0.9092
15150TIP3    H266866   3.705   2.572   1.672 -0.3066  0.2086 -1.1232
15151TIP3   OH266867   2.233   0.139   4.278  0.0919 -0.4616  0.1235
15151TIP3    H166868   2.178   0.119   4.202  1.2860 -1.6675 -0.4675
15151TIP3    H266869   2.233   0.235   4.282 -0.6322 -0.3949 -0.9330
15152TIP3   OH266870   2.201   3.883   5.304  0.0854 -0.1624 -0.4659
15152TIP3    H166871   2.271   3.934   5.264 -0.6070  1.1158 -0.0994
15152TIP3    H266872   2.247   3.813   5.351  1.2827  1.5251  1.0477
15153TIP3   OH266873   5.502   1.949  12.445 -0.5670 -0.0043  0.1942
15153TIP3    H166874   5.531   1.868  12.487 -0.7129 -0.8704 -1.2937
15153TIP3    H266875   5.486   1.924  12.354 -2.2628  1.3142  0.0782
15154TIP3   OH266876   1.230   6.049  16.353  0.0544 -0.0181  0.1194
15154TIP3    H166877   1.293   6.100  16.301  0.0132 -0.6055 -0.5307
15154TIP3    H266878   1.237   5.961  16.317 -2.8620  0.3491 -1.6513
15155TIP3   OH266879   2.482   5.359  15.538 -0.6925  0.0179 -0.2799
15155TIP3    H166880   2.564   5.324  15.573 -1.0384 -0.6020 -0.0595
15155TIP3    H266881   2.480   5.328  15.447 -0.0558  1.1642 -0.7034
15156TIP3   OH266882   1.286   0.573   5.414 -0.0954 -0.0253  0.1822
15156TIP3    H166883   1.340   0.494   5.414  0.5604  0.3645  1.9833
15156TIP3    H266884   1.198   0.542   5.391  0.5246 -0.9551 -1.0155
15157TIP3   OH266885   6.442   0.339   0.608 -0.1505  0.2965 -0.0709
15157TIP3    H166886   6.443   0.395   0.686  1.9688 -0.2733  0.3612
15157TIP3    H266887   6.391   0.262   0.634 -0.2615  0.5346  0.4197
15158TIP3   OH266888   1.345   6.591   2.629  0.0784 -0.7940  0.1732
15158TIP3    H166889   1.277   6.544   2.676 -0.0811  0.9473  1.8343
15158TIP3    H266890   1.347   6.678   2.670 -0.4352  1.1072 -3.4196
15159TIP3   OH266891   1.938   2.576  11.519 -0.0360  0.6432 -0.3794
15159TIP3    H166892   1.874   2.580  11.590 -0.1363  2.1738 -0.5298
15159TIP3    H266893   1.900   2.515  11.456 -2.6152  3.3481 -1.6387
15160TIP3   OH266894   3.417   1.838  12.137 -0.5763  0.2667 -0.4392
15160TIP3    H166895   3.324   1.837  12.114 -0.7169  0.4403  0.0978
15160TIP3    H266896   3.418   1.853  12.231 -0.0557 -1.6345 -0.0919
15161TIP3   OH266897   5.221   5.750  16.975  0.0620 -0.3106 -0.2292
15161TIP3    H166898   5.298   5.695  16.956 -2.3250 -3.0904 -2.7712
15161TIP3    H266899   5.199   5.790  16.891 -2.1622 -0.8226  0.0742
15162TIP3   OH266900   3.545   3.371   1.707  0.8871 -1.1864  0.1708
15162TIP3    H166901   3.525   3.368   1.800  0.6021  0.5072  0.1927
15162TIP3    H266902   3.546   3.464   1.685  1.1852 -1.5365 -1.4706
15163TIP3   OH266903   6.692   6.544  13.966 -0.5689  0.1256  0.1044
15163TIP3    H166904   6.779   6.547  13.926  0.1228 -1.1503  1.4070
15163TIP3    H266905   6.691   6.461  14.015 -2.0462  0.7170  1.1474
15164TIP3   OH266906   6.119   4.806   4.792 -0.1931  0.4974 -0.6312
15164TIP3    H166907   6.160   4.727   4.825 -2.5408 -1.2197 -1.5625
15164TIP3    H266908   6.089   4.852   4.871  1.0914  0.4604 -0.0903
15165TIP3   OH266909   0.793   4.118   4.691  0.0025 -0.6229 -0.1661
15165TIP3    H166910   0.841   4.113   4.773  0.5523  0.2112 -0.4288
15165TIP3    H266911   0.706   4.083   4.712 -0.3472  0.9077  1.1617
15166TIP3   OH266912   0.514   3.636  13.115 -0.1007 -0.4862  0.1521
15166TIP3    H166913   0.460   3.713  13.096 -1.4929 -0.6136  3.0363
15166TIP3    H266914   0.563   3.659  13.193 -0.1465 -2.3370  0.7771
15167TIP3   OH266915   5.392   2.778   1.854 -0.5819  0.4421  0.0312
15167TIP3    H166916   5.448   2.703   1.872 -0.3432  1.0062  1.7799
15167TIP3    H266917   5.420   2.810   1.768  1.1554  0.1706  0.4770
15168TIP3   OH266918   1.289   1.816   1.641  0.4706 -0.0352 -0.3797
15168TIP3    H166919   1.246   1.745   1.689 -1.1425  1.3146  0.2695
15168TIP3    H266920   1.382   1.795   1.644  0.3806 -0.3619  2.7862
15169TIP3   OH266921   1.161   0.987  16.385  0.0290 -0.0664 -0.6904
15169TIP3    H166922   1.150   1.080  16.402 -0.1291 -0.1051 -0.5825
15169TIP3    H266923   1.124   0.974  16.297 -1.3945 -0.3138 -0.0704
15170TIP3   OH266924   6.746   5.101   1.432 -0.2553 -0.1405 -0.1138
15170TIP3    H166925   6.656   5.071   1.441  0.3486 -1.9585  0.2466
15170TIP3    H266926   6.799   5.029   1.465  1.3564  0.7531 -0.6300
15171TIP3   OH266927   2.901   4.690   5.691  0.1454 -0.4253 -0.0168
15171TIP3    H166928   2.873   4.743   5.765  1.7854  1.0810 -0.4286
15171TIP3    H266929   2.954   4.620   5.730 -0.5379 -0.7324  0.3754
15172TIP3   OH266930   5.379   0.358   3.355  0.7547 -0.0948  0.2259
15172TIP3    H166931   5.383   0.367   3.450  3.1282 -1.8766  0.3805
15172TIP3    H266932   5.454   0.408   3.323  0.7727 -0.6224 -0.5947
15173TIP3   OH266933   3.584   3.580   2.692  0.2116 -0.0684  0.4622
15173TIP3    H166934   3.615   3.561   2.781 -0.9927  2.1820  1.4351
15173TIP3    H266935   3.491   3.561   2.694  0.5081 -1.9807 -0.9909
15174TIP3   OH266936   1.979   1.821  16.456  0.0474  0.0251 -0.0271
15174TIP3    H166937   1.901   1.802  16.508 -0.3893  1.8417  0.0569
15174TIP3    H266938   1.948   1.823  16.365  0.1747 -0.0568 -0.0740
15175TIP3   OH266939   1.919   4.155  16.870  0.4871 -0.2879 -0.2068
15175TIP3    H166940   1.880   4.152  16.783 -1.1469 -0.2625  0.4930
15175TIP3    H266941   1.866   4.218  16.918  1.4774 -0.1649  0.7659
15176TIP3   OH266942   5.287   2.716   3.622  0.3058 -0.1900 -0.6957
15176TIP3    H166943   5.192   2.704   3.611  0.5917 -1.9376 -1.6578
15176TIP3    H266944   5.316   2.637   3.669  1.3581  0.0400 -0.9324
15177TIP3   OH266945   4.368   3.762  15.415 -0.3456  0.4447  0.0005
15177TIP3    H166946   4.390   3.855  15.418  0.1460  0.3699 -0.9934
15177TIP3    H266947   4.426   3.725  15.348 -1.3879 -0.3389 -0.5074
15178TIP3   OH266948   2.085   2.051   0.416  0.3949  0.1292 -0.0219
15178TIP3    H166949   2.072   2.118   0.348  0.1080  0.8061  0.6865
15178TIP3    H266950   2.028   1.979   0.389  0.4445  0.3000 -0.6119
15179TIP3   OH266951   6.339   5.419  10.488  0.7080  0.1482 -0.0198
15179TIP3    H166952   6.312   5.470  10.565  1.6266 -0.1832  0.5419
15179TIP3    H266953   6.392   5.481  10.437  0.8328  0.1117  0.0640
15180TIP3   OH266954   5.553   5.147  16.146  0.1180  0.2067  0.5295
15180TIP3    H166955   5.572   5.216  16.083 -1.9191  0.6183  0.3062
15180TIP3    H266956   5.592   5.177  16.228 -0.5218  1.5037  0.3730
15181TIP3   OH266957   2.974   2.288  14.891  0.4194  0.4572 -0.0374
15181TIP3    H166958   2.885   2.304  14.859  0.8648  2.5306 -0.3992
15181TIP3    H266959   2.962   2.250  14.978 -0.8240  0.0902 -0.3574
15182TIP3   OH266960   2.152   2.725   0.342 -0.1727 -0.1383  0.1347
15182TIP3    H166961   2.103   2.712   0.422  0.9287  1.2610  1.0896
15182TIP3    H266962   2.173   2.637   0.311 -0.6600 -0.6934  1.3578
15183TIP3   OH266963   1.198   1.124   0.874  0.1211  0.3591  0.0034
15183TIP3    H166964   1.289   1.156   0.872 -0.0426  0.7810 -1.7534
15183TIP3    H266965   1.183   1.104   0.967  1.0215  3.1137  0.8341
15184TIP3   OH266966   5.311   3.678   2.276  0.0193  0.1233 -0.2089
15184TIP3    H166967   5.280   3.626   2.350  1.1187 -0.5092 -0.1767
15184TIP3    H266968   5.366   3.618   2.226  1.3182  1.2322 -0.1705
15185TIP3   OH266969   1.600   1.089   2.417  0.7477  0.4770 -0.6971
15185TIP3    H166970   1.641   1.003   2.404  0.5552  0.4856 -1.4420
15185TIP3    H266971   1.514   1.069   2.455  1.9660  0.5355  2.3853
15186TIP3   OH266972   0.366   6.200  12.120 -0.0965 -0.0739  0.4893
15186TIP3    H166973   0.444   6.162  12.161 -0.9431 -0.5873  1.6906
15186TIP3    H266974   0.299   6.199  12.189 -0.6809  1.9944  0.0528
15187TIP3   OH266975   2.708   6.444  16.274  0.2195  0.4980  0.1147
15187TIP3    H166976   2.738   6.409  16.358  0.5838 -1.5313 -0.8043
15187TIP3    H266977   2.751   6.529  16.266  1.2796  0.1035  1.3368
15188TIP3   OH266978   1.495   1.332   5.719  0.0524  0.1160 -0.2563
15188TIP3    H166979   1.403   1.343   5.697  0.4555  2.3654 -1.0131
15188TIP3    H266980   1.504   1.375   5.804  0.6137  0.9306 -0.7198
15189TIP3   OH266981   0.742   1.358  14.637  0.4561  0.1437 -0.7859
15189TIP3    H166982   0.661   1.379  14.591  1.0085  0.6881 -1.5307
15189TIP3    H266983   0.716   1.354  14.729 -0.1652  1.6829 -0.8636
15190TIP3   OH266984   3.528   2.531  16.151 -0.2074  0.0564 -0.4901
15190TIP3    H166985   3.608   2.544  16.101 -0.5738  2.2239 -0.5803
15190TIP3    H266986   3.526   2.437  16.168  1.3886 -0.3160 -2.0692
15191TIP3   OH266987   6.373   6.063  17.025  0.2738  0.4408 -0.2270
15191TIP3    H166988   6.373   5.970  17.051 -0.1079 -0.2073 -2.3995
15191TIP3    H266989   6.452   6.098  17.066 -0.6693 -0.2596  2.4135
15192TIP3   OH266990   6.715   5.365  12.927  0.9477 -0.2746  0.4906
15192TIP3    H166991   6.800   5.320  12.928  1.0249 -0.2624 -1.2876
15192TIP3    H266992   6.660   5.312  12.869  0.6015  1.1296 -0.5334
15193TIP3   OH266993   6.014   2.460   3.737  0.1465  0.3176  0.3623
15193TIP3    H166994   6.110   2.464   3.738  0.4194 -3.0483  0.4136
15193TIP3    H266995   5.986   2.521   3.804  2.1900  1.9801 -0.2053
15194TIP3   OH266996   3.924   2.677  14.710  1.1017 -0.3486 -0.1033
15194TIP3    H166997   3.946   2.698  14.801 -0.1828 -0.6676  0.3077
15194TIP3    H266998   3.898   2.760  14.672  2.4276 -0.0653 -0.4389
15195TIP3   OH266999   4.098   2.525   3.497 -0.7468  1.3821  0.1918
15195TIP3    H167000   4.010   2.529   3.461  0.1344  1.0628 -2.1487
15195TIP3    H267001   4.156   2.521   3.421  1.3477  2.1460  1.6296
15196TIP3   OH267002   2.021   2.026  14.575 -0.5259 -0.0865 -0.4113
15196TIP3    H167003   2.082   2.040  14.647  0.5130 -0.1627 -1.2400
15196TIP3    H267004   1.946   1.984  14.615  0.6044 -1.4138  0.4177
15197TIP3   OH267005   3.185   2.401   5.910 -0.3842  0.2635  0.2754
15197TIP3    H167006   3.185   2.356   5.994  0.5883 -1.2481 -0.4926
15197TIP3    H267007   3.242   2.477   5.923 -1.8700  1.2232  1.5284
15198TIP3   OH267008   6.802   3.111  13.912  0.0628 -0.5572 -0.1959
15198TIP3    H167009   6.843   3.190  13.947  0.6401  0.3531 -2.6770
15198TIP3    H267010   6.726   3.096  13.968 -0.7078  2.4136 -0.2655
15199TIP3   OH267011   0.016   1.524   5.140 -0.5075 -0.1313  0.7010
15199TIP3    H167012  -0.006   1.581   5.214 -0.9939  0.9701 -0.2551
15199TIP3    H267013   0.111   1.515   5.144 -0.5491 -0.2792  1.5893
15200TIP3   OH267014   0.831   2.907   3.137  0.2963 -0.3690 -0.4568
15200TIP3    H167015   0.890   2.949   3.199 -0.6827  1.1678 -0.5014
15200TIP3    H267016   0.778   2.848   3.191 -0.3539  0.7428  0.1613
15201TIP3   OH267017   6.139   4.627  13.418  0.7762 -0.1550  0.4013
15201TIP3    H167018   6.174   4.583  13.496  1.0236  0.5237  0.6787
15201TIP3    H267019   6.201   4.604  13.349  1.1076  0.0459  0.6271
15202TIP3   OH267020   6.811   2.720  14.018  0.2399  0.0555 -0.1398
15202TIP3    H167021   6.888   2.704  13.964 -1.3135 -2.3971 -1.7875
15202TIP3    H267022   6.801   2.641  14.071 -2.1128 -0.4958 -1.2855
15203TIP3   OH267023   2.570   1.112   0.526  0.4054  0.0779  0.7195
15203TIP3    H167024   2.603   1.164   0.599 -0.7028 -0.1867  1.4286
15203TIP3    H267025   2.614   1.028   0.535  0.1483 -0.0078  1.1783
15204TIP3   OH267026   0.399   1.721  15.341  0.6180 -0.0000  0.3325
15204TIP3    H167027   0.354   1.645  15.302 -0.4801 -0.1342  1.7827
15204TIP3    H267028   0.335   1.792  15.336 -0.0445 -0.3137  2.8562
15205TIP3   OH267029   2.795   2.346  16.621  0.9838  0.2900 -0.2866
15205TIP3    H167030   2.729   2.294  16.667  1.3626 -1.6136 -1.7412
15205TIP3    H267031   2.752   2.430  16.605 -0.9827 -0.7489 -0.8528
15206TIP3   OH267032   3.085   4.404   6.142  0.1952 -0.2659 -0.3632
15206TIP3    H167033   3.107   4.317   6.176 -1.8313 -0.8949 -0.5829
15206TIP3    H267034   3.147   4.462   6.186  1.1939 -1.7260  0.2571
15207TIP3   OH267035   1.306   3.891   2.821  0.6233 -0.1893  0.3321
15207TIP3    H167036   1.271   3.974   2.854 -1.4557 -0.2616 -1.4194
15207TIP3    H267037   1.401   3.903   2.821  0.3657  3.0034 -1.7248
15208TIP3   OH267038   6.731   1.517   6.069 -0.1539 -0.5073  0.4566
15208TIP3    H167039   6.799   1.565   6.118 -0.2779  0.6853 -0.4873
15208TIP3    H267040   6.730   1.430   6.109  0.4974  0.0838  1.8562
15209TIP3   OH267041   5.710   2.115  12.859  0.3102 -0.0874  0.5740
15209TIP3    H167042   5.712   2.020  12.850 -0.5202 -0.0112 -0.7708
15209TIP3    H267043   5.671   2.146  12.777  1.6367  1.4865  0.4716
15210TIP3   OH267044   1.944   0.188   0.195  0.3539 -0.7733 -0.0458
15210TIP3    H167045   1.994   0.239   0.258  0.5364 -1.9945  0.8326
15210TIP3    H267046   1.852   0.206   0.217  0.4044 -0.2348 -0.2527
15211TIP3   OH267047   4.172   1.301  15.424  0.2716 -0.0990  0.0313
15211TIP3    H167048   4.199   1.294  15.333 -1.1118 -1.5723 -0.3252
15211TIP3    H267049   4.109   1.373  15.425 -0.0836 -0.3978 -0.2958
15212TIP3   OH267050   1.965   3.090  16.795  0.0967 -0.2099 -0.1512
15212TIP3    H167051   1.924   3.138  16.723 -0.4353  0.1399  0.3804
15212TIP3    H267052   1.922   3.123  16.874  1.2792  0.0439  0.4073
15213TIP3   OH267053   3.560   6.168   3.267 -0.1279  0.1523  0.0595
15213TIP3    H167054   3.566   6.207   3.180 -1.8746  0.4698  0.0571
15213TIP3    H267055   3.587   6.077   3.254 -0.7089  0.1021 -0.8854
15214TIP3   OH267056   5.912   6.432  11.986 -0.0254 -0.5182  0.3073
15214TIP3    H167057   5.817   6.424  11.988  0.0353 -1.9093 -1.3172
15214TIP3    H267058   5.936   6.426  11.894  1.7080 -0.9760  0.7445
15215TIP3   OH267059   0.521   4.005   3.478  0.6304 -0.0049 -0.3834
15215TIP3    H167060   0.581   3.937   3.507  1.7868  0.4079 -1.6840
15215TIP3    H267061   0.509   3.988   3.384 -1.0047  0.1558 -0.2403
15216TIP3   OH267062   1.451   2.613  14.966  0.2658 -0.2273 -0.0908
15216TIP3    H167063   1.459   2.705  14.938  0.4568 -0.0293  0.6081
15216TIP3    H267064   1.364   2.606  15.004 -0.1008 -0.5683 -0.9570
15217TIP3   OH267065   3.613   5.333  16.985  0.5082 -0.3082 -0.0913
15217TIP3    H167066   3.653   5.273  16.922  2.3431  1.6786 -0.9506
15217TIP3    H267067   3.526   5.351  16.949  1.1122 -0.0736 -1.5035
15218TIP3   OH267068   4.774   2.647  12.493 -0.1088 -0.2041 -0.0578
15218TIP3    H167069   4.710   2.646  12.564 -1.0885  0.4515 -0.9026
15218TIP3    H267070   4.773   2.557  12.459  0.9429 -0.7328  1.2250
15219TIP3   OH267071   5.855   5.075   3.678 -0.3318 -0.4172  0.0878
15219TIP3    H167072   5.916   5.148   3.691  0.0186 -0.4070 -1.4977
15219TIP3    H267073   5.772   5.118   3.655 -0.2395 -0.5080 -0.4121
15220TIP3   OH267074   0.394   6.343  14.747  0.5858  0.4476 -1.0140
15220TIP3    H167075   0.383   6.259  14.703 -0.1889  0.5588 -1.0388
15220TIP3    H267076   0.363   6.328  14.836 -1.6997  1.2684 -1.6124
15221TIP3   OH267077   5.480   0.486  14.445 -0.0266 -0.0559  0.3458
15221TIP3    H167078   5.439   0.475  14.530 -0.7557  1.2046  0.1913
15221TIP3    H267079   5.574   0.480  14.462 -0.2012 -0.7891  1.0706
15222TIP3   OH267080   6.264   6.477  16.974 -0.1152 -0.1184 -0.5215
15222TIP3    H167081   6.261   6.499  16.881  0.1769  1.6739 -0.1376
15222TIP3    H267082   6.176   6.446  16.994 -1.0845  2.3049 -0.7781
15223TIP3   OH267083   2.878   0.733   3.539 -0.8303  0.5593  0.4172
15223TIP3    H167084   2.946   0.730   3.607  0.2195 -0.3917 -0.6329
15223TIP3    H267085   2.824   0.808   3.563 -1.1918 -0.4126  2.9465
15224TIP3   OH267086   0.121   1.633  14.411  0.0288 -0.5465 -0.3130
15224TIP3    H167087   0.134   1.621  14.505  1.8888  0.2273 -0.4281
15224TIP3    H267088   0.029   1.657  14.403  0.1792  0.8775  1.4878
15225TIP3   OH267089   0.322   0.520   3.628 -0.0563  0.3744  0.0854
15225TIP3    H167090   0.302   0.437   3.586 -1.8083  1.4631 -1.3673
15225TIP3    H267091   0.415   0.513   3.651  0.6666 -0.8711 -2.7201
15226TIP3   OH267092   0.431   6.107  13.101 -0.2633 -0.1509  0.1238
15226TIP3    H167093   0.371   6.149  13.039  1.7399  1.3409 -0.9282
15226TIP3    H267094   0.493   6.176  13.123  1.8481 -1.9618  0.1238
15227TIP3   OH267095   6.330   2.348  11.649 -0.9609  0.1833 -0.0129
15227TIP3    H167096   6.403   2.292  11.677 -0.0412  0.5122 -1.6285
15227TIP3    H267097   6.254   2.290  11.653 -0.2495 -0.8177 -0.3676
15228TIP3   OH267098   5.877   5.625  16.238 -0.1534  0.2785  0.1830
15228TIP3    H167099   5.875   5.700  16.298  0.8875  0.9438 -0.5845
15228TIP3    H267100   5.887   5.664  16.151  1.1991 -0.7659 -0.1684
15229TIP3   OH267101   6.399   4.348  12.734  0.1865  0.4291 -0.2164
15229TIP3    H167102   6.377   4.313  12.821  0.5480  0.0921 -0.2581
15229TIP3    H267103   6.359   4.435  12.733 -0.5716  0.0934 -0.0391
15230TIP3   OH267104   6.172   6.191  14.152  0.2574 -0.3432 -0.1231
15230TIP3    H167105   6.205   6.146  14.075  0.6707 -0.6174  0.2036
15230TIP3    H267106   6.081   6.162  14.161  0.3579 -0.6949 -0.2276
15231TIP3   OH267107   5.192   4.209  15.255 -0.2703  0.0036  0.2536
15231TIP3    H167108   5.177   4.282  15.316 -0.6838 -0.3765  0.6134
15231TIP3    H267109   5.190   4.131  15.310  2.6464 -0.1580  0.3045
15232TIP3   OH267110   1.372   3.746  13.537  0.4295  0.2549 -0.8546
15232TIP3    H167111   1.367   3.736  13.633  1.5596  2.2987 -0.5399
15232TIP3    H267112   1.290   3.788  13.513 -0.6450 -1.8106 -1.0908
15233TIP3   OH267113   3.798   5.398  13.016 -0.1505  0.7077 -0.1007
15233TIP3    H167114   3.776   5.491  13.020 -0.2870  0.6596  0.3522
15233TIP3    H267115   3.717   5.353  13.042  0.0563  0.4816  0.1610
15234TIP3   OH267116   4.071   3.326   2.900  0.2591  0.0886  0.0902
15234TIP3    H167117   4.044   3.418   2.901 -0.6140 -0.1595  0.5733
15234TIP3    H267118   4.120   3.315   2.982 -0.5800 -0.1272  0.5820
15235TIP3   OH267119   2.475   6.449   0.279 -0.2360  0.5840 -0.3080
15235TIP3    H167120   2.516   6.513   0.337  0.5104  0.5285 -0.7679
15235TIP3    H267121   2.381   6.461   0.293 -0.0912  1.4673 -0.0505
15236TIP3   OH267122   2.101   0.394   4.806 -0.0614 -0.3368  0.5548
15236TIP3    H167123   2.193   0.408   4.829 -0.0098 -1.1084  0.8534
15236TIP3    H267124   2.053   0.448   4.868  0.2024  0.6245 -0.0529
15237TIP3   OH267125   4.135   5.567   5.851 -0.3792  0.1542  0.3041
15237TIP3    H167126   4.180   5.507   5.911 -0.9838 -2.3806 -1.6426
15237TIP3    H267127   4.194   5.642   5.845  1.6036 -1.2649  0.9954
15238TIP3   OH267128   3.134   1.049  10.782  0.1215 -0.0969 -0.1779
15238TIP3    H167129   3.227   1.032  10.799  0.0242 -1.5874 -0.8714
15238TIP3    H267130   3.128   1.048  10.686 -0.5772  0.1428 -0.1362
15239TIP3   OH267131   5.350   4.186   0.374 -0.2228  0.6143 -0.4085
15239TIP3    H167132   5.389   4.272   0.389  0.7051  0.0561  0.5630
15239TIP3    H267133   5.337   4.150   0.462 -0.0614 -0.4659 -0.8113
15240TIP3   OH267134   6.062   6.530   3.312 -0.8187  0.1425 -0.0150
15240TIP3    H167135   6.016   6.448   3.296 -3.4819  1.0368  2.3476
15240TIP3    H267136   6.112   6.514   3.392  2.3297 -0.4532 -1.9390
15241TIP3   OH267137   1.161   0.394  15.870  0.1485  0.3762  0.4649
15241TIP3    H167138   1.066   0.402  15.878  0.0231 -0.5011  0.0650
15241TIP3    H267139   1.191   0.369  15.957 -0.0964 -0.1126  0.4167
15242TIP3   OH267140   4.913   5.746  16.253  0.4459 -0.3113  0.1720
15242TIP3    H167141   4.832   5.711  16.290  0.4663 -1.3263 -0.6843
15242TIP3    H267142   4.970   5.670  16.243  1.3124  0.3096  0.2656
15243TIP3   OH267143   2.822   0.852  11.164 -0.0515  0.4001  0.0399
15243TIP3    H167144   2.881   0.840  11.090 -0.2877  1.7990 -0.4099
15243TIP3    H267145   2.881   0.866  11.239  0.1872  0.3487 -0.1359
15244TIP3   OH267146   1.241   0.618  15.608 -0.1465  0.0399  0.4842
15244TIP3    H167147   1.149   0.617  15.634 -0.5412 -0.0603 -0.8680
15244TIP3    H267148   1.239   0.610  15.513  1.3089 -1.4305  0.5392
15245TIP3   OH267149   4.048   5.589   0.613  0.3210 -0.0459 -0.8426
15245TIP3    H167150   4.076   5.521   0.674  0.1184  1.2931  0.8350
15245TIP3    H267151   4.114   5.590   0.544  0.9779 -1.0986 -0.2418
15246TIP3   OH267152   6.686   1.021  17.043 -0.3778  0.4640 -0.1911
15246TIP3    H167153   6.711   0.930  17.027  1.3501  0.9068 -0.1840
15246TIP3    H267154   6.765   1.062  17.077 -1.1302  1.9838 -0.1939
15247TIP3   OH267155   0.455   1.945   1.253  0.0288 -0.2557 -0.8296
15247TIP3    H167156   0.506   2.024   1.269  0.1106 -0.0436 -2.0288
15247TIP3    H267157   0.371   1.962   1.297  0.7955 -0.4321  0.7743
15248TIP3   OH267158   2.217   4.600   1.184  0.1195 -0.4797  0.2128
15248TIP3    H167159   2.290   4.539   1.199 -0.3631 -1.2095 -0.3207
15248TIP3    H267160   2.159   4.552   1.125 -0.3164  0.4813 -0.1409
15249TIP3   OH267161   5.410   6.529  10.657 -0.3127 -0.5790 -0.1568
15249TIP3    H167162   5.324   6.492  10.676 -0.7984  1.4811  2.1116
15249TIP3    H267163   5.470   6.481  10.715 -0.7514  1.1623  1.8507
15250TIP3   OH267164   1.545   4.126  16.400 -0.3751  0.0687 -0.3094
15250TIP3    H167165   1.588   4.180  16.467  0.5946  0.1089 -0.9346
15250TIP3    H267166   1.517   4.048  16.447  0.9750 -0.2461  0.0209
15251TIP3   OH267167   0.819   0.345   1.180 -0.0613  0.0595 -0.4018
15251TIP3    H167168   0.770   0.423   1.155 -1.0103 -0.9441 -1.7996
15251TIP3    H267169   0.911   0.371   1.171 -0.3620  0.7498 -1.7683
15252TIP3   OH267170   0.074   3.982   0.751  0.4180 -0.3261  0.5199
15252TIP3    H167171   0.042   3.910   0.805 -0.4620  0.4242  1.0170
15252TIP3    H267172   0.062   3.952   0.661  0.7919 -1.1042  0.7171
15253TIP3   OH267173   4.209   2.219   2.924  0.0160 -0.4903  0.1632
15253TIP3    H167174   4.158   2.260   2.994  1.3776 -2.1173  2.2360
15253TIP3    H267175   4.259   2.291   2.886 -0.3010  0.3436  1.2706
15254TIP3   OH267176   5.602   2.038   2.307 -0.0762  0.2809  0.5305
15254TIP3    H167177   5.613   2.131   2.328  0.0550  0.0131  1.6788
15254TIP3    H267178   5.665   2.022   2.237 -1.1729  1.4138 -0.7759
15255TIP3   OH267179   4.558   0.646  12.338 -0.0904  0.6501 -0.6501
15255TIP3    H167180   4.531   0.640  12.430  1.7795 -0.3215 -0.1012
15255TIP3    H267181   4.609   0.726  12.333 -0.0926  0.6415 -0.8013
15256TIP3   OH267182   5.889   4.684  16.679  0.0178 -0.1633 -0.7305
15256TIP3    H167183   5.881   4.689  16.775  1.3838  0.2242 -0.6084
15256TIP3    H267184   5.981   4.702  16.662 -0.3229  0.4068 -2.1702
15257TIP3   OH267185   1.148   5.668  16.435 -0.2270  0.1275  0.0834
15257TIP3    H167186   1.177   5.577  16.446 -0.5745 -0.0845 -0.6564
15257TIP3    H267187   1.055   5.661  16.413 -0.0518  0.6049 -0.8657
15258TIP3   OH267188   0.514   6.701  15.918  0.8782 -0.2216 -0.3225
15258TIP3    H167189   0.442   6.757  15.887  0.2823 -0.1934  1.0312
15258TIP3    H267190   0.593   6.741  15.881  0.4365  1.3393  0.3139
15259TIP3   OH267191   4.714   3.691  13.689 -0.4153  0.2515  0.8482
15259TIP3    H167192   4.735   3.697  13.783 -0.9456 -0.0726  0.9929
15259TIP3    H267193   4.619   3.703  13.685 -0.2194  1.7078  0.2041
15260TIP3   OH267194   6.409   4.099   0.002 -0.2955 -0.0951 -0.4955
15260TIP3    H167195   6.502   4.079   0.015 -0.1691  0.5972 -0.2733
15260TIP3    H267196   6.368   4.077   0.085 -0.4268 -0.9340 -0.7797
15261TIP3   OH267197   1.051   4.972  13.171  0.4443  0.1836  0.1929
15261TIP3    H167198   1.057   5.024  13.252 -0.7634  2.0509 -0.8523
15261TIP3    H267199   1.018   5.033  13.106  3.0971 -0.7598 -2.2341
15262TIP3   OH267200   4.292   1.171   0.212 -0.2318 -0.6942 -0.6290
15262TIP3    H167201   4.306   1.080   0.185 -0.1089 -0.2207 -2.2543
15262TIP3    H267202   4.377   1.213   0.200 -0.5939 -0.0760 -1.1623
15263TIP3   OH267203   2.810   2.671   0.041 -0.2822 -0.6642 -0.1027
15263TIP3    H167204   2.864   2.749   0.055 -0.5916 -0.5658  0.5909
15263TIP3    H267205   2.848   2.604   0.097 -1.9275 -0.0752  1.8312
15264TIP3   OH267206   5.264   0.421  11.418  0.2956  0.1550 -0.4428
15264TIP3    H167207   5.206   0.449  11.347 -0.4100 -0.5237 -0.1579
15264TIP3    H267208   5.208   0.423  11.496  0.4595 -1.1287 -0.2690
15265TIP3   OH267209   2.262   2.233  15.273 -0.1041 -0.4342 -0.6074
15265TIP3    H167210   2.178   2.275  15.253  0.1843 -0.3903 -1.7825
15265TIP3    H267211   2.250   2.141  15.250 -0.1476 -0.6388  0.2060
15266TIP3   OH267212   6.564   3.115   4.664  0.4549 -0.8129 -0.6219
15266TIP3    H167213   6.610   3.034   4.641  2.3621  0.3173 -1.0535
15266TIP3    H267214   6.633   3.182   4.664 -1.3654  1.1790 -2.1307
15267TIP3   OH267215   1.312   5.506  12.183  0.3114 -0.0083 -0.5197
15267TIP3    H167216   1.345   5.538  12.098 -0.5072 -2.4468 -1.8510
15267TIP3    H267217   1.219   5.488  12.167  0.6235 -2.5894  0.2035
15268TIP3   OH267218   3.411   4.420   5.036 -0.2721 -0.5662 -0.2864
15268TIP3    H167219   3.480   4.362   5.003  0.2552 -0.9183  1.3296
15268TIP3    H267220   3.457   4.502   5.054 -1.0136  0.4210 -2.5622
15269TIP3   OH267221   4.118   2.012   4.541 -0.0787  0.3250  0.0643
15269TIP3    H167222   4.176   2.076   4.501  2.4795 -2.3914 -0.9520
15269TIP3    H267223   4.110   1.942   4.476 -0.4712 -1.6420  2.1019
15270TIP3   OH267224   1.814   5.018  12.174  0.0244 -0.1123  0.4895
15270TIP3    H167225   1.900   5.004  12.214  0.1088 -1.6823 -0.1537
15270TIP3    H267226   1.799   5.112  12.180  0.7299 -0.0776  2.7603
15271TIP3   OH267227   4.069   6.079  16.036  0.5645  0.0866 -0.2918
15271TIP3    H167228   4.050   6.079  15.942 -0.9109  0.1767 -0.0269
15271TIP3    H267229   4.163   6.091  16.042  0.7812 -0.6375 -1.7814
15272TIP3   OH267230   2.078   1.792   4.129 -0.2714 -0.5812  0.2449
15272TIP3    H167231   2.111   1.866   4.179 -0.1651 -1.2324  1.1565
15272TIP3    H267232   2.155   1.738   4.112  0.2483  0.9663 -3.0747
15273TIP3   OH267233   1.749   6.593   1.226 -0.0834 -0.5146  0.6900
15273TIP3    H167234   1.833   6.612   1.185 -2.0111  2.4888 -2.3687
15273TIP3    H267235   1.764   6.605   1.319  2.5159  1.5697  0.1059
15274TIP3   OH267236   5.180   6.399   5.636 -0.4409 -0.2157  0.3534
15274TIP3    H167237   5.215   6.473   5.588  0.1244 -1.3463 -1.0538
15274TIP3    H267238   5.172   6.329   5.571 -0.1572 -1.6530  1.7763
15275TIP3   OH267239   1.708   6.309  13.783 -0.0958 -0.6624  0.5341
15275TIP3    H167240   1.799   6.332  13.766 -0.8457  2.1480 -0.1712
15275TIP3    H267241   1.670   6.294  13.696 -0.8121  0.5526  0.6064
15276TIP3   OH267242   5.809   4.225   4.615 -0.0836 -0.5573  0.4179
15276TIP3    H167243   5.804   4.320   4.612  1.2829 -0.4624  0.3083
15276TIP3    H267244   5.870   4.206   4.687  0.7202 -1.2864 -0.4282
15277TIP3   OH267245   3.936   0.911  13.416  0.4908 -0.3349 -0.4790
15277TIP3    H167246   3.995   0.972  13.459  1.8621 -1.6870 -0.3342
15277TIP3    H267247   3.973   0.825  13.435 -0.7650 -1.1544 -1.5661
15278TIP3   OH267248   1.287   6.129   4.098 -0.1555  0.0411  0.1499
15278TIP3    H167249   1.288   6.057   4.035 -1.3644  0.5100 -0.4370
15278TIP3    H267250   1.377   6.135   4.129 -0.4003 -3.2848  2.0381
15279TIP3   OH267251   6.421   6.348  14.063 -0.3155 -0.3522 -0.5912
15279TIP3    H167252   6.342   6.368  14.113 -1.5374 -3.0190 -1.2591
15279TIP3    H267253   6.438   6.255  14.081  2.2258 -0.0599 -1.1148
15280TIP3   OH267254   1.206   2.158   5.842  0.4981 -0.1858  0.0916
15280TIP3    H167255   1.162   2.239   5.819 -0.4200 -0.5458  0.4948
15280TIP3    H267256   1.272   2.145   5.774  0.9429  1.0951  0.2499
15281TIP3   OH267257   0.773   5.084  16.845  0.7758 -0.9183  0.2429
15281TIP3    H167258   0.743   5.074  16.935  1.9114 -0.5108  0.6840
15281TIP3    H267259   0.790   4.995  16.815 -1.6112 -1.2549 -0.3222
15282TIP3   OH267260   5.291   0.286   5.666 -0.1723  0.2476 -0.5323
15282TIP3    H167261   5.238   0.354   5.706  0.6929  0.5670  0.0994
15282TIP3    H267262   5.230   0.213   5.651 -1.2457  1.3329 -1.7385
15283TIP3   OH267263   6.569   5.913  13.899  0.2473  0.2909 -0.2123
15283TIP3    H167264   6.662   5.918  13.877 -0.1801  2.1745 -1.8656
15283TIP3    H267265   6.552   5.819  13.908  2.2009 -0.1215 -0.3284
15284TIP3   OH267266   1.075   5.597   3.654  0.0504  0.1656 -0.2075
15284TIP3    H167267   0.999   5.539   3.659 -0.0103  0.1751 -0.9829
15284TIP3    H267268   1.150   5.538   3.664  0.0606 -0.3201 -2.5732
15285TIP3   OH267269   0.750   5.896   0.710  0.2198  0.0238  0.0778
15285TIP3    H167270   0.681   5.859   0.654  0.9590 -1.3201  0.0097
15285TIP3    H267271   0.831   5.881   0.662  0.8956 -1.3288  1.5522
15286TIP3   OH267272   4.123   0.950   5.191 -0.0226 -0.4634 -0.6666
15286TIP3    H167273   4.045   0.914   5.148 -0.3828 -0.6646  0.1199
15286TIP3    H267274   4.175   0.988   5.121 -0.5981 -0.7737 -1.2659
15287TIP3   OH267275   0.115   4.545  13.279 -0.0035  0.2527 -0.3361
15287TIP3    H167276   0.199   4.576  13.246  1.8132 -3.2991  0.3781
15287TIP3    H267277   0.063   4.528  13.201 -0.7758  3.8384 -0.7569
15288TIP3   OH267278   1.436   5.870  11.859  0.0210  0.0751  0.1181
15288TIP3    H167279   1.401   5.927  11.790  0.8354 -0.2090 -0.5485
15288TIP3    H267280   1.417   5.915  11.941 -0.4398  0.7022 -0.3284
15289TIP3   OH267281   0.811   1.925  11.808  0.3298 -0.0015  0.8974
15289TIP3    H167282   0.734   1.868  11.810 -0.2483  0.7617  0.7309
15289TIP3    H267283   0.870   1.884  11.745  0.7048 -1.3871  2.0906
15290TIP3   OH267284   4.626   3.441   2.793 -0.0622 -0.4126 -0.1083
15290TIP3    H167285   4.640   3.361   2.844  1.7269  0.6257  1.1279
15290TIP3    H267286   4.628   3.412   2.701  0.4386 -1.7963  0.3218
15291TIP3   OH267287   6.008   1.556   2.699  0.1899 -0.1989  0.0012
15291TIP3    H167288   6.098   1.543   2.669 -0.5547 -1.9483 -1.7148
15291TIP3    H267289   5.962   1.593   2.624 -0.5269  0.7683  0.8862
15292TIP3   OH267290   0.008   0.053   3.168 -0.6289 -0.4535 -0.7016
15292TIP3    H167291   0.061   0.072   3.091  1.0783  2.8067  1.0447
15292TIP3    H267292   0.066   0.001   3.224 -0.7153 -0.2237 -0.3965
15293TIP3   OH267293   2.809   6.756  10.650 -0.4584 -0.6734  0.6813
15293TIP3    H167294   2.831   6.693  10.719 -1.7291 -1.3231  0.5287
15293TIP3    H267295   2.890   6.805  10.636  0.3667 -1.7871  1.3197
15294TIP3   OH267296   3.285   3.676  14.460 -0.6324  0.1053  0.3921
15294TIP3    H167297   3.267   3.658  14.552 -1.0552  2.1732  0.7706
15294TIP3    H267298   3.215   3.630  14.413 -0.5318 -0.7948  1.0955
15295TIP3   OH267299   4.950   3.090   4.460 -0.1656 -0.3185  0.7889
15295TIP3    H167300   4.924   3.170   4.414 -1.2204 -0.3152  1.3591
15295TIP3    H267301   4.874   3.033   4.452  1.2649 -2.0898 -1.3554
15296TIP3   OH267302   2.409   2.439  12.963 -0.5052 -0.2169 -0.3873
15296TIP3    H167303   2.429   2.532  12.950 -1.8966  0.1295 -0.1558
15296TIP3    H267304   2.326   2.425  12.918 -0.1268 -1.4695 -0.7688
15297TIP3   OH267305   1.100   2.794   1.870  0.2258 -0.0999 -0.3717
15297TIP3    H167306   1.172   2.772   1.810  1.2973 -1.0128  1.1796
15297TIP3    H267307   1.021   2.778   1.819  0.9777 -4.1700 -0.5720
15298TIP3   OH267308   5.755   5.614  14.456  0.4554  0.3420 -0.3159
15298TIP3    H167309   5.775   5.601  14.363 -0.4204  0.7182 -0.5668
15298TIP3    H267310   5.757   5.709  14.468  0.0497  0.3214 -0.0744
15299TIP3   OH267311   1.014   4.719  11.662 -0.1815  0.1426  0.4161
15299TIP3    H167312   0.922   4.746  11.663 -0.4959 -0.8683  1.0384
15299TIP3    H267313   1.052   4.762  11.585 -1.6908 -1.0537 -1.0690
15300TIP3   OH267314   3.993   3.203  14.837  0.1606  0.0283 -0.2885
15300TIP3    H167315   3.907   3.229  14.872  0.9700  1.2566  0.9284
15300TIP3    H267316   4.033   3.286  14.810  1.0724 -0.4915 -0.5553
15301TIP3   OH267317   5.712   1.057  12.451 -0.0044  0.4108  0.8134
15301TIP3    H167318   5.678   1.133  12.500  2.1715  2.0284 -0.0372
15301TIP3    H267319   5.799   1.042  12.488  0.7887  0.2409 -1.0282
15302TIP3   OH267320   5.119   3.302   2.417 -0.0081  0.2930  0.6778
15302TIP3    H167321   5.154   3.269   2.334  0.9206  0.1048  1.1330
15302TIP3    H267322   5.034   3.339   2.394  0.1886  0.1386 -0.3420
15303TIP3   OH267323   3.750   5.527  16.311 -0.3148  0.2662 -0.3099
15303TIP3    H167324   3.832   5.567  16.280 -0.3125  0.4715 -0.0362
15303TIP3    H267325   3.778   5.447  16.356 -0.3338 -0.1666 -1.0422
15304TIP3   OH267326   6.094   5.639  12.709 -0.2598  0.1086  0.0177
15304TIP3    H167327   6.080   5.732  12.692  0.4575  0.3401  0.6585
15304TIP3    H267328   6.007   5.600  12.705 -0.3222  0.3023 -3.1488
15305TIP3   OH267329   5.877   3.900  16.987  0.4300 -0.1513  0.1548
15305TIP3    H167330   5.828   3.921  17.067  2.8435  1.2085  1.3993
15305TIP3    H267331   5.895   3.806  16.994 -2.9476 -1.0497 -1.0238
15306TIP3   OH267332   4.027   5.857   1.027  0.4283 -0.0447 -0.3220
15306TIP3    H167333   4.077   5.936   1.006 -0.7270  0.6441 -0.5963
15306TIP3    H267334   3.965   5.848   0.954 -1.0483  0.1731  0.8603
15307TIP3   OH267335   0.702   6.630  15.583  0.5936  0.1941  0.5628
15307TIP3    H167336   0.697   6.723  15.561  0.5909 -0.1706 -1.1446
15307TIP3    H267337   0.793   6.606  15.566  0.1738 -0.5042 -0.8788
15308TIP3   OH267338   2.841   0.520   6.277 -0.1790  0.0531  0.2379
15308TIP3    H167339   2.772   0.573   6.238  0.1851  0.9148  0.7259
15308TIP3    H267340   2.898   0.584   6.321  0.6946 -0.6789  0.1895
15309TIP3   OH267341   5.978   2.986   6.466 -0.7334 -0.7505  0.5873
15309TIP3    H167342   6.039   2.931   6.515 -0.0045 -1.5057 -1.0949
15309TIP3    H267343   5.930   2.924   6.411 -2.1120 -0.0111  0.9140
15310TIP3   OH267344   3.014   0.809  15.564 -0.4629  0.2058 -0.6091
15310TIP3    H167345   3.056   0.827  15.480  1.5427  1.6023  0.5768
15310TIP3    H267346   2.956   0.884  15.578 -0.1615  0.4066 -0.4051
15311TIP3   OH267347   6.124   1.105  14.449 -0.2601  0.4139 -0.2759
15311TIP3    H167348   6.072   1.053  14.509  0.0615  0.0055 -0.3475
15311TIP3    H267349   6.085   1.089  14.363 -1.6047  2.0784 -0.0391
15312TIP3   OH267350   1.360   5.588  11.907  0.0491  0.0553  0.4522
15312TIP3    H167351   1.357   5.681  11.929  2.4014  0.0520  1.0412
15312TIP3    H267352   1.348   5.585  11.813 -0.2413  0.9376  0.4521
15313TIP3   OH267353   3.219   4.709   0.791 -0.1521  0.4817 -0.7813
15313TIP3    H167354   3.238   4.642   0.726 -0.4425  0.2598 -0.6424
15313TIP3    H267355   3.146   4.673   0.842  1.8263 -0.6092  1.4818
15314TIP3   OH267356   3.885   6.377   2.503 -1.0321 -0.5404  0.1340
15314TIP3    H167357   3.795   6.386   2.534 -0.8243  0.5603  0.4411
15314TIP3    H267358   3.938   6.427   2.566 -0.1196 -1.6700  0.3155
15315TIP3   OH267359   5.028   3.740  13.659  0.1690  0.5445 -0.1528
15315TIP3    H167360   4.964   3.785  13.603 -0.6890 -0.4554 -0.0006
15315TIP3    H267361   4.974   3.688  13.719  1.0741  1.2089  1.2867
15316TIP3   OH267362   1.785   0.732  12.549 -0.1805  0.1101 -0.1690
15316TIP3    H167363   1.807   0.647  12.586  0.4592  0.3188 -0.0576
15316TIP3    H267364   1.837   0.738  12.469 -0.6575  0.1579 -0.4824
15317TIP3   OH267365   4.261   6.276   2.028 -0.4856 -0.2111 -0.0783
15317TIP3    H167366   4.323   6.345   2.002  0.0660 -1.0897 -1.1818
15317TIP3    H267367   4.238   6.233   1.947 -1.1891 -1.0434  0.5459
15318TIP3   OH267368   0.977   0.558   4.161  0.7108 -0.2536 -0.0366
15318TIP3    H167369   0.923   0.482   4.139  2.5352 -1.1477 -1.7035
15318TIP3    H267370   0.916   0.621   4.198 -1.1497 -1.8761 -0.1988
15319TIP3   OH267371   2.520   1.848   3.224  0.0400 -0.4541  0.2813
15319TIP3    H167372   2.604   1.859   3.268 -0.4092 -0.7103  1.2280
15319TIP3    H267373   2.540   1.792   3.149  0.6593 -0.7736  0.6713
15320TIP3   OH267374   4.275   5.459   6.078 -0.4355  0.0117 -0.1767
15320TIP3    H167375   4.347   5.523   6.072 -0.0873 -0.3648 -0.0896
15320TIP3    H267376   4.227   5.485   6.156 -0.2547  0.1291 -0.1012
15321TIP3   OH267377   4.163   2.041   1.371  0.8403  0.5931  0.1277
15321TIP3    H167378   4.132   1.957   1.336  0.8380  0.7617 -0.2755
15321TIP3    H267379   4.152   2.032   1.466  1.5091 -0.1310  0.1490
15322TIP3   OH267380   6.626   5.943  13.401 -0.6231  0.9767 -0.1097
15322TIP3    H167381   6.626   5.883  13.327  0.6635 -0.7648  1.2330
15322TIP3    H267382   6.714   5.980  13.402 -1.0338  2.0072 -0.1906
15323TIP3   OH267383   1.842   2.866   0.756  0.4706 -0.3112  0.3820
15323TIP3    H167384   1.791   2.921   0.815 -0.6941 -0.0538 -0.8059
15323TIP3    H267385   1.894   2.810   0.813  2.5771  2.7599  1.6592
15324TIP3   OH267386   4.255   1.801   2.946 -0.0729 -0.0765  0.0702
15324TIP3    H167387   4.240   1.823   3.039 -0.8490 -0.0107 -0.0666
15324TIP3    H267388   4.331   1.743   2.948 -0.3212 -0.3941  0.7850
15325TIP3   OH267389   4.489   2.230   0.936  0.4180 -0.5793 -0.0372
15325TIP3    H167390   4.511   2.246   0.845  1.4602 -0.6996  0.1778
15325TIP3    H267391   4.446   2.145   0.936  0.7556 -0.7518 -0.3761
15326TIP3   OH267392   3.105   5.948   0.178 -0.1708 -0.1731 -0.5366
15326TIP3    H167393   3.020   5.975   0.214  0.0827  0.7591 -0.6259
15326TIP3    H267394   3.085   5.921   0.088 -0.0712  2.0678 -1.2887
15327TIP3   OH267395   6.768   2.013   4.207  0.4037  0.1779  0.5667
15327TIP3    H167396   6.800   2.028   4.118  0.8367  1.7809  0.9547
15327TIP3    H267397   6.686   1.966   4.195  0.2338  0.7398 -0.7165
15328TIP3   OH267398   0.103   2.514  15.170  0.4021 -0.1870 -0.5196
15328TIP3    H167399   0.034   2.574  15.142  0.3860  1.2577  2.2077
15328TIP3    H267400   0.167   2.517  15.100 -0.6598  1.2606 -1.4974
15329TIP3   OH267401   0.245   5.674  11.285 -0.5693  0.5283  0.4199
15329TIP3    H167402   0.154   5.702  11.294 -1.0103  0.0405 -1.7405
15329TIP3    H267403   0.285   5.742  11.230 -0.1732 -0.2104 -0.2270
15330TIP3   OH267404   4.931   3.664   0.476  0.1721  0.0644  0.1961
15330TIP3    H167405   4.990   3.738   0.462 -0.8460  0.7570 -0.6218
15330TIP3    H267406   4.944   3.608   0.400 -2.6207  1.9448 -1.9068
15331TIP3   OH267407   5.029   6.043   2.073 -0.2027 -0.0284  0.3159
15331TIP3    H167408   5.050   6.065   1.983 -0.3226 -0.5718  0.1501
15331TIP3    H267409   5.069   5.957   2.087 -0.8385 -0.2926  0.5409
15332TIP3   OH267410   1.814   5.935  15.695  0.2687  0.3400  0.2541
15332TIP3    H167411   1.741   5.990  15.721  0.1569 -0.6408  2.1800
15332TIP3    H267412   1.888   5.966  15.746 -0.0007 -1.7617  2.0950
15333TIP3   OH267413   1.491   5.475  12.579 -1.3932  0.3031 -0.1903
15333TIP3    H167414   1.472   5.381  12.579 -0.0549 -0.0243 -1.9789
15333TIP3    H267415   1.534   5.491  12.495  0.6569  2.0542  1.0753
15334TIP3   OH267416   1.438   5.470  15.313  0.2667  0.3804  0.0920
15334TIP3    H167417   1.459   5.470  15.407  0.1434  0.2727  0.1181
15334TIP3    H267418   1.398   5.385  15.297 -1.3913  1.0965  0.3108
15335TIP3   OH267419   3.534   6.795   3.704 -0.1554 -0.1024 -0.0331
15335TIP3    H167420   3.442   6.794   3.732 -0.1899 -0.1986 -0.1441
15335TIP3    H267421   3.581   6.749   3.774 -0.1609  0.1331  0.1249
15336TIP3   OH267422   3.029   2.473  16.509  0.4356 -0.8385 -0.7056
15336TIP3    H167423   3.094   2.543  16.516  1.1172 -1.4777 -0.5154
15336TIP3    H267424   2.945   2.519  16.505  0.9251  0.0207 -1.4455
15337TIP3   OH267425   2.754   5.505   5.203 -0.2639 -0.2872  0.0997
15337TIP3    H167426   2.747   5.501   5.108 -0.2231  0.6649  0.0404
15337TIP3    H267427   2.847   5.491   5.221  0.0765  1.4120 -0.1556
15338TIP3   OH267428   4.489   4.422  12.500 -0.2717 -0.2104  0.1340
15338TIP3    H167429   4.543   4.411  12.422 -0.8321 -0.4128 -0.2350
15338TIP3    H267430   4.442   4.504  12.484  1.2046  0.9096  1.2411
15339TIP3   OH267431   3.961   4.571  14.074 -0.0181  0.1332  0.2446
15339TIP3    H167432   3.899   4.613  14.134  0.0555  0.4002  0.1377
15339TIP3    H267433   4.015   4.644  14.042  0.6529 -0.1541  0.6954
15340TIP3   OH267434   3.172   4.683  16.540  0.0701  0.0989 -0.0069
15340TIP3    H167435   3.255   4.636  16.530 -0.3186 -0.4962 -0.4633
15340TIP3    H267436   3.157   4.724  16.455  0.8604  1.8337  0.6438
15341TIP3   OH267437   0.601   6.224  16.663  0.2790  0.2471 -0.0773
15341TIP3    H167438   0.692   6.196  16.649 -0.3376 -1.4009 -1.0995
15341TIP3    H267439   0.600   6.317  16.642  1.5143  0.0472 -1.1063
15342TIP3   OH267440   2.920   2.853  13.818  0.2204 -0.1270  0.4732
15342TIP3    H167441   3.006   2.836  13.858  0.3626 -0.3226  0.0926
15342TIP3    H267442   2.859   2.851  13.891  0.7052  1.4384  0.9744
15343TIP3   OH267443   1.789   0.903   4.398  0.7180 -0.7476 -0.1026
15343TIP3    H167444   1.705   0.929   4.362  0.8870  0.1894  0.1396
15343TIP3    H267445   1.811   0.822   4.353  0.9513  0.3959 -2.1966
15344TIP3   OH267446   1.211   5.290   1.655  0.4740 -0.2785 -0.5849
15344TIP3    H167447   1.181   5.344   1.727  1.4402  1.1904 -1.2345
15344TIP3    H267448   1.139   5.229   1.638 -0.3613  0.3490  0.6178
15345TIP3   OH267449   2.462   3.388   3.459  0.2099  0.1302  0.3408
15345TIP3    H167450   2.506   3.447   3.397 -0.6774 -1.2883 -1.7373
15345TIP3    H267451   2.387   3.438   3.491 -0.9304 -0.0323 -1.9183
15346TIP3   OH267452   5.402   6.655  16.259 -0.0810  0.0617 -0.2720
15346TIP3    H167453   5.361   6.577  16.296  0.7552 -0.1168  0.3001
15346TIP3    H267454   5.330   6.701  16.215 -0.7809 -0.5024  0.2580
15347TIP3   OH267455   0.270   0.922   0.442  0.6100  0.1024 -0.1927
15347TIP3    H167456   0.223   0.848   0.403  1.7896  0.0939 -1.6587
15347TIP3    H267457   0.233   0.999   0.399  1.0224  0.1898 -0.3926
15348TIP3   OH267458   2.470   4.444  13.412 -0.5439 -0.4574 -0.0012
15348TIP3    H167459   2.507   4.378  13.470  1.5790 -0.8486 -1.7071
15348TIP3    H267460   2.400   4.399  13.365 -1.4391 -0.4726  1.2711
15349TIP3   OH267461   3.717   4.859   2.703  0.5152 -0.2236  0.0022
15349TIP3    H167462   3.718   4.876   2.797  0.1252  1.8112 -0.3202
15349TIP3    H267463   3.627   4.833   2.684  0.5915 -0.6258  0.1600
15350TIP3   OH267464   5.092   0.291  10.621  0.3279  0.3127  0.0462
15350TIP3    H167465   5.178   0.328  10.599 -0.5755  1.2454 -2.1880
15350TIP3    H267466   5.086   0.211  10.569 -0.6211  0.8928 -0.7656
15351TIP3   OH267467   4.205   0.027   3.021  0.4534 -0.0420 -0.6461
15351TIP3    H167468   4.149  -0.045   2.992  0.7506 -0.1459 -0.9704
15351TIP3    H267469   4.282   0.021   2.965  0.4660  0.5518 -0.6996
15352TIP3   OH267470   5.490   5.633  13.437  0.1982  0.0786  0.5072
15352TIP3    H167471   5.451   5.662  13.520 -0.8067 -0.5545  0.2821
15352TIP3    H267472   5.494   5.712  13.383  1.2493  0.5813  1.2900
15353TIP3   OH267473   0.830   5.934  13.301  0.3822 -0.1450 -0.1080
15353TIP3    H167474   0.859   5.853  13.259 -1.2585 -0.8354  0.0395
15353TIP3    H267475   0.912   5.979  13.323  1.3736 -2.1415  0.5790
15354TIP3   OH267476   4.250   2.736  15.736  0.2892  0.3955  0.1799
15354TIP3    H167477   4.288   2.677  15.671  0.8970 -0.4247  1.2521
15354TIP3    H267478   4.281   2.823  15.711  0.1873  0.1471 -0.8455
15355TIP3   OH267479   1.976   2.288   2.986  0.4054  0.6778 -0.6004
15355TIP3    H167480   1.890   2.299   3.026 -0.4274 -0.2423 -2.0621
15355TIP3    H267481   1.960   2.297   2.892  1.7832 -0.2181 -0.9482
15356TIP3   OH267482   0.641   3.968   3.182 -0.0557  0.2347 -0.0981
15356TIP3    H167483   0.557   3.937   3.217  0.0479 -0.1241 -0.1598
15356TIP3    H267484   0.619   4.047   3.132 -0.4563 -0.2172 -0.6524
15357TIP3   OH267485   0.039   1.614   0.365 -0.1409 -0.2617 -0.2350
15357TIP3    H167486  -0.013   1.534   0.370 -0.0211 -0.2893  1.0855
15357TIP3    H267487  -0.025   1.683   0.348 -0.5986 -0.3519  0.9558
15358TIP3   OH267488   0.516   3.046   3.826  0.1107 -0.3026 -0.3021
15358TIP3    H167489   0.506   3.141   3.822  0.9085 -0.2342 -0.8458
15358TIP3    H267490   0.545   3.029   3.916  1.5394  0.1412 -0.6551
15359TIP3   OH267491   3.915   0.952  14.557 -0.4384 -0.1252  0.1380
15359TIP3    H167492   3.978   0.890  14.520 -1.9175 -0.8023 -1.4048
15359TIP3    H267493   3.833   0.902  14.564 -0.7268  0.5825  2.5359
15360TIP3   OH267494   0.562   5.658  11.009  0.4267  0.7827 -0.0057
15360TIP3    H167495   0.477   5.628  10.978  0.4159  0.3095  0.4700
15360TIP3    H267496   0.578   5.608  11.089  0.4925  1.9056  0.7177
15361TIP3   OH267497   0.713   3.811   1.132 -0.7671 -0.0655  0.4617
15361TIP3    H167498   0.716   3.783   1.224 -2.6703  0.0729  0.6263
15361TIP3    H267499   0.692   3.732   1.083  1.4894 -0.4015 -0.0626
15362TIP3   OH267500   0.815   6.605  10.601  0.5729 -0.1298 -0.2743
15362TIP3    H167501   0.800   6.695  10.571 -0.0030  0.2106  0.9381
15362TIP3    H267502   0.736   6.557  10.574 -0.7593  0.5712  2.0288
15363TIP3   OH267503   1.446   0.363  15.292 -0.5016 -0.2569  0.5145
15363TIP3    H167504   1.445   0.361  15.196  0.1588  3.5200  0.2876
15363TIP3    H267505   1.391   0.438  15.314 -1.0503 -1.3502  3.1839
15364TIP3   OH267506   0.314   4.765   3.424 -0.3558 -0.3944 -0.3912
15364TIP3    H167507   0.379   4.835   3.419 -1.0649  0.4663  1.3967
15364TIP3    H267508   0.299   4.754   3.518 -1.4134 -1.8699 -0.7081
15365TIP3   OH267509   2.839   2.211  11.082 -0.2017 -0.1047  0.9491
15365TIP3    H167510   2.910   2.187  11.141  1.0932  1.6593  0.1940
15365TIP3    H267511   2.824   2.132  11.029  1.6881 -0.3229  0.6781
15366TIP3   OH267512   0.101   2.609  16.809 -0.1672  0.4235  0.5709
15366TIP3    H167513   0.054   2.689  16.834 -1.9594 -0.5756  0.6024
15366TIP3    H267514   0.035   2.555  16.766  0.9895 -1.0565  0.5676
15367TIP3   OH267515   5.593   3.338  13.736  0.2563  0.0241  0.2611
15367TIP3    H167516   5.658   3.405  13.755 -0.9473  0.9306  1.3565
15367TIP3    H267517   5.643   3.267  13.696  1.6798  1.2569 -0.2431
15368TIP3   OH267518   1.885   4.564   5.495  0.0043  0.1120 -0.6242
15368TIP3    H167519   1.799   4.605   5.491 -0.4291 -0.8214 -1.8328
15368TIP3    H267520   1.900   4.547   5.588 -1.3103 -0.0902 -0.4282
15369TIP3   OH267521   5.457   3.822  13.269  0.9672  0.3374 -0.3887
15369TIP3    H167522   5.500   3.904  13.293  2.5874 -0.6876  0.3303
15369TIP3    H267523   5.428   3.784  13.352 -1.5515  1.0402 -0.8431
15370TIP3   OH267524   1.967   5.216  15.836 -0.3211  0.5973 -0.7192
15370TIP3    H167525   1.915   5.261  15.904 -1.4911  0.3079 -1.3933
15370TIP3    H267526   2.051   5.199  15.878 -1.5757 -1.1828  1.3134
15371TIP3   OH267527   0.076   0.394   4.281  0.0179  0.2990  0.3231
15371TIP3    H167528  -0.007   0.358   4.251 -0.1443  0.6167  0.3865
15371TIP3    H267529   0.052   0.457   4.348  0.2063  1.4505 -0.6601
15372TIP3   OH267530   2.191   5.783  15.416  0.5831 -0.8483  0.5467
15372TIP3    H167531   2.227   5.867  15.442  1.8531 -0.7223 -1.4321
15372TIP3    H267532   2.262   5.720  15.431  0.1252 -1.3461  0.6878
15373TIP3   OH267533   1.951   6.710   4.264 -0.0066 -0.2099 -0.3081
15373TIP3    H167534   1.862   6.740   4.282  0.2462 -0.1859  1.0511
15373TIP3    H267535   1.999   6.731   4.344  0.6328 -2.4968 -0.0431
15374TIP3   OH267536   6.492   3.092  13.754 -0.6788 -0.3812  0.3566
15374TIP3    H167537   6.451   3.055  13.676  2.7274  1.9023 -2.8474
15374TIP3    H267538   6.552   3.024  13.784 -0.1385 -0.3625 -0.6538
15375TIP3   OH267539   6.480   4.650  11.339 -0.2990 -0.2531 -0.0278
15375TIP3    H167540   6.431   4.723  11.301 -0.8245 -0.4009  0.3611
15375TIP3    H267541   6.413   4.588  11.367  0.1780 -1.4041 -1.3679
15376TIP3   OH267542   5.365   5.804  14.625  0.5495  0.0914  0.1139
15376TIP3    H167543   5.346   5.890  14.663 -1.6368 -0.9912  1.7542
15376TIP3    H267544   5.349   5.743  14.697 -0.9917 -1.9109 -1.7878
15377TIP3   OH267545   1.244   4.763  17.080 -0.1475  0.4773  0.0706
15377TIP3    H167546   1.167   4.730  17.034  0.0197  1.0918 -0.6700
15377TIP3    H267547   1.255   4.853  17.049  1.2090  0.2118 -0.3097
15378TIP3   OH267548   6.591   4.495   0.310  0.5171 -0.3656  0.0799
15378TIP3    H167549   6.640   4.506   0.392  1.1001  1.2009 -0.4524
15378TIP3    H267550   6.601   4.578   0.265  0.1005 -1.1618 -1.5392
15379TIP3   OH267551   5.415   2.531   3.185  0.0077  0.6710 -0.7171
15379TIP3    H167552   5.345   2.561   3.243 -1.3139  0.9475 -2.3663
15379TIP3    H267553   5.438   2.444   3.217  0.6456  1.5337  1.3131
15380TIP3   OH267554   1.272   2.255  12.425 -0.2452  0.1079  0.5109
15380TIP3    H167555   1.291   2.320  12.492 -0.5453  0.4445  0.2709
15380TIP3    H267556   1.177   2.245  12.428 -0.2546  0.0856  0.1724
15381TIP3   OH267557   6.809   5.071  11.211  0.4846  0.3206  0.1309
15381TIP3    H167558   6.768   5.045  11.129 -0.2322  0.1368  0.5372
15381TIP3    H267559   6.819   4.989  11.259 -0.4066  0.5837  0.8037
15382TIP3   OH267560   3.167   0.415   4.586 -0.0748  0.2458 -0.0411
15382TIP3    H167561   3.166   0.359   4.664 -0.4125 -1.1084 -0.9720
15382TIP3    H267562   3.193   0.501   4.619  1.1446 -0.5948  1.3558
15383TIP3   OH267563   3.433   3.274   5.946  0.2394  0.1785 -0.0291
15383TIP3    H167564   3.414   3.245   5.857 -1.0586  3.7713 -1.0988
15383TIP3    H267565   3.348   3.279   5.988  0.8077 -1.1213  1.3760
15384TIP3   OH267566   4.346   5.327   2.040 -0.5533  0.6258 -0.1603
15384TIP3    H167567   4.320   5.367   2.123  1.1319 -0.4561  0.9403
15384TIP3    H267568   4.264   5.321   1.990 -1.5226  1.7553  1.1874
15385TIP3   OH267569   2.801   1.593  11.007  0.0566 -0.4954  0.5203
15385TIP3    H167570   2.752   1.640  10.940 -0.7004 -1.3667  0.4460
15385TIP3    H267571   2.738   1.531  11.044  1.4783 -2.7645 -0.6455
15386TIP3   OH267572   1.802   5.388   3.398 -0.2204 -0.3309 -0.8311
15386TIP3    H167573   1.718   5.349   3.422  1.0462 -3.1054 -0.5171
15386TIP3    H267574   1.820   5.451   3.468 -1.2398 -0.9320 -0.0010
15387TIP3   OH267575   1.853   3.105  12.150 -0.0868 -0.2659  0.0219
15387TIP3    H167576   1.837   3.035  12.087  0.7380 -0.4265 -0.0084
15387TIP3    H267577   1.930   3.150  12.117 -1.1584  1.2825 -0.5051
15388TIP3   OH267578   5.649   1.906   5.296  0.0074 -0.2621 -0.2810
15388TIP3    H167579   5.588   1.960   5.246  0.3191 -0.6614 -1.1067
15388TIP3    H267580   5.728   1.959   5.303  0.7529 -1.0575 -2.1603
15389TIP3   OH267581   1.668   4.331  12.257  0.0410  0.1533  0.2980
15389TIP3    H167582   1.599   4.285  12.304 -1.2570  1.6083 -0.1016
15389TIP3    H267583   1.747   4.279  12.273 -1.5576 -3.0740 -1.3484
15390TIP3   OH267584   2.558   2.741  15.425  0.1817 -0.7271  0.1018
15390TIP3    H167585   2.627   2.721  15.362 -0.1093 -2.0152  0.1632
15390TIP3    H267586   2.515   2.819  15.389  1.7658  0.2346  0.1749
15391TIP3   OH267587   3.916   0.597   0.005 -0.3509 -0.0078 -0.1751
15391TIP3    H167588   3.964   0.674   0.036 -1.3851  1.2852 -1.6275
15391TIP3    H267589   3.851   0.633  -0.056 -0.3365 -2.1195 -1.5154
15392TIP3   OH267590   1.297   3.719   1.043  0.3819 -0.7101  0.5627
15392TIP3    H167591   1.287   3.672   1.126 -1.1535 -0.3107  0.6418
15392TIP3    H267592   1.225   3.686   0.988 -1.2718  2.0081  0.8910
15393TIP3   OH267593   3.616   1.538   1.649 -0.6109  0.6007 -0.7481
15393TIP3    H167594   3.562   1.595   1.594 -1.2311  0.3392 -0.4166
15393TIP3    H267595   3.653   1.597   1.715 -0.3768  0.8022 -1.0533
15394TIP3   OH267596   5.634   1.286   3.314  0.5238  0.1065  0.7267
15394TIP3    H167597   5.690   1.211   3.295  0.6462  0.3600  0.0591
15394TIP3    H267598   5.656   1.350   3.247 -1.9495 -0.5142 -0.8037
15395TIP3   OH267599   2.457   6.562  15.243 -0.1931 -0.3055 -0.4969
15395TIP3    H167600   2.387   6.526  15.297 -0.3526 -0.3052 -0.7017
15395TIP3    H267601   2.537   6.527  15.281 -0.3095 -0.3646 -0.3057
15396TIP3   OH267602   0.350   5.857  11.109  0.2204  0.1916 -0.0585
15396TIP3    H167603   0.445   5.850  11.102  0.2482  0.9562 -0.5960
15396TIP3    H267604   0.322   5.890  11.024 -0.4607  0.5603  0.2962
15397TIP3   OH267605   3.086   4.675  13.895 -0.4202 -0.2475  0.0389
15397TIP3    H167606   3.145   4.608  13.859  0.5141  0.1511  0.7800
15397TIP3    H267607   3.134   4.711  13.969 -1.3698  0.5054  0.3014
15398TIP3   OH267608   6.347   2.816  11.000 -0.6014  0.4292  0.2025
15398TIP3    H167609   6.321   2.906  11.020  0.4796  0.3609  2.0758
15398TIP3    H267610   6.282   2.787  10.936 -1.8669  2.0386  0.6828
15399TIP3   OH267611   1.804   2.874  12.616 -0.4648 -0.2289  0.0780
15399TIP3    H167612   1.772   2.893  12.528 -0.3733 -1.4855 -0.2589
15399TIP3    H267613   1.829   2.781  12.612  1.7587  0.2719  0.7528
15400TIP3   OH267614   1.249   1.936  15.270 -0.1362  0.0340 -0.2778
15400TIP3    H167615   1.269   2.014  15.322 -0.0976 -0.5437  0.5993
15400TIP3    H267616   1.302   1.867  15.310  0.4802 -0.2796 -1.5656
15401TIP3   OH267617   2.806   4.319  11.527 -0.2865  0.3982 -0.4540
15401TIP3    H167618   2.876   4.312  11.592  1.7019  1.4639 -2.3429
15401TIP3    H267619   2.732   4.271  11.565  0.3727  1.8478  3.0292
15402TIP3   OH267620   0.066   0.515  11.923 -0.0335  0.2360  0.3071
15402TIP3    H167621   0.060   0.536  12.016  2.6012 -0.1422  0.6245
15402TIP3    H267622   0.132   0.575  11.889 -0.3837 -0.1812 -1.1686
15403TIP3   OH267623   2.406   3.266  16.886 -0.7136 -0.1150 -0.4766
15403TIP3    H167624   2.469   3.215  16.837 -0.0274  0.8837 -0.6752
15403TIP3    H267625   2.443   3.272  16.974 -0.4017  0.6337 -0.6428
15404TIP3   OH267626   1.972   6.788  11.167  0.5657  0.3277 -0.1907
15404TIP3    H167627   2.054   6.803  11.214  0.0205  1.1538  0.5413
15404TIP3    H267628   1.906   6.782  11.237 -0.1150  0.5605 -0.8011
15405TIP3   OH267629   2.698   2.132   1.481 -0.1747 -0.6612 -0.1228
15405TIP3    H167630   2.636   2.089   1.422  0.2256 -0.9796 -0.3138
15405TIP3    H267631   2.735   2.061   1.533  0.9548 -0.6278 -0.8715
15406TIP3   OH267632   3.741   1.675  15.113  0.0231 -0.5318  0.3429
15406TIP3    H167633   3.829   1.702  15.086 -0.4572  1.5519  0.6565
15406TIP3    H267634   3.756   1.613  15.184  1.2419 -0.5698  0.0759
15407TIP3   OH267635   5.805   3.534  13.830  0.6574 -0.5880 -0.0886
15407TIP3    H167636   5.885   3.481  13.832  1.0867  0.0490 -0.1065
15407TIP3    H267637   5.829   3.611  13.779 -0.0157 -0.4537 -0.2084
15408TIP3   OH267638   5.093   1.398  15.571 -0.0187 -0.4565  0.3081
15408TIP3    H167639   5.100   1.305  15.552  1.8500 -0.4237  0.6742
15408TIP3    H267640   5.181   1.432  15.559 -0.6592  1.2746  0.2048
15409TIP3   OH267641   0.176   3.146  11.506 -0.2820 -0.3470  0.2445
15409TIP3    H167642   0.256   3.112  11.547  0.9812  1.3165 -0.7383
15409TIP3    H267643   0.204   3.180  11.422 -2.1197 -0.0353 -0.2918
15410TIP3   OH267644   2.228   3.042   4.207 -0.3324  0.2464 -0.0422
15410TIP3    H167645   2.181   3.084   4.135 -1.7201  1.4404  1.4802
15410TIP3    H267646   2.165   2.980   4.243  0.3338 -0.3056  0.1723
15411TIP3   OH267647   0.056   3.811   5.317 -0.8012 -0.6408 -0.1978
15411TIP3    H167648   0.110   3.788   5.242 -0.6408 -2.1938  0.3649
15411TIP3    H267649  -0.021   3.755   5.309 -1.3473  0.0380  0.1619
15412TIP3   OH267650   2.315   0.405  11.409 -0.2935  0.5062 -0.2699
15412TIP3    H167651   2.232   0.426  11.452 -1.9904 -1.4025 -2.3963
15412TIP3    H267652   2.343   0.324  11.450 -0.5821  0.0544 -0.9484
15413TIP3   OH267653   1.287   4.411  15.968 -0.7900 -0.1046  0.6738
15413TIP3    H167654   1.365   4.433  15.917 -1.1198  0.7693  0.5234
15413TIP3    H267655   1.279   4.316  15.959  0.2555 -0.2117  0.6998
15414TIP3   OH267656   3.488   3.741  15.337  0.1791  0.9862 -0.2009
15414TIP3    H167657   3.537   3.745  15.255  0.5623 -2.9085 -0.3426
15414TIP3    H267658   3.405   3.697  15.314  0.0859  0.2557  1.3697
15415TIP3   OH267659   1.649   6.625   2.936  0.4666 -0.3616  0.0866
15415TIP3    H167660   1.580   6.603   2.873  1.5977  0.5373 -1.5466
15415TIP3    H267661   1.611   6.605   3.021 -1.6718 -0.2664 -0.7770
15416TIP3   OH267662   0.208   5.172  14.118  0.5186 -0.8625  0.5029
15416TIP3    H167663   0.166   5.248  14.077  0.4699 -0.9793  0.3373
15416TIP3    H267664   0.156   5.097  14.091  0.2092 -0.8911  1.1654
15417TIP3   OH267665   4.400   4.530   4.999  0.6971  0.4106 -0.2363
15417TIP3    H167666   4.463   4.475   4.952 -0.0713  0.5695 -1.5037
15417TIP3    H267667   4.444   4.615   5.007  0.9587  0.2945 -0.4175
15418TIP3   OH267668   1.926   2.463  14.915 -0.1362  0.7255 -0.2299
15418TIP3    H167669   1.839   2.446  14.952  0.3695 -0.1866  0.5563
15418TIP3    H267670   1.920   2.432  14.825 -0.2814 -0.4452  0.1647
15419TIP3   OH267671   0.757   2.632  16.289 -0.5941 -0.0663 -0.5664
15419TIP3    H167672   0.820   2.694  16.326 -1.4654 -0.1273  1.0702
15419TIP3    H267673   0.763   2.555  16.345 -2.5195  0.1387 -0.0140
15420TIP3   OH267674   3.728   2.295   3.164 -0.3809  0.3630  0.0317
15420TIP3    H167675   3.638   2.286   3.196 -0.4346  1.7004  0.3039
15420TIP3    H267676   3.718   2.335   3.078 -0.1369 -1.5344 -0.9208
15421TIP3   OH267677   1.150   6.549   3.097  0.1542 -0.4968 -0.1325
15421TIP3    H167678   1.143   6.529   3.191  0.7537 -3.0008 -0.5295
15421TIP3    H267679   1.060   6.556   3.067 -0.0549 -0.4392  0.4955
15422TIP3   OH267680   6.306   3.907  15.024 -0.1714 -0.2264 -0.5962
15422TIP3    H167681   6.243   3.852  15.070  2.1553 -0.7945  2.1875
15422TIP3    H267682   6.278   3.997  15.042  0.3561 -0.4573  1.5367
15423TIP3   OH267683   3.181   1.618  15.829  0.3573  0.4768  0.8655
15423TIP3    H167684   3.163   1.535  15.871 -0.7729  0.6570  0.7690
15423TIP3    H267685   3.109   1.630  15.767  1.9967  0.1597 -1.2491
15424TIP3   OH267686   6.797   1.564  11.568  0.5088  0.2478  0.5053
15424TIP3    H167687   6.869   1.532  11.514  0.5706  1.4686 -0.1575
15424TIP3    H267688   6.726   1.582  11.507 -0.7554 -1.8388  1.2464
15425TIP3   OH267689   0.488   5.713  15.081 -0.4463 -0.2119  0.6562
15425TIP3    H167690   0.478   5.717  15.176  0.2434 -1.4270  0.8054
15425TIP3    H267691   0.495   5.620  15.062 -0.9351  0.0063 -0.6354
15426TIP3   OH267692   4.215   2.669  11.045 -0.1886  0.0707 -0.1662
15426TIP3    H167693   4.149   2.608  11.011  0.2543 -0.5996  0.1650
15426TIP3    H267694   4.279   2.613  11.090  0.4159  0.7444 -0.1717
15427TIP3   OH267695   5.987   2.962  14.452 -0.0159 -0.1629 -0.5729
15427TIP3    H167696   6.083   2.966  14.456 -0.0441 -0.4747  0.6234
15427TIP3    H267697   5.967   2.967  14.359  1.1224  0.9482 -0.7838
15428TIP3   OH267698   4.365   6.070  16.498 -0.2821  0.5143  0.4324
15428TIP3    H167699   4.303   6.111  16.559  0.7621  0.8447  1.3162
15428TIP3    H267700   4.449   6.072  16.545  0.6523  1.1762 -1.2011
15429TIP3   OH267701   1.524   4.543  16.325  0.9829  0.3255 -0.0018
15429TIP3    H167702   1.556   4.501  16.405 -1.2352  0.8313  1.2279
15429TIP3    H267703   1.454   4.486  16.294 -0.8489  2.0689  0.6907
15430TIP3   OH267704   0.829   2.711   2.713 -0.0582  0.0375 -0.0237
15430TIP3    H167705   0.840   2.806   2.706  2.3607  0.1706  3.3264
15430TIP3    H267706   0.774   2.699   2.791 -0.0199 -1.3080 -0.1793
15431TIP3   OH267707   2.116   1.732   6.256  0.4310  0.0060 -0.2445
15431TIP3    H167708   2.099   1.677   6.179 -0.6988  0.0975 -0.0794
15431TIP3    H267709   2.127   1.669   6.327 -2.2164 -0.0642  0.2165
15432TIP3   OH267710   3.521   0.111  16.351  0.2521 -0.0671 -0.6703
15432TIP3    H167711   3.482   0.045  16.408 -2.0394  0.5056 -1.4651
15432TIP3    H267712   3.516   0.073  16.263  1.4898  0.0594 -0.8139
15433TIP3   OH267713   5.509   6.392  15.150  0.0416 -0.3959  0.1675
15433TIP3    H167714   5.560   6.332  15.096 -0.1823  0.9288 -1.5773
15433TIP3    H267715   5.571   6.461  15.174 -0.2653 -0.1692  0.3131
15434TIP3   OH267716   2.066   3.207  15.412 -0.1878 -0.0060 -0.1714
15434TIP3    H167717   2.041   3.120  15.442 -2.5749 -0.2848 -2.5880
15434TIP3    H267718   2.059   3.263  15.489 -1.8815 -1.3680  0.7114
15435TIP3   OH267719   0.147   4.418   5.243  0.0828  0.2015  0.1969
15435TIP3    H167720   0.080   4.368   5.289 -2.1439  0.8646 -2.0982
15435TIP3    H267721   0.192   4.353   5.188 -1.3897  0.3266 -1.2077
15436TIP3   OH267722   3.057   5.547  15.886  0.4522  0.1500 -0.0757
15436TIP3    H167723   3.117   5.487  15.841  0.8957 -0.9377  1.8411
15436TIP3    H267724   3.096   5.560  15.972 -0.9432  1.2074  0.4338
15437TIP3   OH267725   2.832   2.338  11.976 -0.2499 -0.2977  0.7433
15437TIP3    H167726   2.919   2.357  12.012 -0.3646 -0.6717  1.2332
15437TIP3    H267727   2.819   2.244  11.993 -0.1450 -0.5877 -0.6346
15438TIP3   OH267728   5.595   4.903  11.964  0.4882 -0.0333  0.5481
15438TIP3    H167729   5.556   4.904  12.051  0.2720 -0.3402  0.4535
15438TIP3    H267730   5.594   4.811  11.938 -0.3356  0.1744 -0.1814
15439TIP3   OH267731   6.411   4.332   3.212 -0.7279 -0.4073  0.1643
15439TIP3    H167732   6.407   4.411   3.264 -1.6358 -0.3209 -0.0320
15439TIP3    H267733   6.350   4.346   3.140 -0.0819 -0.8409 -0.4933
15440TIP3   OH267734   1.536   0.179   4.107 -0.0756 -0.3711 -0.7082
15440TIP3    H167735   1.442   0.186   4.090  0.0419  2.1840 -0.7737
15440TIP3    H267736   1.575   0.244   4.049  1.3376  1.2971  1.9203
15441TIP3   OH267737   0.060   2.771  10.565 -0.1098  0.3350 -0.0888
15441TIP3    H167738   0.123   2.782  10.494  1.2637 -2.3289  0.5975
15441TIP3    H267739  -0.025   2.762  10.521  0.7617 -1.6871 -1.4750
15442TIP3   OH267740   5.483   5.522  11.536  0.4560  0.1067  0.0596
15442TIP3    H167741   5.449   5.593  11.480 -0.4575  0.2513  0.7687
15442TIP3    H267742   5.440   5.537  11.620  0.4603 -1.1392  0.2931
15443TIP3   OH267743   0.172   1.162   4.013  0.2698  0.7799 -0.1876
15443TIP3    H167744   0.152   1.108   3.936  0.8788  0.4996 -0.1563
15443TIP3    H267745   0.088   1.201   4.037 -0.0519  0.3679 -0.6128
15444TIP3   OH267746   0.844   4.165   5.882 -0.3900 -0.1341  0.2300
15444TIP3    H167747   0.894   4.244   5.903  0.2796 -0.5794  0.3542
15444TIP3    H267748   0.798   4.143   5.963  1.2575 -1.1751  0.9455
15445TIP3   OH267749   5.183   1.251   4.529 -0.1391 -0.1002  0.2557
15445TIP3    H167750   5.265   1.250   4.480 -0.3023  1.3682 -0.0996
15445TIP3    H267751   5.114   1.245   4.463 -0.3524 -2.3063  0.6106
15446TIP3   OH267752   3.424   3.513  15.124 -0.2013  0.3432  0.5576
15446TIP3    H167753   3.357   3.501  15.192 -0.6973 -0.0216  0.0098
15446TIP3    H267754   3.503   3.473  15.161 -1.2603 -2.8973 -0.3437
15447TIP3   OH267755   0.654   3.673   3.341  0.4556 -0.2981 -0.2303
15447TIP3    H167756   0.597   3.635   3.274  1.8855 -0.7276 -1.2655
15447TIP3    H267757   0.740   3.678   3.298  0.9265  1.4920  0.8353
15448TIP3   OH267758   6.210   6.201   1.040 -0.3074  0.8093 -0.4063
15448TIP3    H167759   6.281   6.137   1.040 -0.7527  0.2960  0.2860
15448TIP3    H267760   6.143   6.162   0.984 -0.6647  0.5663  0.1858
15449TIP3   OH267761   1.260   2.446   0.647  0.3202  0.1324  0.2145
15449TIP3    H167762   1.280   2.354   0.628 -0.6685  0.2683 -1.7411
15449TIP3    H267763   1.326   2.495   0.598 -1.5278  0.4781 -2.1044
15450TIP3   OH267764   4.135   4.029   1.321 -0.7436  0.0765 -0.0174
15450TIP3    H167765   4.082   4.010   1.244 -0.9295 -1.2533  0.4081
15450TIP3    H267766   4.202   3.961   1.321  0.2622  1.0365  0.1014
15451TIP3   OH267767   3.635   0.623   4.768 -0.0884 -0.4026 -0.4681
15451TIP3    H167768   3.714   0.613   4.716 -0.4020 -1.4040 -0.7860
15451TIP3    H267769   3.666   0.635   4.858  0.4550 -3.0017 -0.2267
15452TIP3   OH267770   3.272   1.786   5.227 -0.4725 -0.2033 -0.0169
15452TIP3    H167771   3.270   1.878   5.255 -1.0931 -1.0371  2.9846
15452TIP3    H267772   3.326   1.742   5.292 -0.9906 -2.1447 -0.8373
15453TIP3   OH267773   5.315   4.106   4.888  0.4608  0.4314  0.4613
15453TIP3    H167774   5.343   4.138   4.803 -0.3180 -0.5302 -0.1916
15453TIP3    H267775   5.266   4.026   4.868  1.3783 -0.5390  1.9106
15454TIP3   OH267776   4.603   4.546  13.607 -0.3625 -0.0164  0.3330
15454TIP3    H167777   4.547   4.469  13.603 -0.0488 -0.1911 -1.3359
15454TIP3    H267778   4.544   4.619  13.623 -1.0343 -0.2602 -0.9330
15455TIP3   OH267779   0.483   1.058  12.552 -0.4399  0.7877 -0.1788
15455TIP3    H167780   0.403   1.109  12.540  0.5012  1.9191 -2.0457
15455TIP3    H267781   0.520   1.051  12.464  1.1997 -0.2400  0.5582
15456TIP3   OH267782   4.686   2.928   0.294  0.4212 -0.7424  0.2003
15456TIP3    H167783   4.748   2.961   0.359  0.7501 -3.0578  1.1746
15456TIP3    H267784   4.617   2.886   0.345  0.2882 -1.9288 -0.9028
15457TIP3   OH267785   4.005   5.965  16.807  0.1519  0.0739 -0.7328
15457TIP3    H167786   4.005   5.899  16.876  0.3345  0.3490 -0.4683
15457TIP3    H267787   3.923   6.012  16.819  0.4605  0.5159 -0.3205
15458TIP3   OH267788   6.739   3.879  15.436 -0.0236  0.1288 -0.0797
15458TIP3    H167789   6.646   3.861  15.446 -0.2471  1.5866  0.8425
15458TIP3    H267790   6.759   3.940  15.508  1.3003  0.9973 -1.1453
15459TIP3   OH267791   0.408   3.672  14.099  0.5225  0.1781  0.9199
15459TIP3    H167792   0.359   3.711  14.172 -1.5389  1.0586 -0.8164
15459TIP3    H267793   0.385   3.580  14.101 -0.1531  0.3443  0.9076
15460TIP3   OH267794   5.046   0.127   2.457 -0.1164 -0.6302 -0.6998
15460TIP3    H167795   5.027   0.183   2.533  0.0027 -0.8398 -0.5152
15460TIP3    H267796   5.039   0.186   2.382  1.1520 -0.0783 -0.4154
15461TIP3   OH267797   5.734   3.345  16.409 -0.9710 -0.2654 -0.3237
15461TIP3    H167798   5.703   3.348  16.318 -0.7511  2.6295 -0.4159
15461TIP3    H267799   5.827   3.369  16.402 -0.7744 -0.7521  0.5973
15462TIP3   OH267800   4.724   6.271   3.773 -0.2839 -0.4710  0.1549
15462TIP3    H167801   4.794   6.283   3.836 -0.8520  0.4886  0.6142
15462TIP3    H267802   4.726   6.349   3.718 -1.6545  0.0875  0.8473
15463TIP3   OH267803   4.936   5.627   0.180 -0.0886  0.0226  0.2721
15463TIP3    H167804   4.948   5.660   0.269 -0.8169  0.0160  0.3830
15463TIP3    H267805   5.022   5.594   0.154 -0.1956 -1.3317  1.5289
15464TIP3   OH267806   5.432   5.689  15.297  0.1341  0.4477  0.2903
15464TIP3    H167807   5.499   5.642  15.347  0.1781 -1.4568 -1.4622
15464TIP3    H267808   5.351   5.641  15.314  0.0164  0.2179 -0.8796
15465TIP3   OH267809   4.775   5.029   4.542  0.5012  0.0872  0.3456
15465TIP3    H167810   4.809   5.097   4.483  1.7500 -0.2027  0.6929
15465TIP3    H267811   4.843   5.020   4.609 -0.2503 -0.5872  1.0319
15466TIP3   OH267812   5.613   3.022   3.562 -0.3366  0.1745  0.5095
15466TIP3    H167813   5.685   3.044   3.503 -1.4802 -1.5872 -1.7247
15466TIP3    H267814   5.652   2.962   3.626  0.5543  0.6598  0.4320
15467TIP3   OH267815   6.383   2.421   2.057 -0.3640 -0.3329 -0.5969
15467TIP3    H167816   6.380   2.498   2.113  1.0109 -2.3482  2.5115
15467TIP3    H267817   6.297   2.419   2.015 -0.1023  3.3517 -1.6491
15468TIP3   OH267818   5.330   2.344  14.546  0.1697 -0.0730  0.2566
15468TIP3    H167819   5.354   2.253  14.563 -1.5996 -1.0755 -2.0285
15468TIP3    H267820   5.394   2.374  14.481 -0.3546 -0.3471 -0.4022
15469TIP3   OH267821   4.412   4.380  13.544 -0.0854  0.1447  0.1419
15469TIP3    H167822   4.338   4.337  13.500  0.5373 -1.0413  0.2025
15469TIP3    H267823   4.461   4.308  13.583 -1.1210  1.1333  3.6901
15470TIP3   OH267824   3.385   0.264  16.542  0.1900  0.2552 -0.1258
15470TIP3    H167825   3.403   0.234  16.631 -0.6231  1.5986  0.5273
15470TIP3    H267826   3.467   0.249  16.494  1.0888  0.7676  1.2056
15471TIP3   OH267827   3.954   0.108   2.008 -0.6609 -0.2270 -0.1104
15471TIP3    H167828   3.949   0.146   1.920 -2.2633 -0.4937 -0.1632
15471TIP3    H267829   3.957   0.184   2.066 -1.9158 -0.0043 -0.3090
15472TIP3   OH267830   0.813   6.317   0.813  0.3359 -0.1360  0.2844
15472TIP3    H167831   0.743   6.253   0.832 -1.6212  2.2651  1.8032
15472TIP3    H267832   0.839   6.349   0.899  1.0679  1.3078 -0.4467
15473TIP3   OH267833   1.803   1.745  11.535  0.7873  0.1180  0.4796
15473TIP3    H167834   1.721   1.752  11.583  0.8300 -2.5063  1.1080
15473TIP3    H267835   1.777   1.728  11.445  0.5455 -1.6550  0.8380
15474TIP3   OH267836   0.114   2.269  16.068  0.2105  0.3966 -0.2176
15474TIP3    H167837   0.120   2.347  16.013  1.6820  0.1090 -0.5016
15474TIP3    H267838   0.175   2.207  16.029 -1.4588 -1.1904 -0.4060
15475TIP3   OH267839   4.057   5.719   6.409 -0.0179  1.0863 -0.2440
15475TIP3    H167840   4.079   5.805   6.372  2.3223  1.4885  1.8184
15475TIP3    H267841   3.974   5.733   6.455  0.4837  2.3701  0.3166
15476TIP3   OH267842   3.248   3.602  15.732 -0.1791  0.0228  0.7527
15476TIP3    H167843   3.318   3.634  15.790  0.6321  0.1402 -0.2524
15476TIP3    H267844   3.295   3.567  15.657 -1.2400  1.3881 -0.6012
15477TIP3   OH267845   4.544   1.211  16.475  0.3510 -0.1245 -0.5496
15477TIP3    H167846   4.625   1.177  16.512 -0.0534 -1.0065 -0.4642
15477TIP3    H267847   4.569   1.247  16.390  1.8235  4.2676  1.4499
15478TIP3   OH267848   5.947   1.128   5.226  0.0215 -0.2843  0.5466
15478TIP3    H167849   5.981   1.090   5.145 -0.0627 -1.4276  1.0392
15478TIP3    H267850   5.990   1.080   5.296 -1.6815 -0.9644  1.1895
15479TIP3   OH267851   4.177   6.792   1.635  0.7786  0.4387 -0.0751
15479TIP3    H167852   4.240   6.725   1.662  0.7599  0.5683  0.2981
15479TIP3    H267853   4.095   6.745   1.624  0.8886  0.3087 -0.3300
15480TIP3   OH267854   4.917   5.228   2.829 -0.2520 -0.0771  0.5322
15480TIP3    H167855   4.862   5.155   2.858  1.6476 -1.8807 -0.1390
15480TIP3    H267856   5.004   5.206   2.860  0.5579  1.4485 -0.5399
15481TIP3   OH267857   0.035   0.638  13.402 -0.4625  0.2349  0.1439
15481TIP3    H167858   0.096   0.575  13.440 -0.1066  1.7998  2.3761
15481TIP3    H267859   0.049   0.718  13.453 -1.3031  1.9612 -2.1652
15482TIP3   OH267860   2.675   3.582  15.521  0.2354  0.1485 -0.4744
15482TIP3    H167861   2.628   3.662  15.499 -0.7748 -0.4941 -0.6858
15482TIP3    H267862   2.719   3.602  15.603 -0.4858  0.7214 -0.2232
15483TIP3   OH267863   5.428   4.415  11.626  0.5080 -0.0331 -0.1341
15483TIP3    H167864   5.412   4.508  11.637  2.3311  0.1389  1.5785
15483TIP3    H267865   5.368   4.373  11.688 -0.5785 -0.0640 -1.1695
15484TIP3   OH267866   5.841   4.458   0.251 -0.0048 -0.5962  0.2124
15484TIP3    H167867   5.785   4.395   0.207 -1.1013  0.5006 -0.0172
15484TIP3    H267868   5.892   4.406   0.313 -1.1939 -1.6396  0.3474
15485TIP3   OH267869   5.492   3.241   2.240  0.2817  0.0783 -0.2376
15485TIP3    H167870   5.485   3.205   2.329  0.4844  0.8114  0.0829
15485TIP3    H267871   5.584   3.268   2.233  0.1436  0.4799 -0.4930
15486TIP3   OH267872   0.281   4.939  11.324 -0.3872  0.0142 -0.0766
15486TIP3    H167873   0.294   4.878  11.251  0.7758  0.2269 -0.0569
15486TIP3    H267874   0.300   5.025  11.286 -0.9409  0.2548  0.1826
15487TIP3   OH267875   6.359   0.175  14.288 -0.3991  0.2901  0.0892
15487TIP3    H167876   6.417   0.106  14.256  0.9942  0.9615  1.0460
15487TIP3    H267877   6.272   0.137  14.286  0.5132 -2.2077  2.4063
15488TIP3   OH267878   6.323   6.771   5.859  0.0364 -0.5217  0.6427
15488TIP3    H167879   6.288   6.838   5.801  2.8171  0.1480 -0.4357
15488TIP3    H267880   6.347   6.818   5.939  0.1371 -0.6038  0.6615
15489TIP3   OH267881   0.222   1.962  13.689  0.8135 -0.2951 -0.2166
15489TIP3    H167882   0.198   1.943  13.599 -1.6164 -0.0446  0.3105
15489TIP3    H267883   0.267   2.047  13.684  3.4850 -1.6638 -1.4698
15490TIP3   OH267884   0.189   1.302  13.866  0.1403  0.1578 -0.0134
15490TIP3    H167885   0.156   1.266  13.948 -0.4439 -0.5647 -0.5498
15490TIP3    H267886   0.242   1.232  13.829  0.2307  0.4047 -0.3580
15491TIP3   OH267887   6.779   3.426  15.786  0.3814  0.0747 -1.0736
15491TIP3    H167888   6.843   3.495  15.802  1.3219 -0.7869 -0.9940
15491TIP3    H267889   6.742   3.446  15.700 -1.1190  1.9821 -0.0620
15492TIP3   OH267890   2.225   4.640   3.882 -0.0365  0.3399 -0.1848
15492TIP3    H167891   2.274   4.710   3.925 -0.8844  1.0703 -0.4031
15492TIP3    H267892   2.279   4.562   3.896 -0.3323  0.4981  2.3378
15493TIP3   OH267893   2.476   1.796  14.107  0.4133 -0.0757  0.1773
15493TIP3    H167894   2.514   1.812  14.021  0.6964  1.1558  0.5009
15493TIP3    H267895   2.453   1.883  14.139  0.5438 -0.4875  1.4484
15494TIP3   OH267896   2.815   2.178   2.208 -0.5856 -0.2734  0.5173
15494TIP3    H167897   2.839   2.192   2.116  1.9742  0.1318  1.1682
15494TIP3    H267898   2.733   2.128   2.204 -2.1037  2.0957 -1.9513
15495TIP3   OH267899   4.701   1.634  12.357 -0.3413  0.8143  0.5011
15495TIP3    H167900   4.626   1.676  12.314  0.6746  1.6579 -0.5340
15495TIP3    H267901   4.679   1.635  12.450 -1.6708  0.9010  0.2124
15496TIP3   OH267902   4.262   3.417   4.865  0.7314 -0.1685 -0.1169
15496TIP3    H167903   4.188   3.367   4.831 -0.3934 -0.5044  2.5492
15496TIP3    H267904   4.322   3.425   4.791 -2.0594  0.3623 -2.4755
15497TIP3   OH267905   0.677   0.854  12.643 -0.4341  0.1309 -0.0852
15497TIP3    H167906   0.706   0.846  12.734  2.0399 -0.5983 -0.8646
15497TIP3    H267907   0.598   0.909  12.648 -2.1080 -2.2115  2.7564
15498TIP3   OH267908   5.560   0.628  11.610  0.7537  0.1338 -0.2961
15498TIP3    H167909   5.622   0.630  11.684  0.6255 -0.1018 -0.1786
15498TIP3    H267910   5.501   0.702  11.626 -0.6676 -1.2001  1.0791
15499TIP3   OH267911   2.857   1.346   4.468  0.2034  0.5089  0.3306
15499TIP3    H167912   2.767   1.351   4.436  0.1808 -1.1223  0.0547
15499TIP3    H267913   2.910   1.337   4.389  0.2613 -2.1648  0.5707
15500TIP3   OH267914   4.582   3.246   2.991 -0.1685 -0.0177 -0.1945
15500TIP3    H167915   4.652   3.184   3.013  1.2903  1.7087  0.3229
15500TIP3    H267916   4.591   3.315   3.057 -0.9309  1.3444 -1.4753
15501TIP3   OH267917   3.799   5.690   1.401 -0.3065 -0.0265 -0.2900
15501TIP3    H167918   3.851   5.690   1.321 -0.2427  0.9488 -0.2576
15501TIP3    H267919   3.863   5.681   1.472 -0.2177  0.6365 -0.2784
15502TIP3   OH267920   4.657   6.186  16.829 -0.0079 -0.1173 -0.8857
15502TIP3    H167921   4.654   6.164  16.736  1.2998 -2.1445 -0.5208
15502TIP3    H267922   4.565   6.186  16.857 -0.3612 -0.1878 -2.0283
15503TIP3   OH267923   1.371   3.957  11.332 -0.3566 -0.0655  0.3564
15503TIP3    H167924   1.361   3.973  11.425  2.6418  2.3352  0.4349
15503TIP3    H267925   1.331   4.033  11.289  1.8712  0.9937 -0.0064
15504TIP3   OH267926   5.458   5.729   2.720 -0.1804 -0.6056  0.2326
15504TIP3    H167927   5.542   5.746   2.678 -0.7326 -1.1920 -1.1860
15504TIP3    H267928   5.480   5.685   2.802  0.8987 -0.5024  0.0051
15505TIP3   OH267929   3.950   6.742  11.538  0.2815 -0.0850 -0.4103
15505TIP3    H167930   3.932   6.669  11.597 -0.5504  0.2439 -0.2398
15505TIP3    H267931   3.964   6.817  11.596  0.9249 -0.0558 -0.5908
15506TIP3   OH267932   3.683   1.129  14.800  0.5731 -0.5424  0.0727
15506TIP3    H167933   3.777   1.145  14.806  0.4564  0.7758 -1.3510
15506TIP3    H267934   3.664   1.129  14.707 -1.2553  1.8051  0.3747
15507TIP3   OH267935   0.241   4.833   0.023  0.0733 -0.0933 -0.1052
15507TIP3    H167936   0.322   4.854  -0.022  0.7968  0.2552  1.3207
15507TIP3    H267937   0.248   4.876   0.108 -0.9451 -1.2891  0.6249
15508TIP3   OH267938   1.357   0.758  16.647 -0.3068 -0.1313  0.4468
15508TIP3    H167939   1.334   0.846  16.677  0.6977  0.5450 -0.6815
15508TIP3    H267940   1.346   0.761  16.552 -0.8229 -1.4152  0.4439
15509TIP3   OH267941   3.151   5.248  14.128 -0.0839  0.5183  0.0236
15509TIP3    H167942   3.227   5.215  14.081 -0.6414  0.2266 -0.7007
15509TIP3    H267943   3.187   5.297  14.202  0.8100  0.7413 -0.5480
15510TIP3   OH267944   1.105   2.473   0.365 -0.2278  0.0719  0.5710
15510TIP3    H167945   1.050   2.407   0.407 -0.4347  1.0376  1.8884
15510TIP3    H267946   1.157   2.424   0.301 -2.4227 -0.9194 -0.5563
15511TIP3   OH267947   5.206   3.905  11.784 -0.4493  0.0420 -0.3216
15511TIP3    H167948   5.118   3.935  11.808 -0.5877 -0.1712 -0.5517
15511TIP3    H267949   5.206   3.812  11.806 -0.2266  0.0778 -0.1726
15512TIP3   OH267950   3.586   6.751  15.733 -0.2142 -0.0987  0.4056
15512TIP3    H167951   3.630   6.672  15.702  1.6178  1.4192 -1.1259
15512TIP3    H267952   3.508   6.758  15.677 -0.9275 -1.2771  1.2028
15513TIP3   OH267953   5.123   0.022   5.418  0.2500 -0.0992  0.3730
15513TIP3    H167954   5.028   0.012   5.430  0.0483  0.5541 -0.5540
15513TIP3    H267955   5.159   0.016   5.506 -0.3730 -3.0585  0.5241
15514TIP3   OH267956   1.248   5.704  15.519  0.5192 -0.2959 -0.1791
15514TIP3    H167957   1.306   5.649  15.571  0.4442 -0.7088 -0.5243
15514TIP3    H267958   1.195   5.642  15.469 -2.2664 -0.0474  2.2494
15515TIP3   OH267959   2.134   1.181  10.211  0.0721 -0.0096  0.1383
15515TIP3    H167960   2.129   1.151  10.301 -2.2433 -1.6022 -0.4310
15515TIP3    H267961   2.213   1.139  10.176  0.4236 -0.2018  1.1398
15516TIP3   OH267962   2.709   2.281  16.913 -0.2380  0.1896 -0.0693
15516TIP3    H167963   2.674   2.361  16.952 -1.0117 -0.9262  1.6664
15516TIP3    H267964   2.758   2.239  16.984  2.5615  0.4433 -1.7367
15517TIP3   OH267965   6.420   4.858  15.798  0.1771 -0.8440 -0.1675
15517TIP3    H167966   6.329   4.885  15.788 -0.1202 -1.9248 -0.5695
15517TIP3    H267967   6.421   4.804  15.877  0.5779 -0.4128  0.1270
15518TIP3   OH267968   4.732   0.696  15.301  0.0023  0.8239  0.3140
15518TIP3    H167969   4.743   0.704  15.396 -3.6463 -2.0625  1.2015
15518TIP3    H267970   4.803   0.638  15.274  0.4973  0.8879  1.4232
15519TIP3   OH267971   1.530   0.234  12.844 -0.0684  0.0374 -0.2508
15519TIP3    H167972   1.591   0.307  12.854 -1.1797  1.1310 -1.0332
15519TIP3    H267973   1.583   0.162  12.810  0.9007  0.7388 -0.2685
15520TIP3   OH267974   0.832   1.432   4.556  0.0359 -0.0957  0.2793
15520TIP3    H167975   0.850   1.473   4.641  1.5830 -0.7239  0.2949
15520TIP3    H267976   0.824   1.506   4.495  1.6406  0.3148  0.5144
15521TIP3   OH267977   6.386   3.596  12.037 -0.3020 -0.0733 -0.3542
15521TIP3    H167978   6.435   3.514  12.033  0.7008  0.4311  0.7971
15521TIP3    H267979   6.448   3.659  12.073 -1.0063  1.2442 -1.3604
15522TIP3   OH267980   1.218   4.244   3.780 -0.5973  0.1701  0.6314
15522TIP3    H167981   1.262   4.239   3.695 -0.7272  2.5676  0.3414
15522TIP3    H267982   1.289   4.238   3.844  0.0562  2.3334  0.1999
15523TIP3   OH267983   5.952   3.779   4.733 -0.1401 -0.0351 -0.2535
15523TIP3    H167984   5.973   3.725   4.657 -0.9658 -0.2506 -0.3408
15523TIP3    H267985   5.886   3.840   4.701 -0.4686 -0.1061  0.2739
15524TIP3   OH267986   5.132   3.789  13.302  0.6706 -0.0337 -0.2478
15524TIP3    H167987   5.057   3.773  13.245 -0.1470 -2.5588  1.3647
15524TIP3    H267988   5.125   3.882  13.324 -1.8249 -0.0925 -0.4425
15525TIP3   OH267989   4.456   3.597  11.482  0.0397 -0.1947 -0.1343
15525TIP3    H167990   4.471   3.582  11.389 -2.4172 -0.0562 -0.6021
15525TIP3    H267991   4.361   3.595  11.493  0.1069  2.2324  1.9455
15526TIP3   OH267992   6.579   3.395  14.944  0.0178 -0.9714  0.1321
15526TIP3    H167993   6.531   3.370  15.023 -0.9580  0.4105 -0.0015
15526TIP3    H267994   6.665   3.423  14.977 -1.1894  2.0356  1.0856
15527TIP3   OH267995   1.883   0.983   3.347  0.2184  0.7420 -0.2391
15527TIP3    H167996   1.836   1.056   3.388  1.8524  1.6116  0.1572
15527TIP3    H267997   1.900   1.013   3.258 -0.3120  0.2567 -0.5119
15528TIP3   OH267998   5.642   6.061  16.726  0.3575 -0.4036 -0.1281
15528TIP3    H167999   5.618   6.154  16.727  1.5288 -0.0474 -1.5949
15528TIP3    H268000   5.698   6.050  16.803 -0.4383 -0.1039  0.5097
15529TIP3   OH268001   0.093   6.115   4.578 -0.5339  0.1458 -0.1355
15529TIP3    H168002   0.182   6.128   4.547 -0.6337  0.2531 -0.3823
15529TIP3    H268003   0.077   6.187   4.639  1.0522 -2.1809  3.3785
15530TIP3   OH268004   3.509   5.172  14.871 -0.0510 -0.5463  0.4722
15530TIP3    H168005   3.451   5.239  14.834  0.2538 -1.9335 -2.9387
15530TIP3    H268006   3.583   5.221  14.907 -1.5949  1.0565  1.6398
15531TIP3   OH268007   5.658   3.342  10.693  0.3213 -0.5780  0.5313
15531TIP3    H168008   5.573   3.309  10.721  0.1119  0.6543  1.4050
15531TIP3    H268009   5.695   3.270  10.641 -0.8269 -1.5039  0.9415
15532TIP3   OH268010   2.400   3.855  11.904 -0.0568  0.2150  0.0810
15532TIP3    H168011   2.485   3.896  11.893 -0.6804  1.2316 -1.1741
15532TIP3    H268012   2.408   3.804  11.985  2.0877 -0.6534 -0.6219
15533TIP3   OH268013   5.251   2.259   2.745  0.1770  0.0127 -0.3254
15533TIP3    H168014   5.241   2.166   2.722 -0.8804  0.1254 -0.3494
15533TIP3    H268015   5.288   2.299   2.667 -0.3220 -0.2088 -0.6804
15534TIP3   OH268016   3.229   3.598  11.779  0.2285  0.6134  0.3414
15534TIP3    H168017   3.244   3.692  11.783 -1.3582  0.8692  1.0200
15534TIP3    H268018   3.216   3.580  11.686  0.5232  1.0582  0.2091
15535TIP3   OH268019   0.085   1.099  15.292  0.3679 -0.0365 -0.0208
15535TIP3    H168020   0.015   1.165  15.293 -0.3859 -0.7795 -0.9275
15535TIP3    H268021   0.101   1.080  15.384 -0.4225  0.3734  0.2161
15536TIP3   OH268022   5.083   2.777   4.815 -0.0863  0.2939  0.3086
15536TIP3    H168023   5.142   2.796   4.742  0.2666  1.0626  0.7764
15536TIP3    H268024   5.033   2.701   4.786 -0.1897  0.7834 -0.8619
15537TIP3   OH268025   1.180   5.042  10.550  0.0397  0.2168  0.3573
15537TIP3    H168026   1.095   5.067  10.514 -0.5482 -1.6551  0.3861
15537TIP3    H268027   1.206   4.964  10.502  0.9721 -0.2055  1.4822
15538TIP3   OH268028   3.816   3.815  15.364 -0.2346 -0.0296 -0.0748
15538TIP3    H168029   3.879   3.858  15.423  1.5151  0.6940 -2.3083
15538TIP3    H268030   3.827   3.722  15.382  0.9670  0.1204  0.1065
15539TIP3   OH268031   4.807   3.230   0.243 -0.5033  0.6576  0.0996
15539TIP3    H168032   4.733   3.209   0.299 -0.2419 -1.9418 -0.4211
15539TIP3    H268033   4.772   3.225   0.154  0.0621  0.4490 -0.1143
15540TIP3   OH268034   0.487   0.628  10.779  0.6651  0.0817 -0.1445
15540TIP3    H168035   0.523   0.713  10.752 -0.0206  0.4741  0.1602
15540TIP3    H268036   0.515   0.618  10.870  1.6842 -0.5430 -0.5034
15541TIP3   OH268037   4.919   4.714   4.509 -0.1022  0.0537  0.5025
15541TIP3    H168038   4.987   4.770   4.546  1.1261 -1.1010  0.0788
15541TIP3    H268039   4.876   4.769   4.443  1.5925  0.2932 -0.4722
15542TIP3   OH268040   2.387   1.952  14.931  0.1904  0.0616 -0.1662
15542TIP3    H168041   2.448   2.018  14.965 -0.5504 -0.1848  1.7447
15542TIP3    H268042   2.378   1.889  15.002  0.0434 -1.5506 -1.5526
15543TIP3   OH268043   6.609   1.430  14.991  0.4220 -0.0328 -0.2525
15543TIP3    H168044   6.700   1.451  14.969  0.3721  0.9026  0.3913
15543TIP3    H268045   6.572   1.512  15.022 -0.2800 -0.7027  0.7245
15544TIP3   OH268046   4.241   5.967   2.610  0.4683 -0.0621  0.1897
15544TIP3    H168047   4.296   6.017   2.671  1.3972 -1.9447  0.9683
15544TIP3    H268048   4.269   5.997   2.524  0.4495  1.2995  0.6234
15545TIP3   OH268049   2.297   0.815   1.899 -0.5469  0.6584  0.3150
15545TIP3    H168050   2.214   0.775   1.924  0.9570 -1.9569  1.5502
15545TIP3    H268051   2.331   0.760   1.829  1.1154  0.2946  1.3398
15546TIP3   OH268052   6.102   6.792   5.540 -0.0606  0.3886  0.0793
15546TIP3    H168053   6.094   6.828   5.629  3.0988  2.9865 -0.4781
15546TIP3    H268054   6.032   6.835   5.491 -1.7632 -0.9812  1.1946
15547TIP3   OH268055   6.685   4.903   6.451 -0.0969  0.4994 -0.1318
15547TIP3    H168056   6.756   4.943   6.500  0.9967 -0.6207 -0.7273
15547TIP3    H268057   6.692   4.939   6.363 -0.0848  0.1788 -0.2653
15548TIP3   OH268058   6.434   2.843  12.912  0.2338 -0.1248 -0.3843
15548TIP3    H168059   6.444   2.848  12.817 -0.9953  1.0439 -0.4719
15548TIP3    H268060   6.524   2.834  12.945  0.8613  1.3984 -1.5551
15549TIP3   OH268061   2.812   3.648  15.759  0.2950  0.5495 -0.4593
15549TIP3    H168062   2.882   3.713  15.755  1.7692 -1.0387 -1.3170
15549TIP3    H268063   2.832   3.596  15.837  0.4518 -0.2950 -1.0447
15550TIP3   OH268064   1.565   1.765   1.714  0.3791  0.2357 -0.0563
15550TIP3    H168065   1.657   1.791   1.713  0.7367 -0.9607 -0.8633
15550TIP3    H268066   1.564   1.683   1.764 -0.0037 -0.5144 -1.2603
15551TIP3   OH268067   0.373   1.906  14.333 -0.3427  0.2348 -0.2909
15551TIP3    H168068   0.378   1.979  14.395 -2.7259 -0.2276  0.5659
15551TIP3    H268069   0.318   1.940  14.262  0.5101  0.0188 -1.0688
15552TIP3   OH268070   6.092   4.149   3.060 -0.4597  0.2624  0.8960
15552TIP3    H168071   6.127   4.238   3.062 -0.4581  0.2538  1.5893
15552TIP3    H268072   6.027   4.150   2.990  0.7662  0.3309 -0.2863
15553TIP3   OH268073   5.924   2.622  16.149  0.4003  0.0524 -0.1593
15553TIP3    H168074   5.952   2.559  16.216  0.3338  1.0430  0.8282
15553TIP3    H268075   5.829   2.626  16.157  0.2816 -0.6126 -1.0558
15554TIP3   OH268076   6.604   5.972  11.597  0.0541  0.0871  0.0717
15554TIP3    H168077   6.664   6.038  11.632 -0.5694  1.0816 -0.6723
15554TIP3    H268078   6.613   5.898  11.656  1.3809  0.5319  0.4692
15555TIP3   OH268079   5.987   1.197   6.118 -0.1446  0.0321  0.2822
15555TIP3    H168080   5.927   1.239   6.179 -0.3755 -0.3406  0.3166
15555TIP3    H268081   6.018   1.119   6.165 -0.3427 -0.2703 -0.0804
15556TIP3   OH268082   6.128   2.777  11.191  0.1950 -0.4845  0.1891
15556TIP3    H168083   6.146   2.870  11.177 -1.2433 -0.1853  0.1530
15556TIP3    H268084   6.208   2.742  11.229  1.2935  0.4504 -1.1817
15557TIP3   OH268085   6.502   5.161   1.077  0.1684 -0.2126 -0.2837
15557TIP3    H168086   6.543   5.078   1.103 -0.3811 -0.7447 -1.0663
15557TIP3    H268087   6.469   5.145   0.989 -1.0059  0.4559  0.0064
15558TIP3   OH268088   3.812   1.297  16.084 -0.6471 -0.4142 -0.1474
15558TIP3    H168089   3.720   1.300  16.108 -1.2337 -0.1107 -2.2030
15558TIP3    H268090   3.839   1.207  16.104 -0.9526 -0.1302  1.7578
15559TIP3   OH268091   5.595   4.112  16.676 -0.6656  0.3237 -0.8769
15559TIP3    H168092   5.675   4.063  16.657 -0.3086 -0.1703  1.5315
15559TIP3    H268093   5.623   4.203  16.679 -0.1510  0.1541 -0.0477
15560TIP3   OH268094   2.737   0.880   0.459  0.8511 -0.1916 -0.7644
15560TIP3    H168095   2.719   0.812   0.394 -0.2323 -0.9448  0.2756
15560TIP3    H268096   2.827   0.863   0.487  0.8928 -0.6363 -1.1585
15561TIP3   OH268097   6.769   3.079  16.594  0.0029  0.0780  0.6067
15561TIP3    H168098   6.855   3.050  16.623 -0.1946  0.8563  2.0739
15561TIP3    H268099   6.726   2.999  16.563  2.1009  0.0186 -2.6662
15562TIP3   OH268100   2.051   4.052  15.213 -0.3132  0.0550 -0.4362
15562TIP3    H168101   2.115   4.122  15.227  1.2363 -1.3930 -0.0493
15562TIP3    H268102   1.977   4.096  15.171  0.0044  2.1881  1.1002
15563TIP3   OH268103   3.155   4.152  14.973  0.1323  1.3557  0.0659
15563TIP3    H168104   3.242   4.143  15.013  0.5745  1.6661 -0.8092
15563TIP3    H268105   3.166   4.221  14.907 -0.4153  0.3935 -1.0599
15564TIP3   OH268106   1.598   1.491  11.405 -0.3621 -0.2402 -0.5242
15564TIP3    H168107   1.534   1.500  11.335 -0.2869  0.9418 -0.4545
15564TIP3    H268108   1.681   1.519  11.366 -0.5946  1.9830  0.4300
15565TIP3   OH268109   3.077   5.645  14.362 -0.2594 -0.2682  0.2060
15565TIP3    H168110   2.997   5.619  14.317 -1.8633  0.3919  2.5385
15565TIP3    H268111   3.062   5.736  14.387  0.4079 -0.6824  2.3119
15566TIP3   OH268112   0.111   4.341   3.736  0.0876  0.6738  0.0573
15566TIP3    H168113   0.140   4.395   3.809  1.2394  1.3602 -0.8632
15566TIP3    H268114   0.054   4.397   3.684  0.3215  0.6339 -0.2543
15567TIP3   OH268115   2.250   0.528  10.336 -0.6181 -0.7525 -0.4309
15567TIP3    H168116   2.189   0.470  10.383  0.5871 -0.8465  1.1082
15567TIP3    H268117   2.314   0.554  10.403  0.3413  0.3004 -1.7123
15568TIP3   OH268118   3.489   2.554  14.008 -0.0383  0.2361  0.2113
15568TIP3    H168119   3.425   2.484  13.993  0.4410 -0.4263  1.1315
15568TIP3    H268120   3.440   2.635  13.993 -0.7097 -0.2773 -0.4841
15569TIP3   OH268121   6.715   6.434   6.187 -0.4368 -0.0763  0.4716
15569TIP3    H168122   6.769   6.513   6.187 -0.1813 -0.2419  1.1471
15569TIP3    H268123   6.627   6.465   6.164 -0.4003  0.4531  1.0192
15570TIP3   OH268124   1.333   3.602   3.294  0.6010  0.3127  0.0280
15570TIP3    H168125   1.263   3.664   3.312  0.9756  0.2328  1.9090
15570TIP3    H268126   1.326   3.585   3.200  0.0726  2.6601 -0.4110
15571TIP3   OH268127   5.529   3.597   4.959 -0.3007 -0.1066 -0.6555
15571TIP3    H168128   5.559   3.519   5.006  0.4534  0.7639  0.3623
15571TIP3    H268129   5.544   3.577   4.867  1.4288 -0.5527 -0.3142
15572TIP3   OH268130   6.669   5.778   3.921  0.2001 -0.6831 -0.0146
15572TIP3    H168131   6.594   5.797   3.976  0.2946 -1.0081  0.2324
15572TIP3    H268132   6.632   5.750   3.837  0.0233 -1.5863  0.3495
15573TIP3   OH268133   6.202   2.603  13.222 -0.2188 -0.3790 -0.4016
15573TIP3    H168134   6.188   2.564  13.135  0.2637 -1.6617  0.0808
15573TIP3    H268135   6.284   2.565  13.253 -0.8541 -0.6457  1.0171
15574TIP3   OH268136   6.440   3.897   2.728  0.2454  0.4134  0.2906
15574TIP3    H168137   6.398   3.851   2.655  1.4191  0.3042 -0.3356
15574TIP3    H268138   6.367   3.939   2.774 -0.4554  1.2475 -1.4689
15575TIP3   OH268139   1.238   2.230   0.212 -0.5874 -0.7519  0.1493
15575TIP3    H168140   1.308   2.269   0.160 -1.6826  2.4233  0.8384
15575TIP3    H268141   1.282   2.192   0.287  0.6015 -1.3769 -0.8310
15576TIP3   OH268142   5.214   4.541   2.743 -0.0838 -0.0840 -0.6477
15576TIP3    H168143   5.139   4.533   2.802 -0.6735 -0.3808 -1.4175
15576TIP3    H268144   5.291   4.536   2.801 -0.6442 -0.2756  0.0986
15577TIP3   OH268145   0.850   2.366  10.758 -0.1558 -0.3849 -0.2629
15577TIP3    H168146   0.935   2.386  10.797  0.3922 -0.8587 -1.1620
15577TIP3    H268147   0.830   2.277  10.788 -1.3727  0.4710  1.6617
15578TIP3   OH268148   0.995   2.824  15.673 -0.0312 -0.1378 -0.0340
15578TIP3    H168149   1.057   2.753  15.691 -0.9610 -0.5430  1.7486
15578TIP3    H268150   0.919   2.780  15.634 -0.2828 -0.0015  0.3051
15579TIP3   OH268151   6.565   0.794   3.542  0.4881  0.1738  0.6192
15579TIP3    H168152   6.537   0.867   3.486  0.5883  1.7249  2.4825
15579TIP3    H268153   6.507   0.799   3.618  1.1114 -1.1449  1.2118
15580TIP3   OH268154   0.967   4.224  13.311 -0.4983  0.2674  0.2116
15580TIP3    H168155   0.964   4.305  13.362 -0.6395  0.3852  0.0160
15580TIP3    H268156   1.044   4.178  13.343 -0.1763  0.6742  0.0225
15581TIP3   OH268157   3.961   0.273  13.668  0.5870 -0.3803  0.0421
15581TIP3    H168158   3.877   0.230  13.649  0.3235  0.4962 -0.8573
15581TIP3    H268159   3.953   0.359  13.628  1.1421  0.4906  1.6933
15582TIP3   OH268160   3.443   4.552  11.783 -0.3299 -0.2052 -0.0648
15582TIP3    H168161   3.504   4.624  11.773  0.1246 -0.2602  1.9062
15582TIP3    H268162   3.423   4.524  11.694  0.3192  1.6319 -0.8225
15583TIP3   OH268163   5.557   4.155  13.164  0.8708 -0.5574 -0.1380
15583TIP3    H168164   5.518   4.086  13.110 -0.8356 -0.3586  0.7843
15583TIP3    H268165   5.526   4.237  13.125  0.5632 -0.3905  0.4446
15584TIP3   OH268166   3.237   4.959   1.800  0.0368 -0.4690 -0.2113
15584TIP3    H168167   3.291   4.946   1.721 -0.0041  1.5004 -0.6101
15584TIP3    H268168   3.234   4.873   1.841  2.3740 -0.9544 -0.8936
15585TIP3   OH268169   3.853   1.330  15.189 -0.0466  0.2647  0.0762
15585TIP3    H168170   3.776   1.360  15.236  0.0342  3.2184 -1.4642
15585TIP3    H268171   3.927   1.370  15.235  0.3714 -0.3471 -0.0474
15586TIP3   OH268172   1.676   0.254   1.370  0.4323  0.9860 -1.0621
15586TIP3    H168173   1.742   0.217   1.428  0.9839  1.2697 -1.4948
15586TIP3    H268174   1.688   0.207   1.287 -0.0347  0.9084 -1.0878
15587TIP3   OH268175   0.747   0.139   0.604  0.0729 -0.1378  0.1846
15587TIP3    H168176   0.720   0.165   0.693  0.8138  0.2882  0.2976
15587TIP3    H268177   0.818   0.077   0.618 -0.2115 -0.5338 -0.1130
15588TIP3   OH268178   0.052   3.886   6.083 -0.1579  0.2770 -0.2506
15588TIP3    H168179   0.084   3.893   6.173 -1.6887 -0.6313  0.4035
15588TIP3    H268180   0.041   3.977   6.055  1.5524  0.5869 -0.0052
15589TIP3   OH268181   0.471   0.221  14.185 -0.0707  0.6816 -0.2952
15589TIP3    H168182   0.422   0.139  14.186  1.1507 -0.0744  0.9790
15589TIP3    H268183   0.525   0.218  14.264 -0.5693  3.0913  0.2153
15590TIP3   OH268184   4.795   3.514   3.221 -0.3883  0.2627 -0.4387
15590TIP3    H168185   4.858   3.517   3.293  0.6656  0.8169 -1.3621
15590TIP3    H268186   4.770   3.421   3.216  0.8573 -0.0982 -0.4690
15591TIP3   OH268187   3.320   4.979   3.800 -0.0408  0.9415  0.1431
15591TIP3    H168188   3.354   5.068   3.787  0.0679  0.8352 -0.3476
15591TIP3    H268189   3.351   4.931   3.723 -1.3918  0.8609 -0.3646
15592TIP3   OH268190   2.983   0.152   3.748  0.3632 -0.7699  0.1400
15592TIP3    H168191   3.012   0.232   3.792  0.3815 -0.4729 -0.4072
15592TIP3    H268192   3.048   0.137   3.680 -0.6085 -0.2304 -0.9492
15593TIP3   OH268193   6.709   0.860  15.164  0.5574  0.2153  0.4242
15593TIP3    H168194   6.800   0.882  15.186  0.9314 -1.8416  1.1507
15593TIP3    H268195   6.662   0.863  15.247  0.3494 -0.4212  0.3355
15594TIP3   OH268196   1.451   0.412  14.276  0.3368 -0.7389  0.3765
15594TIP3    H168197   1.357   0.393  14.269  0.7023 -3.3169  1.3655
15594TIP3    H268198   1.457   0.472  14.350 -0.5303 -0.6234  0.3654
15595TIP3   OH268199   4.705   0.609  15.950  0.0526 -0.1645  0.2550
15595TIP3    H168200   4.629   0.577  15.901  0.1187 -2.0179  1.2680
15595TIP3    H268201   4.773   0.618  15.884 -0.5905 -0.0983 -0.4110
15596TIP3   OH268202   6.063   1.992   6.237  0.1428 -0.2389 -0.3438
15596TIP3    H168203   6.036   1.916   6.186 -2.0074  1.3323 -1.7414
15596TIP3    H268204   6.065   1.961   6.327 -0.1643 -2.0520 -0.9172
15597TIP3   OH268205   2.773   3.646  16.710  0.6795 -0.3265  0.1795
15597TIP3    H168206   2.806   3.613  16.794  0.5536 -0.4348  0.1873
15597TIP3    H268207   2.733   3.569  16.669 -0.3735  0.0064  0.5692
15598TIP3   OH268208   1.379   6.347  16.986  0.2040  0.7799 -0.1844
15598TIP3    H168209   1.440   6.294  16.936  1.6940  2.1678  0.0988
15598TIP3    H268210   1.324   6.283  17.032  0.3640 -0.4940 -1.6866
15599TIP3   OH268211   0.829   2.562   2.302 -0.7846  0.6624 -0.0816
15599TIP3    H168212   0.845   2.604   2.217 -0.8570  2.8727  0.9231
15599TIP3    H268213   0.917   2.552   2.340 -0.6951 -0.8990 -0.6197
15600TIP3   OH268214   1.163   3.621   4.141  0.1251  0.5586 -0.4907
15600TIP3    H168215   1.127   3.660   4.222 -1.3260 -0.9377 -0.3613
15600TIP3    H268216   1.148   3.688   4.075 -0.9763  0.8478  0.0135
15601TIP3   OH268217   1.100   2.020  13.685  0.3487 -0.0742 -0.0490
15601TIP3    H168218   1.049   1.961  13.740 -0.4887 -1.7224 -2.4398
15601TIP3    H268219   1.191   1.995  13.701  0.0622 -1.2294 -0.1407
15602TIP3   OH268220   4.502   3.839   3.010  0.4554  0.4038  0.7058
15602TIP3    H168221   4.578   3.896   3.028  0.5825  0.9178 -1.2468
15602TIP3    H268222   4.538   3.766   2.960 -0.0468 -0.3530  1.4362
15603TIP3   OH268223   0.878   4.174   0.628 -0.1647 -0.0686  0.1425
15603TIP3    H168224   0.956   4.123   0.605 -0.0214  1.3310 -3.0047
15603TIP3    H268225   0.804   4.121   0.597 -0.3557 -0.3165  0.9744
15604TIP3   OH268226   6.138   6.720   0.720  0.4696 -0.0938 -0.5545
15604TIP3    H168227   6.079   6.786   0.757  2.7491  0.0029  3.4726
15604TIP3    H268228   6.082   6.642   0.710 -0.7058  0.2716  2.1524
15605TIP3   OH268229   0.357   6.297   1.088 -0.1431 -0.3859 -0.2569
15605TIP3    H168230   0.310   6.354   1.149  1.0090 -0.5088  0.7782
15605TIP3    H268231   0.442   6.284   1.128 -0.2621 -2.6220 -0.6120
15606TIP3   OH268232   5.493   4.201   2.005 -0.1673  0.0559 -0.1745
15606TIP3    H168233   5.541   4.133   2.053  0.1909  0.0695 -0.5139
15606TIP3    H268234   5.443   4.153   1.940 -1.4380 -0.0579  0.8429
15607TIP3   OH268235   1.654   2.714  13.674 -0.0410  0.5475 -0.4582
15607TIP3    H168236   1.643   2.798  13.720  2.5662  0.7961 -0.1593
15607TIP3    H268237   1.619   2.649  13.734 -0.2579  1.2315  0.1708
15608TIP3   OH268238   2.778   1.335  12.856 -0.7406 -0.1773 -0.1037
15608TIP3    H168239   2.840   1.278  12.903 -1.4354 -0.6250  0.2757
15608TIP3    H268240   2.795   1.315  12.764  1.3035  1.4053 -0.1476
15609TIP3   OH268241   4.855   3.312   5.100  0.0885 -0.2717  0.0694
15609TIP3    H168242   4.887   3.343   5.184 -0.2645 -0.9963  0.4796
15609TIP3    H268243   4.763   3.288   5.116 -0.5205  1.2470 -0.9532
15610TIP3   OH268244   1.236   5.038   4.264  0.1267  0.0822 -0.7292
15610TIP3    H168245   1.306   5.085   4.309 -0.7609 -0.3185  1.1854
15610TIP3    H268246   1.279   4.967   4.218  0.9661 -0.5660  0.9650
15611TIP3   OH268247   6.021   5.152  15.626 -0.1399 -0.3696 -0.2342
15611TIP3    H168248   5.932   5.150  15.661  0.4750 -0.8767  1.3902
15611TIP3    H268249   6.054   5.238  15.649 -0.4040  0.0748 -1.4287
15612TIP3   OH268250   4.468   3.074   1.905 -0.4966  0.0514  0.3866
15612TIP3    H168251   4.449   2.997   1.851 -0.0538 -0.2512  0.6586
15612TIP3    H268252   4.549   3.052   1.950  0.1381  1.0469 -0.2340
15613TIP3   OH268253   1.700   2.454  13.424 -0.2061 -0.4269 -0.4391
15613TIP3    H168254   1.615   2.446  13.467  0.0512 -1.0255 -0.0299
15613TIP3    H268255   1.703   2.381  13.363 -0.2793  0.0145 -0.9787
15614TIP3   OH268256   0.159   4.455  14.774  0.0207 -0.3739 -0.9800
15614TIP3    H168257   0.211   4.508  14.714  0.7084 -0.5110 -0.5116
15614TIP3    H268258   0.214   4.380  14.794  0.4704  0.4295  1.0422
15615TIP3   OH268259   0.560   3.715  13.633  0.2705 -0.3804  0.1797
15615TIP3    H168260   0.624   3.737  13.701  0.4269 -0.7976  0.1692
15615TIP3    H268261   0.482   3.689  13.682  0.6505 -1.5003  0.2261
15616TIP3   OH268262   2.249   0.988   1.164  0.0500  0.8115 -0.0600
15616TIP3    H168263   2.286   1.037   1.238  1.1551 -1.0789  0.6943
15616TIP3    H268264   2.306   1.010   1.090  0.1306  1.1741  0.1068
15617TIP3   OH268265   5.808   6.244  15.026 -0.1082 -0.2908  0.8939
15617TIP3    H168266   5.876   6.195  14.981  0.8149  1.2590  0.5354
15617TIP3    H268267   5.729   6.192  15.014  0.5069 -0.8818 -0.8463
15618TIP3   OH268268   1.440   6.422  13.590 -0.2049  0.8745  0.3685
15618TIP3    H168269   1.467   6.469  13.512 -1.7078 -0.0188 -0.7234
15618TIP3    H268270   1.492   6.342  13.589 -0.7388  0.5327 -0.1096
15619TIP3   OH268271   4.560   5.804  16.631  0.0169  0.1400 -0.3540
15619TIP3    H168272   4.488   5.866  16.626 -0.6323 -0.5616  0.0549
15619TIP3    H268273   4.603   5.825  16.714  0.1878  0.4504 -0.5184
15620TIP3   OH268274   0.247   2.390  16.614 -0.0281 -0.4008 -0.2074
15620TIP3    H168275   0.324   2.416  16.563  0.4187 -1.8608 -0.3486
15620TIP3    H268276   0.275   2.308  16.657 -0.2986  0.8725  2.5766
15621TIP3   OH268277   4.724   2.079  12.821  0.0961  0.1503  0.4901
15621TIP3    H168278   4.655   2.142  12.801  0.5551  0.2917 -0.6903
15621TIP3    H268279   4.692   1.996  12.786 -0.5531 -0.3285  2.1340
15622TIP3   OH268280   1.109   0.882  15.783 -0.1520 -0.4002 -0.5440
15622TIP3    H168281   1.162   0.837  15.849 -2.3523 -0.6219  1.1911
15622TIP3    H268282   1.045   0.817  15.756 -1.9333  0.9208  0.2913
15623TIP3   OH268283   0.508   1.131   2.619 -0.0055  0.3038 -0.2376
15623TIP3    H168284   0.551   1.196   2.675  0.9890 -0.4291 -0.1287
15623TIP3    H268285   0.574   1.063   2.606 -1.1394 -0.8545 -0.0835
15624TIP3   OH268286   4.327   4.979   4.151  0.1952  0.3010 -0.5405
15624TIP3    H168287   4.261   4.985   4.220 -0.0337  0.4130 -0.7633
15624TIP3    H268288   4.287   4.921   4.085  0.8957 -0.7667 -0.0517
15625TIP3   OH268289   2.108   5.867   4.279  0.4304 -0.1678  0.4752
15625TIP3    H168290   2.154   5.906   4.205  1.2588 -1.5340  0.2361
15625TIP3    H268291   2.048   5.804   4.241  0.6673 -0.6870  0.9438
15626TIP3   OH268292   2.390   0.320  10.195 -0.0108  0.5070  0.4472
15626TIP3    H168293   2.362   0.409  10.219 -3.1413 -0.7848  2.1452
15626TIP3    H268294   2.460   0.300  10.257  0.8109  1.7589 -0.0198
15627TIP3   OH268295   2.703   0.982  16.640  0.0205 -0.3003 -0.2658
15627TIP3    H168296   2.744   0.996  16.555 -0.6832  2.9728 -0.2131
15627TIP3    H268297   2.776   0.979  16.702  0.5254 -2.5541 -0.8746
15628TIP3   OH268298   0.334   5.209   1.084  0.1319 -0.1621 -0.1467
15628TIP3    H168299   0.253   5.186   1.038  0.8511 -0.1540 -1.4658
15628TIP3    H268300   0.388   5.254   1.019  1.0661  0.1534  0.8017
15629TIP3   OH268301   1.386   3.691  15.009 -0.2592  0.2926 -0.4100
15629TIP3    H168302   1.341   3.736  15.081  0.6366 -1.1033  1.0905
15629TIP3    H268303   1.438   3.623  15.052 -0.5759 -1.3592 -2.4704
15630TIP3   OH268304   1.708   2.960   5.182  0.3616  0.1686 -0.0076
15630TIP3    H168305   1.651   2.903   5.130 -0.7515  1.3966 -0.1985
15630TIP3    H268306   1.664   2.964   5.268  1.1904 -0.3538  0.4608
15631TIP3   OH268307   6.024   2.859  16.340  0.6352  0.1613 -0.1359
15631TIP3    H168308   6.001   2.795  16.272 -0.1652  1.3567 -1.0231
15631TIP3    H268309   6.057   2.934  16.292 -1.5613  1.7162  0.6387
15632TIP3   OH268310   3.840   1.620   1.464  0.7075  0.0997  0.6435
15632TIP3    H168311   3.755   1.581   1.447  1.2490 -0.8750  0.0545
15632TIP3    H268312   3.855   1.679   1.390  0.1683  0.9492  1.2028
15633TIP3   OH268313   3.951   2.794  16.402  0.9416  0.9476  0.5958
15633TIP3    H168314   4.042   2.804  16.373  0.5806  1.0382 -0.5519
15633TIP3    H268315   3.946   2.844  16.484  1.3129  3.0917 -0.6198
15634TIP3   OH268316   5.390   4.285   3.488 -0.3566 -0.6338 -0.0634
15634TIP3    H168317   5.444   4.209   3.512 -0.4577  0.0411  2.7348
15634TIP3    H268318   5.359   4.319   3.572 -3.2976  0.3867 -1.4259
15635TIP3   OH268319   4.375   4.534  14.258  0.7129  0.3707  0.2387
15635TIP3    H168320   4.388   4.595  14.330  2.4088  0.9161 -0.4810
15635TIP3    H268321   4.449   4.548  14.200 -0.3756 -0.3424 -1.4282
15636TIP3   OH268322   3.256   1.391  13.322  0.2223  0.6805  0.1153
15636TIP3    H168323   3.217   1.305  13.304 -0.4558  0.9917  0.0797
15636TIP3    H268324   3.282   1.386  13.414 -1.4374  1.0327  0.6406
15637TIP3   OH268325   5.272   4.084  11.368 -0.0246  0.8117  0.0497
15637TIP3    H168326   5.206   4.103  11.301 -0.3790  0.3094  0.2524
15637TIP3    H268327   5.322   4.165  11.376  1.0175  0.4050 -1.9143
15638TIP3   OH268328   5.180   1.608  12.985  0.3096  0.1300  0.3640
15638TIP3    H168329   5.224   1.676  13.036  1.8691 -1.0361  0.6445
15638TIP3    H268330   5.116   1.571  13.046  0.7688  0.0926  0.8296
15639TIP3   OH268331   1.618   6.253  14.458  0.2305 -0.1818  0.3470
15639TIP3    H168332   1.621   6.247  14.363  0.3559  0.5717  0.2943
15639TIP3    H268333   1.612   6.347  14.475 -0.8878 -0.3642  1.0479
15640TIP3   OH268334   2.354   2.072  12.881  0.6722 -0.6164 -0.2624
15640TIP3    H168335   2.301   2.117  12.815 -0.4954 -1.1311  0.2875
15640TIP3    H268336   2.441   2.065  12.842  0.6332  1.1994 -0.7650
15641TIP3   OH268337   5.572   4.356   5.193 -0.2517  0.5693  0.6035
15641TIP3    H168338   5.635   4.315   5.135  0.7624  1.2827  1.1601
15641TIP3    H268339   5.487   4.325   5.163  0.3999 -0.8956  0.2219
15642TIP3   OH268340   3.221   4.658  12.928  0.1327 -0.5316 -0.2805
15642TIP3    H168341   3.188   4.697  12.847 -1.7385 -0.1870  0.5825
15642TIP3    H268342   3.166   4.697  12.996  3.1485  0.9698  1.4620
15643TIP3   OH268343   2.802   2.216  13.204  0.1214  0.3091 -0.3234
15643TIP3    H168344   2.733   2.160  13.169  1.7474 -0.9186 -1.7293
15643TIP3    H268345   2.819   2.280  13.135  0.0994  0.8834  0.1946
15644TIP3   OH268346   4.872   6.539  16.504 -0.1941 -0.0331  0.4500
15644TIP3    H168347   4.813   6.560  16.576  0.8215  1.8662  0.8009
15644TIP3    H268348   4.871   6.617  16.449  1.5529 -0.1609  0.1864
15645TIP3   OH268349   3.857   2.425  15.491 -0.1098  0.0515  0.4642
15645TIP3    H168350   3.880   2.509  15.531  1.3247 -1.2849  2.6701
15645TIP3    H268351   3.883   2.360  15.556 -0.1492 -2.1717 -1.6080
15646TIP3   OH268352   3.721   4.128   0.577  0.0673  0.3880 -0.1357
15646TIP3    H168353   3.677   4.059   0.628 -1.8394 -0.0937 -2.2822
15646TIP3    H268354   3.776   4.080   0.515  1.2380  0.9220  0.4689
15647TIP3   OH268355   3.553   3.122  16.116  0.9155  0.7039  0.0805
15647TIP3    H168356   3.586   3.070  16.042 -0.9299 -0.2283 -0.1758
15647TIP3    H268357   3.513   3.199  16.075  2.8749  1.9393  0.3982
15648TIP3   OH268358   1.342   2.125  13.028 -0.4265  0.2926 -0.0636
15648TIP3    H168359   1.336   2.221  13.031  0.1323  0.3479 -0.5121
15648TIP3    H268360   1.428   2.108  12.991 -0.2073 -0.3976  0.7401
15649TIP3   OH268361   0.455   4.648  12.911  0.3947 -0.1114 -0.7172
15649TIP3    H168362   0.447   4.583  12.841  2.2072 -2.0250  0.7405
15649TIP3    H268363   0.547   4.646  12.935 -0.0543  1.0004  1.2628
15650TIP3   OH268364   2.586   2.055   0.046  0.0593  0.3412 -0.0396
15650TIP3    H168365   2.582   2.029   0.138  1.8498  2.0398  0.5935
15650TIP3    H268366   2.679   2.073   0.031 -0.3049  0.7400 -1.9982
15651TIP3   OH268367   3.134   0.897   2.288 -0.1236 -0.5740  0.2176
15651TIP3    H168368   3.228   0.883   2.299 -0.1378 -1.2410 -0.4086
15651TIP3    H268369   3.118   0.985   2.324  0.7704 -0.3686  0.1352
15652TIP3   OH268370   5.207   4.231   6.827 -0.1392 -0.1170  0.3058
15652TIP3    H168371   5.216   4.220   6.732  0.8760 -2.3333  0.5876
15652TIP3    H268372   5.283   4.284   6.852 -1.3222  1.9422 -0.2769
15653TIP3   OH268373   5.231   5.255  12.673 -0.0790 -0.2417 -0.1750
15653TIP3    H168374   5.143   5.292  12.659 -0.1166 -0.0837  0.4475
15653TIP3    H268375   5.290   5.325  12.644 -0.1527 -0.3508 -0.6046
15654TIP3   OH268376   6.452   0.182  15.184 -0.2254 -0.0100  0.0183
15654TIP3    H168377   6.456   0.122  15.257  0.4403  0.0474  0.0365
15654TIP3    H268378   6.441   0.126  15.107 -1.4595 -0.0395  0.2016
15655TIP3   OH268379   1.004   2.985  11.775 -0.0739 -0.2739  0.3277
15655TIP3    H168380   0.923   2.939  11.796  0.0004 -0.8109 -0.5102
15655TIP3    H268381   1.061   2.971  11.850 -0.7704  0.1549  0.9446
15656TIP3   OH268382   0.454   1.414   4.234  0.7763  0.2139  0.1082
15656TIP3    H168383   0.469   1.320   4.248  1.6948  0.4028  0.4675
15656TIP3    H268384   0.413   1.444   4.315 -0.8641 -0.1438 -0.5607
15657TIP3   OH268385   4.325   5.521   2.238 -0.5383 -0.1574 -0.2892
15657TIP3    H168386   4.417   5.528   2.213 -0.1937 -0.3096  0.8886
15657TIP3    H268387   4.288   5.607   2.220 -0.0657  0.0248 -0.3849
15658TIP3   OH268388   0.708   1.395   5.827 -0.1763  0.1815  0.7266
15658TIP3    H168389   0.727   1.450   5.751  0.4097 -0.8944  0.0715
15658TIP3    H268390   0.627   1.349   5.803  0.8393 -1.3312  0.0555
15659TIP3   OH268391   1.919   0.791   5.432 -0.0069  0.6230 -0.4380
15659TIP3    H168392   1.999   0.834   5.400  1.5374 -2.0595 -0.5146
15659TIP3    H268393   1.914   0.818   5.524  1.1871  0.5799 -0.3384
15660TIP3   OH268394   0.491   5.475   1.352  0.0890  0.3828 -0.2021
15660TIP3    H168395   0.530   5.494   1.267  1.6706  0.6384  0.5570
15660TIP3    H268396   0.536   5.532   1.414  0.1071 -0.9237  1.0582
15661TIP3   OH268397   1.517   1.468  13.427  0.3451  0.0596 -0.8192
15661TIP3    H168398   1.477   1.435  13.347 -0.6629  2.1276 -1.2435
15661TIP3    H268399   1.500   1.563  13.425  0.9482  0.2729  1.4623
15662TIP3   OH268400   2.860   4.406  16.223 -0.2900 -0.4412 -0.0682
15662TIP3    H168401   2.897   4.384  16.309  0.0096 -0.9519 -0.3219
15662TIP3    H268402   2.908   4.485  16.196  0.5469 -1.0239 -0.3370
15663TIP3   OH268403   3.703   5.307  11.313  0.0282  0.1166 -0.4446
15663TIP3    H168404   3.659   5.368  11.373  0.3452 -1.1299  1.1011
15663TIP3    H268405   3.632   5.269  11.261 -0.5816 -0.7152  0.9525
15664TIP3   OH268406   1.010   3.355  13.819  0.0051 -0.1782 -0.3764
15664TIP3    H168407   1.025   3.391  13.907  0.0982 -0.5679 -0.2314
15664TIP3    H268408   0.974   3.429  13.769 -0.4708 -0.0764  0.1109
15665TIP3   OH268409   4.353   2.567   5.057  0.0716 -0.2970  0.1721
15665TIP3    H168410   4.273   2.543   5.104  0.1347 -0.2164  0.3212
15665TIP3    H268411   4.329   2.560   4.965 -0.6803  1.5037  0.1762
15666TIP3   OH268412   6.311   4.156  16.308 -0.1777  0.1776 -0.9513
15666TIP3    H168413   6.239   4.151  16.371 -1.6397  0.7013 -2.4990
15666TIP3    H268414   6.325   4.065  16.281 -0.3819  0.0936 -0.7774
15667TIP3   OH268415   6.599   4.017   1.660 -0.2009  0.4969 -0.5521
15667TIP3    H168416   6.537   3.955   1.699  0.9013 -2.7611 -3.5005
15667TIP3    H268417   6.677   4.010   1.715 -0.1946 -0.5240 -0.6749
15668TIP3   OH268418   3.865   5.364  13.291 -0.0306 -0.5390  0.5200
15668TIP3    H168419   3.831   5.370  13.201  0.2381  2.0191  0.5160
15668TIP3    H268420   3.883   5.271  13.303 -2.6737 -1.3854 -1.0869
15669TIP3   OH268421   0.875   1.425   2.389  0.4281 -0.4022 -0.3916
15669TIP3    H168422   0.868   1.521   2.382  3.1416 -0.2183 -2.2415
15669TIP3    H268423   0.872   1.394   2.298  0.4899 -2.0034  0.1234
15670TIP3   OH268424   2.566   2.981   5.021 -0.2907 -0.5740 -0.4883
15670TIP3    H168425   2.507   2.976   4.946 -0.2603 -0.1043 -0.5481
15670TIP3    H268426   2.580   3.075   5.035  0.2797 -0.6734 -0.3451
15671TIP3   OH268427   2.371   5.052   2.657  0.3901 -0.1895 -0.0183
15671TIP3    H168428   2.433   5.055   2.584  1.0554  0.0608  0.5437
15671TIP3    H268429   2.285   5.045   2.616  0.7359  0.2354 -0.8309
15672TIP3   OH268430   0.982   3.260  12.690 -0.1562 -0.0198 -0.0260
15672TIP3    H168431   1.052   3.235  12.630  1.2311 -1.8771  2.1885
15672TIP3    H268432   1.020   3.251  12.777 -1.5957  4.0027  1.2522
15673TIP3   OH268433   1.752   1.841   3.336 -0.4015  0.3099  0.1364
15673TIP3    H168434   1.702   1.801   3.264 -2.1171  2.4301  0.0216
15673TIP3    H268435   1.807   1.906   3.292  0.5394 -0.2093  0.5272
15674TIP3   OH268436   0.766   6.379   5.725 -0.5010  0.0590 -0.7475
15674TIP3    H168437   0.842   6.428   5.692 -0.3778  0.3688 -0.0080
15674TIP3    H268438   0.703   6.447   5.749  0.1213 -0.0700  1.3972
15675TIP3   OH268439   1.516   0.595   3.294 -0.0477 -0.2621 -0.7976
15675TIP3    H168440   1.570   0.518   3.310  0.1931 -0.1140 -0.8854
15675TIP3    H268441   1.564   0.667   3.334 -1.7877 -0.5894  2.1396
15676TIP3   OH268442   6.372   3.835  13.095  0.0977  0.2023 -0.5454
15676TIP3    H168443   6.297   3.804  13.044  0.1839  1.6444 -1.5986
15676TIP3    H268444   6.426   3.757  13.107 -2.6557 -1.4735  2.3690
15677TIP3   OH268445   1.676   3.736   6.378  0.7900 -0.5644  0.3350
15677TIP3    H168446   1.599   3.719   6.432 -0.9674 -2.0441 -2.4465
15677TIP3    H268447   1.667   3.827   6.351 -0.5923 -0.9999 -0.7761
15678TIP3   OH268448   2.177   4.677   4.356 -0.4581  0.7418  0.2996
15678TIP3    H168449   2.188   4.767   4.327 -0.3259  0.8775  0.7672
15678TIP3    H268450   2.120   4.682   4.432 -0.1068  0.4791  0.5884
15679TIP3   OH268451   2.174   4.300  14.951 -0.7829 -0.3344  0.1119
15679TIP3    H168452   2.200   4.271  15.038 -0.8251  0.9334  0.5722
15679TIP3    H268453   2.204   4.231  14.892 -1.1023 -1.4029  1.1566
15680TIP3   OH268454   2.172   0.146  13.619  0.2741  0.4176 -0.0255
15680TIP3    H168455   2.262   0.128  13.591  0.3967  0.3339  0.4048
15680TIP3    H268456   2.183   0.193  13.702 -0.0795  0.3988  0.0309
15681TIP3   OH268457   2.044   0.302   5.305 -0.3366  0.2911 -0.1047
15681TIP3    H168458   2.026   0.359   5.380 -0.9738  0.0721 -0.0844
15681TIP3    H268459   2.004   0.347   5.230 -1.2877 -0.3591 -0.0047
15682TIP3   OH268460   2.224   4.982  13.624  0.1178 -0.0692 -0.1114
15682TIP3    H168461   2.140   4.935  13.620  1.0477 -1.7829 -1.0741
15682TIP3    H268462   2.240   4.994  13.717 -1.2877  0.4828  0.0900
15683TIP3   OH268463   5.059   3.110   1.039 -0.0429  0.5208  0.1770
15683TIP3    H168464   5.009   3.035   1.071 -0.1396  0.7172  0.5015
15683TIP3    H268465   5.001   3.153   0.976 -0.7598  1.3931  1.3815
15684TIP3   OH268466   5.456   4.427  14.590 -0.2464 -0.9804 -0.3298
15684TIP3    H168467   5.435   4.363  14.658 -1.0416 -0.9188 -0.5150
15684TIP3    H268468   5.384   4.490  14.593  0.5330 -0.0714 -0.1358
15685TIP3   OH268469   5.772   3.137   2.787 -0.3436 -0.1683 -0.0011
15685TIP3    H168470   5.779   3.158   2.694 -1.8692 -0.9406 -0.3248
15685TIP3    H268471   5.681   3.112   2.799  0.0110 -0.8543  1.5456
15686TIP3   OH268472   3.794   0.843  11.183 -0.0750 -0.2426  0.2178
15686TIP3    H168473   3.889   0.838  11.171 -0.0555  0.7157 -0.1329
15686TIP3    H268474   3.781   0.924  11.232 -0.5604 -1.5040  2.2676
15687TIP3   OH268475   5.656   1.256   0.233 -0.5513 -0.2022  0.2593
15687TIP3    H168476   5.679   1.169   0.265 -0.4302  0.2512  1.4605
15687TIP3    H268477   5.702   1.316   0.292 -0.2953  0.6789 -0.8027
15688TIP3   OH268478   4.885   1.084  15.933  0.2805  0.7995  0.8785
15688TIP3    H168479   4.944   1.092  16.009  1.6341 -0.6315  0.0313
15688TIP3    H268480   4.934   1.032  15.870 -1.9033 -0.4508  0.1029
15689TIP3   OH268481   5.163   3.215  11.944 -0.7318  0.3840  0.1186
15689TIP3    H168482   5.214   3.252  12.016 -0.8740 -0.6821  0.7879
15689TIP3    H268483   5.220   3.148  11.906 -1.6942 -0.9938  1.0334
15690TIP3   OH268484   4.410   2.868   0.981  0.1841  0.7135  0.4457
15690TIP3    H168485   4.433   2.947   1.029 -1.4752  0.1859  2.2664
15690TIP3    H268486   4.378   2.807   1.049  0.6109 -1.2092 -0.9850
15691TIP3   OH268487   1.150   6.413  12.250  0.0257  0.6024 -0.1947
15691TIP3    H168488   1.198   6.371  12.179 -1.5795  0.8785 -1.5103
15691TIP3    H268489   1.217   6.449  12.308  1.3747  0.3978 -1.5958
15692TIP3   OH268490   3.170   5.854   1.303 -0.2858  0.3099  0.1120
15692TIP3    H168491   3.130   5.865   1.389 -2.1913 -1.6503 -0.3959
15692TIP3    H268492   3.180   5.943   1.269 -0.6885  1.0573  1.8420
15693TIP3   OH268493   3.577   1.635  10.813  0.2862  0.1380  0.1562
15693TIP3    H168494   3.576   1.716  10.762  1.3145  0.4911  0.6719
15693TIP3    H268495   3.612   1.661  10.898 -1.2755 -0.4587  1.0287
15694TIP3   OH268496   6.565   5.947   0.152  0.0617 -0.0004 -0.7957
15694TIP3    H168497   6.612   5.941   0.069  0.7144 -1.7745 -0.3315
15694TIP3    H268498   6.491   5.886   0.142 -1.7493  2.1038 -1.1945
15695TIP3   OH268499   3.405   0.826   4.480 -0.1045  0.4411  0.7645
15695TIP3    H168500   3.412   0.784   4.394  1.0031  3.2922 -0.6547
15695TIP3    H268501   3.376   0.755   4.538  0.7515 -2.0308 -1.5737
15696TIP3   OH268502   4.776   2.230  10.881  0.9180 -0.0376 -0.2166
15696TIP3    H168503   4.842   2.252  10.816 -0.7610  0.4674 -1.8529
15696TIP3    H268504   4.791   2.291  10.953  3.0435 -0.8394  0.0915
15697TIP3   OH268505   5.544   4.516  15.706  0.4200 -0.1861  0.3545
15697TIP3    H168506   5.551   4.603  15.667 -0.1146 -0.5715 -0.6473
15697TIP3    H268507   5.530   4.457  15.631  2.1134 -1.3161  0.8717
15698TIP3   OH268508   3.179   6.421  16.578  0.1733 -0.7706  0.3154
15698TIP3    H168509   3.199   6.451  16.667  0.7137 -2.4244  0.7805
15698TIP3    H268510   3.263   6.423  16.532  0.6302 -3.2573  0.9054
15699TIP3   OH268511   4.336   2.610  15.967  0.6319  0.2379 -0.4284
15699TIP3    H168512   4.421   2.646  15.992  1.6496 -1.4081 -1.3663
15699TIP3    H268513   4.316   2.651  15.883  1.1448 -0.3808 -0.8534
15700TIP3   OH268514   4.851   5.153  15.166 -0.6140  0.1664  0.0787
15700TIP3    H168515   4.813   5.240  15.178 -1.1742 -0.2466  1.5753
15700TIP3    H268516   4.847   5.137  15.072 -1.1535  1.4632 -0.1361
15701TIP3   OH268517   5.236   2.128   4.140 -0.1875  0.4640 -0.2357
15701TIP3    H168518   5.263   2.219   4.130  0.1413  0.4201  0.2258
15701TIP3    H268519   5.248   2.109   4.233  0.5216 -0.2891 -0.4694
15702TIP3   OH268520   2.852   6.087  16.535  0.2225  0.2384 -0.7633
15702TIP3    H168521   2.947   6.101  16.535  0.0366  2.5367  1.9117
15702TIP3    H268522   2.818   6.151  16.473  0.3415  1.2982  0.2140
15703TIP3   OH268523   2.152   4.964   2.043 -0.5889  0.3002  0.1363
15703TIP3    H168524   2.163   5.059   2.053 -0.7017  0.3082  0.1923
15703TIP3    H268525   2.058   4.953   2.026 -0.3580  0.3164 -1.2663
15704TIP3   OH268526   0.589   4.872   0.222  0.2763  0.0949  0.1427
15704TIP3    H168527   0.654   4.870   0.292 -0.9433  0.5170  1.3129
15704TIP3    H268528   0.588   4.782   0.188 -0.7472 -0.7405  2.2314
15705TIP3   OH268529   2.500   0.847  13.035 -0.0213  0.0768 -0.3107
15705TIP3    H168530   2.508   0.798  13.117 -0.1228 -0.8399 -0.8286
15705TIP3    H268531   2.534   0.787  12.968  1.2028  1.2586 -0.8044
15706TIP3   OH268532   3.621   1.516   0.891 -0.4252  0.5155  0.3334
15706TIP3    H168533   3.653   1.606   0.902 -1.7832  1.0185  0.4155
15706TIP3    H268534   3.654   1.469   0.968  0.1264  0.9888  0.3936
15707TIP3   OH268535   3.923   5.632  15.583  0.0555 -0.0942  0.0682
15707TIP3    H168536   3.837   5.615  15.623 -0.0202 -0.2665 -0.1646
15707TIP3    H268537   3.919   5.588  15.498  0.4349 -0.2475  0.1279
15708TIP3   OH268538   3.141   2.074  11.964  0.1958  0.4249 -0.4545
15708TIP3    H168539   3.207   2.034  11.906  0.6813  0.1622  0.2656
15708TIP3    H268540   3.086   2.001  11.992 -0.2517  0.6042 -0.8400
15709TIP3   OH268541   0.663   2.256   0.273  0.5417  0.3030 -0.2364
15709TIP3    H168542   0.685   2.344   0.240 -0.7359  0.4550 -0.7589
15709TIP3    H268543   0.610   2.217   0.204  0.0114 -0.3902  0.5356
15710TIP3   OH268544   1.788   1.082   2.714 -0.0548 -0.0033 -0.7348
15710TIP3    H168545   1.711   1.120   2.758 -0.6135 -1.6504 -0.2174
15710TIP3    H268546   1.784   1.116   2.625 -0.5207  1.1251 -0.3104
15711TIP3   OH268547   6.063   3.455   5.357  0.1581 -0.0868 -0.4939
15711TIP3    H168548   6.132   3.396   5.326 -0.9943 -1.8885  0.2077
15711TIP3    H268549   5.993   3.446   5.293 -0.1248  0.3287 -0.2460
15712TIP3   OH268550   3.030   6.525   3.388 -0.1358  0.4241  0.0248
15712TIP3    H168551   2.964   6.526   3.457 -0.0253  1.1349  0.1279
15712TIP3    H268552   2.998   6.461   3.325  0.1200 -0.8100  1.0816
15713TIP3   OH268553   4.376   5.484  15.296 -0.4944  0.4831 -0.1584
15713TIP3    H168554   4.457   5.496  15.346 -0.0770  1.1556 -0.9770
15713TIP3    H268555   4.368   5.564  15.244 -0.7050 -0.3731 -1.4877
15714TIP3   OH268556   1.915   0.012  15.755  0.1247 -0.5728  0.5381
15714TIP3    H168557   1.877  -0.060  15.805  1.1932  0.3421  2.8280
15714TIP3    H268558   1.994  -0.024  15.716 -0.8097 -1.3413 -0.7363
15715TIP3   OH268559   4.346   3.208  16.732 -0.4657  0.4451 -0.3608
15715TIP3    H168560   4.290   3.144  16.688 -1.7116  0.7306  0.7663
15715TIP3    H268561   4.330   3.194  16.825  0.3749  1.4196 -0.0485
15716TIP3   OH268562   2.677   6.574   0.437 -0.2897 -0.0997  0.4574
15716TIP3    H168563   2.753   6.531   0.399  0.7700 -0.0093  2.3662
15716TIP3    H268564   2.650   6.516   0.509 -0.0327  1.4224  1.8356
15717TIP3   OH268565   6.648   2.544   4.276  0.4429  0.1148 -0.0831
15717TIP3    H168566   6.677   2.526   4.186  0.2664 -0.2232 -0.0731
15717TIP3    H268567   6.697   2.482   4.330  0.3807  0.1658  0.0324
15718TIP3   OH268568   4.551   1.210   1.325 -0.3140  0.0197  0.0737
15718TIP3    H168569   4.553   1.121   1.290 -1.5211 -0.0283  0.0659
15718TIP3    H268570   4.569   1.266   1.250 -1.0965 -0.1595 -0.2547
15719TIP3   OH268571   4.562   1.415   4.825  0.3131  0.5748 -0.3261
15719TIP3    H168572   4.502   1.460   4.885  0.5698 -1.1648  1.3434
15719TIP3    H268573   4.508   1.346   4.785  1.0651 -0.8488  1.0080
15720TIP3   OH268574   0.911   1.250  12.135 -0.2274  0.0956  0.0513
15720TIP3    H168575   0.954   1.329  12.168  0.8204 -1.3991  2.5607
15720TIP3    H268576   0.819   1.261  12.157 -0.1246  0.7182  0.1766
15721TIP3   OH268577   3.907   6.595   4.470 -0.1443 -0.1611 -0.1043
15721TIP3    H168578   3.824   6.606   4.424  1.3302  2.2261 -2.4823
15721TIP3    H268579   3.963   6.547   4.409  0.3684 -1.4845  1.3394
15722TIP3   OH268580   3.094   0.011  16.980  0.0141 -0.0703 -0.2896
15722TIP3    H168581   3.183  -0.024  16.967  0.2784  0.9552 -1.3529
15722TIP3    H268582   3.041  -0.035  16.916 -0.0745 -0.1048 -0.1925
15723TIP3   OH268583   2.157   3.587   0.750 -0.0442  0.0925  0.6813
15723TIP3    H168584   2.192   3.672   0.775  0.1038  0.7889 -1.6453
15723TIP3    H268585   2.064   3.591   0.774 -0.5994  1.8644 -1.4194
15724TIP3   OH268586   3.228   2.523   2.680 -0.4237 -0.1476  0.4471
15724TIP3    H168587   3.148   2.547   2.726 -1.1270  0.3700 -0.9785
15724TIP3    H268588   3.199   2.465   2.610  0.4911 -0.2468  0.1324
15725TIP3   OH268589   0.516   4.260   5.922  0.2851 -0.1092 -0.0301
15725TIP3    H168590   0.526   4.334   5.982  1.2152 -0.8902  0.8253
15725TIP3    H268591   0.551   4.185   5.971 -1.3898 -1.2903 -0.5526
15726TIP3   OH268592   0.106   2.917  10.996 -0.1288 -0.4612  0.2532
15726TIP3    H168593   0.193   2.884  10.973  0.2967  1.3320 -0.9246
15726TIP3    H268594   0.056   2.839  11.020  1.9325 -1.4792  1.4919
15727TIP3   OH268595   0.337   0.787  11.012  0.4621 -0.5938  0.3031
15727TIP3    H168596   0.371   0.872  10.982  1.2132 -1.3409 -1.1001
15727TIP3    H268597   0.381   0.771  11.095  1.3937 -0.2194 -0.0999
15728TIP3   OH268598   4.833   4.024  15.868  0.0836 -1.0006 -0.6468
15728TIP3    H168599   4.781   4.101  15.849  2.7182  1.2975  0.6800
15728TIP3    H268600   4.805   3.996  15.955  1.3778  0.6699  0.3802
15729TIP3   OH268601   6.340   3.860   1.659  0.1666 -0.2165  0.4028
15729TIP3    H168602   6.393   3.791   1.619  1.2427  0.4308  0.6944
15729TIP3    H268603   6.338   3.930   1.594 -0.0513 -0.1004  0.5334
15730TIP3   OH268604   4.392   2.614  11.491  0.2678  0.4632 -0.2036
15730TIP3    H168605   4.300   2.632  11.509  0.3112  0.6800 -0.2013
15730TIP3    H268606   4.440   2.653  11.564  0.3811  0.5764 -0.3376
15731TIP3   OH268607   5.533   3.793   2.846  0.4193  0.6653 -0.2233
15731TIP3    H168608   5.616   3.760   2.880  1.5205  0.0085 -3.2238
15731TIP3    H268609   5.480   3.715   2.831 -0.2329  0.9796  0.3721
15732TIP3   OH268610   6.119   0.069  14.180  0.2471  0.0185  0.3616
15732TIP3    H168611   6.042   0.014  14.194  0.4594 -0.1867  0.7429
15732TIP3    H268612   6.084   0.157  14.168 -0.0499 -0.0792  0.5119
15733TIP3   OH268613   4.257   3.295  13.027 -0.7237 -0.5411  0.3100
15733TIP3    H168614   4.174   3.258  12.998 -0.0043 -1.0480 -1.2357
15733TIP3    H268615   4.295   3.227  13.084 -0.7991 -0.8651 -0.0203
15734TIP3   OH268616   0.226   3.816   2.874 -0.3028 -0.1559 -0.2051
15734TIP3    H168617   0.187   3.770   2.800 -0.5566 -1.4026  0.6666
15734TIP3    H268618   0.228   3.750   2.944 -0.4682  1.1040  1.0211
15735TIP3   OH268619   4.114   3.874  15.999 -0.9689 -0.4721 -0.0441
15735TIP3    H168620   4.161   3.850  15.920  0.0176  0.4373  0.2470
15735TIP3    H268621   4.095   3.791  16.042 -0.5638 -0.9051 -0.6908
15736TIP3   OH268622   4.294   2.492   3.259 -0.6765 -0.2119 -0.3510
15736TIP3    H168623   4.380   2.509   3.219 -1.9483 -1.3871 -3.9439
15736TIP3    H268624   4.240   2.567   3.232 -1.2902 -0.4559  0.1820
15737TIP3   OH268625   0.496   2.337   5.825  0.2699  0.4308 -0.6376
15737TIP3    H168626   0.412   2.374   5.800  0.1800  1.6165  1.2586
15737TIP3    H268627   0.528   2.394   5.895  1.6670 -1.2086  0.1442
15738TIP3   OH268628   3.351   5.625   5.780 -0.2530 -0.2687  0.1530
15738TIP3    H168629   3.293   5.679   5.835  1.3490  0.6762  0.9850
15738TIP3    H268630   3.369   5.680   5.704  0.6098  0.0094  0.5441
15739TIP3   OH268631   2.592   0.742  16.506 -0.1911 -0.3602 -0.4310
15739TIP3    H168632   2.552   0.771  16.424 -0.0320  1.3408  0.0751
15739TIP3    H268633   2.644   0.816  16.536 -0.3995 -0.8810  1.3257
15740TIP3   OH268634   4.413   1.525  13.813 -0.2056 -0.5076  0.0299
15740TIP3    H168635   4.350   1.503  13.882  0.8761 -1.0027  0.8899
15740TIP3    H268636   4.499   1.519  13.855  0.6263 -2.5431 -1.7433
15741TIP3   OH268637   1.321   6.107   5.665  0.5444  0.4639  0.0906
15741TIP3    H168638   1.347   6.086   5.754  2.7810  1.4474 -0.2730
15741TIP3    H268639   1.401   6.101   5.613 -0.5038  0.8374 -1.6908
15742TIP3   OH268640   2.605   3.013   2.290  0.2314  0.2150 -0.3920
15742TIP3    H168641   2.650   2.959   2.226  0.5463  0.7933 -0.6657
15742TIP3    H268642   2.536   2.956   2.326  1.3811 -0.7794  0.2879
15743TIP3   OH268643   1.022   4.513   0.554  0.2568 -0.3343 -0.2021
15743TIP3    H168644   0.938   4.512   0.601  0.5557  1.4386  0.4843
15743TIP3    H268645   1.087   4.488   0.621  0.3066 -1.5985 -0.7035
15744TIP3   OH268646   6.418   3.023   3.972  0.3758  0.4923 -0.6730
15744TIP3    H168647   6.483   3.089   3.945 -1.9840  3.2278 -0.1790
15744TIP3    H268648   6.394   3.049   4.061 -1.3339 -0.4663 -0.8176
15745TIP3   OH268649   5.472   2.785  14.538  0.0295 -0.0752 -0.1820
15745TIP3    H168650   5.422   2.740  14.470  0.9174 -2.6495  0.7506
15745TIP3    H268651   5.563   2.779  14.510  0.3087 -0.2415  0.7106
15746TIP3   OH268652   1.613   4.376  15.210 -0.3286 -0.1851 -0.0330
15746TIP3    H168653   1.537   4.422  15.175 -0.8169 -0.7776  0.2330
15746TIP3    H268654   1.598   4.374  15.304  1.4373  2.2470  0.3882
15747TIP3   OH268655   3.288   3.889  16.981 -0.2642 -0.3839 -0.6236
15747TIP3    H168656   3.240   3.808  16.964 -0.9274  0.1171 -1.1875
15747TIP3    H268657   3.294   3.932  16.896  0.8858 -0.2676 -0.4917
15748TIP3   OH268658   0.030   4.884   0.892  0.2290  0.4125  0.5533
15748TIP3    H168659   0.092   4.835   0.839 -0.6038  0.8764 -0.9187
15748TIP3    H268660   0.079   4.961   0.921  1.0410 -0.4257  1.4659
15749TIP3   OH268661   3.092   5.869   5.014  0.2603 -0.0084 -0.5958
15749TIP3    H168662   3.034   5.867   4.938 -0.3701 -3.3853 -0.1964
15749TIP3    H268663   3.035   5.852   5.089  1.4039 -1.1844  0.0675
15750TIP3   OH268664   3.431   6.129  16.793 -0.4431 -0.1515 -0.2265
15750TIP3    H168665   3.472   6.215  16.800  0.2948 -0.5931  1.8829
15750TIP3    H268666   3.378   6.122  16.872  1.0023 -2.3208  0.6537
15751TIP3   OH268667   5.404   4.994   2.303 -0.2363 -0.5490 -0.8961
15751TIP3    H168668   5.460   5.028   2.374 -0.6926  1.1294 -1.2834
15751TIP3    H268669   5.325   4.965   2.348  0.2734 -1.4057 -0.5207
15752TIP3   OH268670   2.279   3.424  16.053 -0.0793 -0.1453 -0.2182
15752TIP3    H168671   2.223   3.373  15.994 -0.4255 -0.7066  0.5718
15752TIP3    H268672   2.264   3.386  16.140  1.6931 -0.4512 -0.0028
15753TIP3   OH268673   4.739   5.269  15.650  0.4811 -0.1548 -0.0370
15753TIP3    H168674   4.757   5.357  15.685 -1.8237 -0.1819  1.4238
15753TIP3    H268675   4.702   5.221  15.724  1.0261 -2.1606 -1.0053
15754TIP3   OH268676   4.795   6.621  15.258  0.1281 -0.2162  0.5320
15754TIP3    H168677   4.786   6.716  15.251  1.1215 -0.1887 -0.9618
15754TIP3    H268678   4.839   6.606  15.341  0.3070  0.6565  0.5948
15755TIP3   OH268679   6.204   4.902   0.071  0.4905  0.1284 -0.3699
15755TIP3    H168680   6.185   4.822   0.119  0.6781  0.7881  0.8591
15755TIP3    H268681   6.233   4.964   0.139  0.8404  1.0716 -1.3524
15756TIP3   OH268682   2.720   4.392  15.389 -0.3915 -0.4686 -0.3842
15756TIP3    H168683   2.652   4.331  15.362 -2.1809  0.1664  2.2724
15756TIP3    H268684   2.692   4.476  15.354 -0.8122 -0.2772  0.3841
15757TIP3   OH268685   4.134   6.644  10.725  0.9781 -0.2980  0.3016
15757TIP3    H168686   4.200   6.585  10.688  2.3244  0.9489  0.6457
15757TIP3    H268687   4.083   6.674  10.650  1.7262 -0.1595 -0.1618
15758TIP3   OH268688   5.046   4.925   1.169  0.1007 -0.0558  0.6169
15758TIP3    H168689   5.137   4.954   1.171  0.0282  0.2402 -0.1339
15758TIP3    H268690   5.046   4.841   1.215  0.9788 -0.6945 -0.5139
15759TIP3   OH268691   1.002   6.744  12.398  0.0432 -1.0687  0.5960
15759TIP3    H168692   1.051   6.822  12.370  0.9071 -1.6499  0.4664
15759TIP3    H268693   0.923   6.780  12.440  1.2816 -0.0720  2.1674
15760TIP3   OH268694   5.867   0.052  11.418 -1.1256 -0.2305 -0.2417
15760TIP3    H168695   5.826  -0.009  11.358  0.9005 -1.5953 -0.3408
15760TIP3    H268696   5.954   0.067  11.382 -0.4857  0.3128  1.3975
15761TIP3   OH268697   1.889   0.216  15.339  0.7627 -0.0517  0.6856
15761TIP3    H168698   1.849   0.289  15.386  1.8804  1.4471 -0.5811
15761TIP3    H268699   1.962   0.256  15.291  1.6213 -2.0755  0.2240
15762TIP3   OH268700   5.566   5.418   1.314 -0.5210 -0.3446 -0.1173
15762TIP3    H168701   5.574   5.474   1.391 -0.0873 -0.8604  0.2270
15762TIP3    H268702   5.613   5.338   1.338 -1.6012 -1.0833 -0.3740
15763TIP3   OH268703   1.164   6.648  13.347  0.3394  0.3592 -0.2527
15763TIP3    H168704   1.193   6.557  13.350  0.0580  0.2033 -1.5314
15763TIP3    H268705   1.069   6.643  13.332  0.3598  0.8564 -0.5923
15764TIP3   OH268706   1.557   5.184   5.009 -0.0187  0.4831  0.0962
15764TIP3    H168707   1.563   5.089   5.017 -0.0472  0.3889 -0.8364
15764TIP3    H268708   1.496   5.198   4.936 -0.4529  1.2232  0.5869
15765TIP3   OH268709   3.757   0.160  15.687 -0.6116 -0.0707  0.8219
15765TIP3    H168710   3.767   0.167  15.592 -0.4359 -0.5618  0.8047
15765TIP3    H268711   3.694   0.090  15.700 -1.4742  0.7328  1.0425
15766TIP3   OH268712   0.079   1.931   5.491 -0.4730  0.6256 -0.2841
15766TIP3    H168713   0.101   2.011   5.443  1.4070 -0.3461 -1.1491
15766TIP3    H268714   0.037   1.962   5.571  2.1085  2.6609  0.4338
15767TIP3   OH268715   0.996   5.362  12.618  0.7405 -0.0262 -0.5173
15767TIP3    H168716   0.903   5.382  12.611  0.9739  1.8683  0.9517
15767TIP3    H268717   1.002   5.269  12.598 -1.5768 -0.3752  0.1356
15768TIP3   OH268718   4.528   2.709   4.164 -0.2293  0.7151 -0.8400
15768TIP3    H168719   4.555   2.749   4.081 -0.0687  1.5532 -0.3949
15768TIP3    H268720   4.603   2.657   4.191  0.2927  1.6135 -0.5021
15769TIP3   OH268721   0.471   2.042   0.423  0.3621 -0.3924  0.5213
15769TIP3    H168722   0.487   2.087   0.340  0.9157 -0.1697  0.7430
15769TIP3    H268723   0.453   2.112   0.485 -3.2723 -0.6454 -0.0199
15770TIP3   OH268724   1.276   3.176   3.757  0.3831  0.7772  0.3977
15770TIP3    H168725   1.347   3.168   3.693 -2.4945 -1.2303 -2.9033
15770TIP3    H268726   1.276   3.092   3.803 -0.9760 -0.1529 -1.1428
15771TIP3   OH268727   2.463   5.075  13.799 -0.1881  0.3318  0.2678
15771TIP3    H168728   2.446   5.165  13.770 -0.7954  0.2645  0.3881
15771TIP3    H268729   2.550   5.078  13.839 -0.6084  1.0908  1.1656
15772TIP3   OH268730   5.389   4.366  13.724 -0.5265  0.7982  0.1972
15772TIP3    H168731   5.298   4.338  13.714 -0.4299  0.5951 -0.1397
15772TIP3    H268732   5.384   4.461  13.729 -0.8403  0.7446  1.1346
15773TIP3   OH268733   6.194   3.329   3.211 -0.1212 -0.1210 -0.1145
15773TIP3    H168734   6.154   3.345   3.125  0.5603  2.2840 -0.0543
15773TIP3    H268735   6.288   3.338   3.196  0.0401 -0.2635  0.7746
15774TIP3   OH268736   1.555   6.700   2.008 -0.3411  0.0682 -0.5500
15774TIP3    H168737   1.494   6.751   1.956  0.9922  1.7869 -0.5042
15774TIP3    H268738   1.637   6.750   2.006  0.4633 -1.0709  1.1297
15775TIP3   OH268739   4.363   6.543  14.264  0.0296 -0.7776 -0.0778
15775TIP3    H168740   4.380   6.463  14.314 -1.3386 -1.3728 -0.5335
15775TIP3    H268741   4.392   6.521  14.175  0.0561 -0.6119 -0.1095
15776TIP3   OH268742   1.329   6.398   1.742 -1.1732  0.5120 -0.5104
15776TIP3    H168743   1.301   6.310   1.766 -2.0857  1.1208  0.7802
15776TIP3    H268744   1.323   6.400   1.646 -2.0587 -0.5290 -0.4956
15777TIP3   OH268745   1.178   3.974   2.252  0.0924 -0.8043 -0.8057
15777TIP3    H168746   1.255   4.016   2.214 -0.0834 -1.2682 -1.7118
15777TIP3    H268747   1.203   3.882   2.263  0.3387 -0.5643  0.7860
15778TIP3   OH268748   4.645   6.428  13.190 -0.1696  0.8471  1.0186
15778TIP3    H168749   4.658   6.337  13.163  2.1034  1.0587  1.2232
15778TIP3    H268750   4.565   6.455  13.144 -0.4252 -0.9801  0.2835
15779TIP3   OH268751   5.938   6.682  15.085 -0.3688 -0.6487  0.6049
15779TIP3    H168752   6.006   6.616  15.096 -0.2083 -0.2107  2.6485
15779TIP3    H268753   5.955   6.720  14.999  2.2802 -0.2524  1.2116
15780TIP3   OH268754   5.739   5.170  15.675 -0.4380 -0.7142 -0.4932
15780TIP3    H168755   5.734   5.263  15.698 -0.8033 -0.5874 -1.0940
15780TIP3    H268756   5.649   5.139  15.679 -0.1588 -1.4322  1.2733
15781TIP3   OH268757   6.799   3.678  11.849  0.1520 -0.1671  0.1374
15781TIP3    H168758   6.764   3.595  11.885 -0.4094 -0.9455 -2.0540
15781TIP3    H268759   6.893   3.672  11.863  0.2589 -1.7413 -1.0028
15782TIP3   OH268760   1.104   1.360   0.762  0.5351 -0.0099  0.1399
15782TIP3    H168761   1.125   1.286   0.818 -1.0577 -0.9695 -0.4603
15782TIP3    H268762   1.008   1.364   0.762  0.5773  2.4876  0.6740
15783TIP3   OH268763   0.770   5.254   5.809  1.4375 -0.6558 -0.2615
15783TIP3    H168764   0.710   5.228   5.739 -1.6027  2.2949  0.9878
15783TIP3    H268765   0.762   5.185   5.875 -1.9131  0.3088  0.5117
15784TIP3   OH268766   3.832   2.518   5.078  0.2250  0.3953 -0.2101
15784TIP3    H168767   3.875   2.578   5.017  1.5489  0.1580  0.4426
15784TIP3    H268768   3.861   2.431   5.050  1.9755  0.3552  1.5242
15785TIP3   OH268769   2.336   4.456   5.240 -0.3974  0.2504 -0.8084
15785TIP3    H168770   2.330   4.449   5.145 -0.6361  0.6143 -0.8229
15785TIP3    H268771   2.291   4.538   5.261  0.1905  0.4905 -0.4396
15786TIP3   OH268772   4.167   0.104  15.205  0.4689  0.2204  0.3479
15786TIP3    H168773   4.178   0.132  15.114 -0.6210 -1.3152 -0.2946
15786TIP3    H268774   4.110   0.027  15.200  0.2252  0.2172  2.3549
15787TIP3   OH268775   5.223   4.906  11.376  0.6524 -0.2513  0.2557
15787TIP3    H168776   5.200   4.882  11.466 -1.2633 -0.7190 -0.3211
15787TIP3    H268777   5.290   4.974  11.386  0.5861 -0.4021  2.0280
15788TIP3   OH268778   2.888   3.186   4.566 -0.0354 -0.4968  0.0904
15788TIP3    H168779   2.972   3.141   4.578 -0.9535 -2.2262  0.3596
15788TIP3    H268780   2.907   3.278   4.586  1.2062 -1.2701  3.1412
15789TIP3   OH268781   6.503   0.352   4.651  0.0985 -0.0416 -0.9820
15789TIP3    H168782   6.461   0.410   4.715 -0.9798  1.3972 -2.8740
15789TIP3    H268783   6.596   0.370   4.660  0.2090 -1.3866  1.5188
15790TIP3   OH268784   1.663   2.481  15.893 -0.6213  0.0123 -0.1735
15790TIP3    H168785   1.603   2.413  15.923 -0.9292 -0.2374 -1.2911
15790TIP3    H268786   1.619   2.519  15.816  0.3332  0.3018 -0.5904
15791TIP3   OH268787   1.046   1.258   3.334 -0.2850 -0.4110 -0.0571
15791TIP3    H168788   1.063   1.170   3.299 -0.2377 -0.1413 -0.7231
15791TIP3    H268789   0.954   1.275   3.312 -1.3196 -1.5385  2.8121
15792TIP3   OH268790   3.579   6.633   4.507  0.3181  0.0947 -0.1086
15792TIP3    H168791   3.603   6.573   4.578  0.5098 -0.6720 -0.8032
15792TIP3    H268792   3.565   6.717   4.551  1.8701 -0.0020  0.6646
15793TIP3   OH268793   0.110   2.320   1.466  1.1455  0.7630 -0.2927
15793TIP3    H168794   0.179   2.353   1.408  0.3859  0.5352 -1.3424
15793TIP3    H268795   0.028   2.337   1.420  0.6109 -0.9256 -0.0557
15794TIP3   OH268796   3.114   4.730   2.817  0.1983 -0.0416 -0.0373
15794TIP3    H168797   3.137   4.750   2.726 -2.1600 -0.5029 -0.8153
15794TIP3    H268798   3.146   4.804   2.867  3.1426 -0.5950 -0.9490
15795TIP3   OH268799   4.482   2.943   5.448  0.6130  0.4436  0.9715
15795TIP3    H168800   4.443   2.955   5.534 -0.8664  0.8298  0.2670
15795TIP3    H268801   4.418   2.893   5.398  1.0261  1.0177 -0.1854
15796TIP3   OH268802   5.475   1.318   4.958 -0.0456  0.4620 -0.2870
15796TIP3    H168803   5.411   1.304   5.027 -1.9551 -1.9158 -2.3723
15796TIP3    H268804   5.560   1.313   5.002 -1.0801  4.3065  2.6734
15797TIP3   OH268805   5.476   4.118   5.527  0.0072  0.5379  0.2899
15797TIP3    H168806   5.475   4.214   5.524  1.2957  0.6696  2.3680
15797TIP3    H268807   5.444   4.097   5.615 -2.1690 -1.0706 -0.8009
15798TIP3   OH268808   5.436   5.472   3.636 -0.5317 -0.3521  0.0129
15798TIP3    H168809   5.531   5.472   3.649 -0.7698  0.2720  2.0730
15798TIP3    H268810   5.421   5.536   3.566  0.4215  1.2084  1.1838
15799TIP3   OH268811   0.861   0.981   3.365 -0.5377  0.3439 -0.5414
15799TIP3    H168812   0.863   0.926   3.287 -0.9058 -1.4809  0.6788
15799TIP3    H268813   0.931   0.947   3.420 -0.5268  1.3714  0.0976
15800TIP3   OH268814   2.776   1.596  14.439 -0.7468 -0.1175 -0.3005
15800TIP3    H168815   2.844   1.559  14.495  0.1272  0.6495 -0.8084
15800TIP3    H268816   2.699   1.542  14.454 -0.3238 -0.3733  1.0792
15801TIP3   OH268817   2.855   4.099   1.772  0.9776  0.3308  0.2134
15801TIP3    H168818   2.949   4.100   1.757  0.8243  1.9995 -0.8027
15801TIP3    H268819   2.836   4.008   1.797  2.7158 -0.2169 -0.3334
15802TIP3   OH268820   5.395   3.975   1.822 -0.5658  0.1033  0.1582
15802TIP3    H168821   5.445   3.894   1.835  0.4922  0.7510  0.1759
15802TIP3    H268822   5.306   3.944   1.803 -0.2495 -1.0575  0.4569
15803TIP3   OH268823   5.599   6.396   2.014 -0.2464  0.3242  0.1615
15803TIP3    H168824   5.522   6.408   1.958 -0.0526  1.8160  0.1883
15803TIP3    H268825   5.653   6.332   1.967 -0.1881  1.3840 -1.2691
15804TIP3   OH268826   4.942   5.460   1.445 -0.2631  0.3092  0.3807
15804TIP3    H168827   4.930   5.542   1.492 -0.3447  1.0534 -0.9010
15804TIP3    H268828   4.940   5.484   1.353  1.0691 -0.9407 -0.0231
15805TIP3   OH268829   0.982   1.274  15.993 -0.2560 -0.6308  0.4623
15805TIP3    H168830   0.930   1.302  15.918  0.1939  1.6032  0.8888
15805TIP3    H268831   0.943   1.191  16.021 -1.2931 -0.8125 -1.3737
15806TIP3   OH268832   6.162   5.728  14.628 -0.1210 -0.1626 -0.0467
15806TIP3    H168833   6.201   5.758  14.546 -2.7981  1.7067 -0.7342
15806TIP3    H268834   6.237   5.698  14.680  1.7423 -0.6705 -2.8058
15807TIP3   OH268835   2.044   1.960   0.052  0.5162 -0.6923 -0.3114
15807TIP3    H168836   2.118   1.972  -0.008  1.2708 -2.0827  0.3033
15807TIP3    H268837   2.038   2.043   0.099  2.0568 -0.7430  0.0269
15808TIP3   OH268838   1.947   0.392  17.047  0.1694  0.5511 -0.4351
15808TIP3    H168839   2.035   0.362  17.071 -0.1661 -1.2859 -1.3597
15808TIP3    H268840   1.959   0.432  16.961 -0.0226 -0.5060 -0.9678
15809TIP3   OH268841   4.383   5.420   5.562 -0.4406 -0.4227  0.2454
15809TIP3    H168842   4.396   5.495   5.620 -1.2992 -0.7072  0.8318
15809TIP3    H268843   4.345   5.353   5.618 -0.6704 -0.9343 -0.5084
15810TIP3   OH268844   1.447   2.348  16.363  0.1576  0.3462  0.4473
15810TIP3    H168845   1.372   2.397  16.330 -0.9364 -1.2322  0.5155
15810TIP3    H268846   1.480   2.299  16.287 -1.1103 -1.7040  1.1443
15811TIP3   OH268847   4.448   3.733  16.005  0.0640  0.4971  0.1877
15811TIP3    H168848   4.437   3.769  15.917  1.1745 -0.1288 -0.2234
15811TIP3    H268849   4.521   3.673  15.998 -0.0110  0.2140  1.4870
15812TIP3   OH268850   0.259   6.442   1.299 -0.4818 -0.5219 -0.2819
15812TIP3    H168851   0.268   6.458   1.393  1.2100  0.4614 -0.5642
15812TIP3    H268852   0.176   6.396   1.291 -1.2043  0.3104  1.5845
15813TIP3   OH268853   0.545   5.970  15.286 -0.4281  0.4941 -0.3581
15813TIP3    H168854   0.532   6.045  15.344  0.2439  0.4058 -0.0777
15813TIP3    H268855   0.554   6.008  15.199 -1.7646  0.6060 -0.4653
15814TIP3   OH268856   4.185   4.332  14.180  0.1251 -0.5068  0.0192
15814TIP3    H168857   4.257   4.392  14.197 -0.4546  1.6980 -4.0206
15814TIP3    H268858   4.130   4.337  14.258  2.0434  1.2631  1.3614
15815TIP3   OH268859   1.074   3.456  14.065 -0.0753 -0.4387 -0.3760
15815TIP3    H168860   1.140   3.416  14.008 -0.5284 -0.4402 -0.9144
15815TIP3    H268861   1.125   3.505  14.129  0.4607  1.0634 -1.8654
15816TIP3   OH268862   1.061   4.023   3.890 -0.5440  0.1179 -0.3066
15816TIP3    H168863   0.982   4.032   3.942  0.8593  0.0157  1.9775
15816TIP3    H268864   1.064   4.103   3.836 -2.5461 -0.2559 -1.0557
15817TIP3   OH268865   6.677   5.990   2.010  0.4019  0.6377 -0.3997
15817TIP3    H168866   6.634   5.955   2.088 -2.5617  1.6249 -1.4717
15817TIP3    H268867   6.734   6.059   2.043 -2.0321  2.1529  0.8337
15818TIP3   OH268868   5.887   1.091  13.684  0.0230  0.1008 -0.1674
15818TIP3    H168869   5.799   1.129  13.685  0.4566  1.2198  1.4778
15818TIP3    H268870   5.946   1.167  13.690  0.9438 -0.7112  2.7828
15819TIP3   OH268871   2.307   2.223  14.458  0.2066  0.2725 -0.1268
15819TIP3    H168872   2.283   2.132  14.476  2.3290 -0.2229  0.4102
15819TIP3    H268873   2.300   2.266  14.543 -1.4560  0.8227 -0.5019
15820TIP3   OH268874   3.530   0.107  16.742  0.3753  0.0005 -0.2040
15820TIP3    H168875   3.620   0.139  16.736  0.4658  0.1764  1.5014
15820TIP3    H268876   3.523   0.039  16.675  1.1212  1.4154 -1.7972
15821TIP3   OH268877   5.866   2.293  16.858  0.0470  0.4381 -0.4049
15821TIP3    H168878   5.884   2.235  16.932 -0.9470 -0.1139 -0.5799
15821TIP3    H268879   5.844   2.376  16.898  0.5231  0.4363 -0.1217
15822TIP3   OH268880   5.375   1.970   3.049 -0.4932  0.1859 -0.2942
15822TIP3    H168881   5.439   2.027   3.007 -0.3363  0.2209 -0.0022
15822TIP3    H268882   5.410   1.882   3.038  0.2093  0.2993  0.9281
15823TIP3   OH268883   4.876   3.986  14.019  0.4659  0.1303  0.0322
15823TIP3    H168884   4.782   3.993  14.005  0.4969 -0.9698 -0.8289
15823TIP3    H268885   4.885   3.931  14.097  0.3914 -1.3837 -0.9858
15824TIP3   OH268886   4.118   0.750   2.514  0.0606 -0.0911 -0.4669
15824TIP3    H168887   4.165   0.677   2.474 -0.4142  1.4390 -4.2684
15824TIP3    H268888   4.186   0.811   2.542  0.3934 -0.7214  0.1275
15825TIP3   OH268889   1.700   1.170  14.196 -0.4876  0.2340  0.7306
15825TIP3    H168890   1.794   1.183  14.205 -0.2988 -0.0932 -0.5936
15825TIP3    H268891   1.690   1.075  14.185 -0.8244  0.3982 -0.5428
15826TIP3   OH268892   3.127   0.065   0.270 -0.5494 -0.3234  0.0056
15826TIP3    H168893   3.117   0.043   0.178  0.3802 -0.5062 -0.0577
15826TIP3    H268894   3.188  -0.001   0.304 -0.5551 -0.0030  0.6497
15827TIP3   OH268895   5.737   2.528   4.168  0.1631  0.3125  0.1811
15827TIP3    H168896   5.722   2.488   4.253 -2.0995 -0.2664 -0.4251
15827TIP3    H268897   5.725   2.621   4.182 -2.2024  0.0679  0.1872
15828TIP3   OH268898   5.923   3.766  11.955  0.3619  0.3582 -0.1537
15828TIP3    H168899   6.013   3.797  11.953  0.1593  0.9893 -0.0975
15828TIP3    H268900   5.923   3.694  12.018  1.0109 -0.3077 -0.9054
15829TIP3   OH268901   0.178   3.885   1.611 -0.3734  0.2401  0.1052
15829TIP3    H168902   0.252   3.895   1.552  0.2313  0.2584  0.8407
15829TIP3    H268903   0.101   3.892   1.556  0.1749  0.3591 -0.6542
15830TIP3   OH268904   0.063   6.579   4.492 -0.1138 -0.2041 -0.1702
15830TIP3    H168905   0.154   6.560   4.471 -0.4180 -1.7096 -0.2648
15830TIP3    H268906   0.038   6.510   4.554 -0.9488  0.6737  0.4899
15831TIP3   OH268907   0.974   6.640  15.246 -0.2360  0.0021  0.2246
15831TIP3    H168908   0.991   6.734  15.238  0.0021  0.1407  1.8969
15831TIP3    H268909   0.904   6.622  15.183  0.0809  1.1876 -0.4879
15832TIP3   OH268910   1.419   5.261   4.336 -1.0199 -0.4235  0.0690
15832TIP3    H168911   1.353   5.297   4.395 -1.2213  0.1083 -0.4712
15832TIP3    H268912   1.461   5.338   4.298 -1.7989 -0.7312 -1.4961
15833TIP3   OH268913   6.466   0.448  11.532  0.4173 -0.5119  0.2712
15833TIP3    H168914   6.545   0.398  11.509  0.0980 -0.6814 -0.4552
15833TIP3    H268915   6.394   0.387  11.517  0.1107 -0.2230  0.5589
15834TIP3   OH268916   6.108   0.832   4.035  0.0202  0.2395  0.1761
15834TIP3    H168917   6.076   0.846   4.124 -1.2440 -2.9121  0.3190
15834TIP3    H268918   6.088   0.914   3.990  1.5080  2.2803  2.9134
15835TIP3   OH268919   5.387   6.262   6.172  0.2093  0.1653  1.0809
15835TIP3    H168920   5.341   6.283   6.091  0.7097 -2.1917  0.1159
15835TIP3    H268921   5.367   6.335   6.230 -2.2825  0.6923 -0.2842
15836TIP3   OH268922   2.011   2.518  14.545  0.3694 -0.3824  0.1328
15836TIP3    H168923   1.988   2.439  14.594  0.0010 -1.4079 -1.6008
15836TIP3    H268924   2.037   2.486  14.459 -1.7070  1.4688 -1.3137
15837TIP3   OH268925   6.657   2.120  15.508 -0.3896 -0.4662 -0.6007
15837TIP3    H168926   6.699   2.193  15.552  0.4322 -1.1635 -0.2128
15837TIP3    H268927   6.727   2.057  15.493 -1.0730 -1.1528 -0.9888
15838TIP3   OH268928   1.957   4.929   5.166  0.1350  0.1545  0.3176
15838TIP3    H168929   1.923   4.956   5.081  1.3500 -2.0873 -0.9699
15838TIP3    H268930   1.895   4.863   5.197  1.1430 -1.0639 -0.1870
15839TIP3   OH268931   3.430   2.789   5.135 -0.6337  0.4780 -0.4143
15839TIP3    H168932   3.357   2.796   5.197 -1.3491  1.7340 -1.3532
15839TIP3    H268933   3.389   2.758   5.054  0.0791  0.0956 -0.6378
15840TIP3   OH268934   4.252   2.019  15.719 -0.6210 -0.0992  0.2138
15840TIP3    H168935   4.219   1.930  15.735  0.6469 -0.7694 -0.6755
15840TIP3    H268936   4.344   2.006  15.696 -0.2346  1.5233  0.7129
15841TIP3   OH268937   1.688   0.044  12.354  0.0484  0.3057  0.2016
15841TIP3    H168938   1.595   0.021  12.353  0.0408  0.3416 -0.6434
15841TIP3    H268939   1.697   0.104  12.428 -0.3652 -0.6053  1.0261
15842TIP3   OH268940   0.549   0.161   6.117 -0.2863  0.0907 -0.8759
15842TIP3    H168941   0.576   0.247   6.149 -2.0342 -0.2566  1.8333
15842TIP3    H268942   0.623   0.103   6.138 -0.1242  0.4578 -0.4355
15843TIP3   OH268943   6.638   1.621   3.670 -0.3645  0.2238 -0.5238
15843TIP3    H168944   6.608   1.535   3.642  0.0347  0.0726 -0.4932
15843TIP3    H268945   6.683   1.606   3.753  0.7773  0.2711 -1.1163
15844TIP3   OH268946   6.099   3.061   6.230 -0.2641 -0.2262  0.0741
15844TIP3    H168947   6.041   3.042   6.304  0.5460  1.1042  1.1028
15844TIP3    H268948   6.145   2.979   6.213 -0.1345 -0.4399  1.3663
15845TIP3   OH268949   2.063   0.296  13.404 -0.1572 -0.0314 -0.0396
15845TIP3    H168950   1.973   0.270  13.382  0.1465 -0.1623 -1.2449
15845TIP3    H268951   2.087   0.241  13.478 -1.1361  0.1455  0.4194
15846TIP3   OH268952   1.606   3.557  11.008  0.5259 -0.5344  0.2259
15846TIP3    H168953   1.690   3.528  10.972  0.2249 -2.0695  0.6885
15846TIP3    H268954   1.544   3.547  10.936  0.5603 -0.3209  0.1665
15847TIP3   OH268955   4.755   4.449  11.022  0.1012  0.3557  0.0761
15847TIP3    H168956   4.818   4.481  10.956  0.9244 -2.1816 -0.4742
15847TIP3    H268957   4.783   4.360  11.040 -1.7051  0.1097  1.9641
15848TIP3   OH268958   2.669   5.783   3.063 -0.0279  0.1905  0.0214
15848TIP3    H168959   2.582   5.751   3.040 -0.5572  0.2138  1.8260
15848TIP3    H268960   2.665   5.798   3.157  1.8165  0.5768  0.0829
15849TIP3   OH268961   6.511   3.205   2.123 -0.5014 -0.2158 -0.2939
15849TIP3    H168962   6.511   3.114   2.151 -2.3763 -0.1013  0.2479
15849TIP3    H268963   6.503   3.255   2.205  1.2287  0.5033 -0.5187
15850TIP3   OH268964   5.128   0.791   4.257 -0.1806  0.3325 -0.2169
15850TIP3    H168965   5.152   0.870   4.208 -0.5849  0.2633 -0.5285
15850TIP3    H268966   5.194   0.785   4.326  0.5113  0.3390 -0.8523
15851TIP3   OH268967   6.733   0.083   2.316 -0.2510  0.0121 -0.7886
15851TIP3    H168968   6.662   0.148   2.311 -0.3337 -0.0797 -0.8033
15851TIP3    H268969   6.784   0.110   2.392 -1.4471 -1.0730  0.4499
15852TIP3   OH268970   2.050   2.270   2.288  0.2292  0.5670  0.1790
15852TIP3    H168971   2.051   2.310   2.375  0.5856  3.2481 -0.9814
15852TIP3    H268972   1.965   2.294   2.251 -1.0259 -2.7062  0.6234
15853TIP3   OH268973   4.672   6.805  10.584 -0.0528  0.0488 -0.3195
15853TIP3    H168974   4.741   6.739  10.594 -0.8658 -0.6850  0.5123
15853TIP3    H268975   4.590   6.757  10.594 -0.7743  0.6712 -2.6179
15854TIP3   OH268976   2.815   6.034  11.108  0.3492  0.6109 -0.2229
15854TIP3    H168977   2.731   6.049  11.151  0.7143  1.0833  0.3493
15854TIP3    H268978   2.818   5.940  11.091 -0.6726  0.7117 -1.0567
15855TIP3   OH268979   4.721   2.604   5.705 -0.2815  0.2323  0.4637
15855TIP3    H168980   4.718   2.682   5.649  0.1830  1.3562  1.9361
15855TIP3    H268981   4.632   2.593   5.737 -0.4061 -0.0265  0.0445
15856TIP3   OH268982   5.059   5.613  13.565 -0.1993 -0.1104 -0.1836
15856TIP3    H168983   5.052   5.662  13.483 -0.9194  0.1558  0.0256
15856TIP3    H268984   5.005   5.535  13.550 -0.6298  0.1193  0.1595
15857TIP3   OH268985   0.363   3.032   5.277 -0.3165 -0.1643  0.2458
15857TIP3    H168986   0.430   2.974   5.312 -0.2440  0.0745  0.5042
15857TIP3    H268987   0.352   3.100   5.344 -0.2565  0.2350 -0.1473
15858TIP3   OH268988   2.826   2.004  15.968 -0.0989 -0.2757 -0.6010
15858TIP3    H168989   2.744   2.006  16.017 -0.6256 -1.3478 -1.4242
15858TIP3    H268990   2.893   1.986  16.035 -0.4232  1.1866  0.1674
15859TIP3   OH268991   4.778   0.287  14.342 -0.1087  0.3620 -0.1674
15859TIP3    H168992   4.794   0.377  14.311  1.2917  0.6257  1.1982
15859TIP3    H268993   4.832   0.232  14.286  0.2450  0.5360  0.0032
15860TIP3   OH268994   0.586   1.761   2.548 -0.1736  0.0823  0.1577
15860TIP3    H168995   0.514   1.712   2.507 -0.3037 -0.5947  1.1581
15860TIP3    H268996   0.548   1.847   2.568 -0.6887 -0.2387  0.5969
15861TIP3   OH268997   0.260   1.301   0.884 -0.3303 -0.2423  0.2969
15861TIP3    H168998   0.191   1.334   0.941  1.5639  1.2907  1.8443
15861TIP3    H268999   0.304   1.380   0.852 -0.5517 -1.0953 -2.3862
15862TIP3   OH269000   0.231   2.758  12.923  0.0471  0.2370  0.0351
15862TIP3    H169001   0.136   2.752  12.928 -0.0334  1.4905  0.1660
15862TIP3    H269002   0.249   2.848  12.898  1.1940 -0.1118 -0.4786
15863TIP3   OH269003   0.842   1.256  13.501  0.5475  0.0792  0.2353
15863TIP3    H169004   0.808   1.252  13.412  1.2774 -0.3971 -0.0323
15863TIP3    H269005   0.929   1.294  13.491  2.5169 -3.9565  0.1412
15864TIP3   OH269006   4.339   3.440   0.456  0.5229  0.1884 -0.2269
15864TIP3    H169007   4.393   3.478   0.525  0.2060 -0.9773  0.6931
15864TIP3    H269008   4.268   3.396   0.502 -1.3894  1.8637 -1.4185
15865TIP3   OH269009   1.786   3.772   1.023  0.1396  0.0171  0.5819
15865TIP3    H169010   1.807   3.756   0.931  0.8888  2.5811  0.2514
15865TIP3    H269011   1.713   3.713   1.041  1.0890 -1.8091 -1.1275
15866TIP3   OH269012   3.152   6.629   2.741  0.2865  0.0899 -0.0258
15866TIP3    H169013   3.191   6.703   2.695  0.2597 -0.1996 -0.5203
15866TIP3    H269014   3.147   6.658   2.833  0.5351  0.5882 -0.1645
15867TIP3   OH269015   0.408   3.591   4.460 -0.2537 -0.1366  0.3080
15867TIP3    H169016   0.468   3.585   4.535 -0.6102  0.0678  0.6118
15867TIP3    H269017   0.373   3.502   4.452  2.0588 -0.9882 -1.5363
15868TIP3   OH269018   4.421   5.689   2.544 -0.2245 -0.0217 -0.3325
15868TIP3    H169019   4.376   5.704   2.628 -0.1127  2.3137 -0.6250
15868TIP3    H269020   4.428   5.776   2.505  1.6443 -0.7660 -1.8078
15869TIP3   OH269021   1.068   4.318   1.917 -0.3950 -0.6679  0.4367
15869TIP3    H169022   1.048   4.272   1.999 -0.2144  0.7957  1.3474
15869TIP3    H269023   0.984   4.353   1.888 -0.0927  1.0872  1.4886
15870TIP3   OH269024   3.556   4.478  15.659 -0.5296  0.0166 -0.0725
15870TIP3    H169025   3.586   4.391  15.685 -0.4060  0.1100  0.1001
15870TIP3    H269026   3.577   4.534  15.734  0.8548  0.5145 -0.7991
15871TIP3   OH269027   5.641   4.959   5.005  0.3347 -0.5167 -0.2182
15871TIP3    H169028   5.575   4.981   5.072 -0.0786 -1.5515 -0.2790
15871TIP3    H269029   5.649   4.864   5.009  1.1217 -0.4867 -0.8880
15872TIP3   OH269030   5.359   3.560  11.300  0.1621  0.1627  0.3425
15872TIP3    H169031   5.453   3.553  11.282  0.2621  0.0347  0.8967
15872TIP3    H269032   5.353   3.624  11.371 -0.1416 -0.0576  0.5179
15873TIP3   OH269033   3.111   2.729  10.923 -0.3949  0.1263 -0.3595
15873TIP3    H169034   3.203   2.709  10.942 -0.6236 -2.5302 -1.5877
15873TIP3    H269035   3.062   2.660  10.967 -2.0165  2.3006  1.4883
15874TIP3   OH269036   5.671   4.467  13.860 -0.1524 -0.0933  0.4242
15874TIP3    H169037   5.648   4.440  13.771  1.4462  1.3773 -0.5066
15874TIP3    H269038   5.753   4.421  13.878  1.9711  2.9569 -0.7264
15875TIP3   OH269039   5.296   4.933   2.939 -0.0940 -0.1079 -0.0203
15875TIP3    H169040   5.251   5.018   2.948  0.6531  0.1639  1.3997
15875TIP3    H269041   5.225   4.869   2.934 -0.7394  0.2960  2.3590
15876TIP3   OH269042   1.476   5.826  14.015  0.0333  0.1888  0.2981
15876TIP3    H169043   1.501   5.757  13.955 -0.0105  0.1214  0.3577
15876TIP3    H269044   1.439   5.780  14.091  0.8072  0.2389  0.7176
15877TIP3   OH269045   1.204   5.866  11.681  0.1207  0.2756 -0.4397
15877TIP3    H169046   1.243   5.909  11.606  0.6684  0.0874 -0.2724
15877TIP3    H269047   1.181   5.937  11.741  1.6393  0.3210  0.1310
15878TIP3   OH269048   2.555   0.474  16.467  0.2287  0.0255  0.3316
15878TIP3    H169049   2.556   0.568  16.486  1.1826  0.2827 -0.8593
15878TIP3    H269050   2.462   0.450  16.471  0.1046  0.6319  2.2755
15879TIP3   OH269051   1.872   3.618   0.718 -0.1430  0.2145  0.3220
15879TIP3    H169052   1.821   3.693   0.685  1.7379  1.0939 -0.7602
15879TIP3    H269053   1.805   3.555   0.745 -1.8071  1.7412  0.0496
15880TIP3   OH269054   6.347   2.883  16.911 -0.2537  0.2370 -0.6257
15880TIP3    H169055   6.358   2.957  16.971 -0.8903 -0.9283  0.9711
15880TIP3    H269056   6.257   2.890  16.880  0.2364  1.1556 -1.9417
15881TIP3   OH269057   5.060   1.974   1.325  0.0770 -0.4640 -0.0675
15881TIP3    H169058   4.998   1.927   1.381 -0.8148  1.3710  0.5793
15881TIP3    H269059   5.033   2.066   1.332 -0.8574 -0.1922 -4.4185
15882TIP3   OH269060   5.010   4.435  12.909  0.2481  0.1454 -0.0806
15882TIP3    H169061   5.092   4.483  12.911  1.4681 -1.8311  1.2700
15882TIP3    H269062   5.028   4.354  12.958 -1.9998 -1.1423 -1.1958
15883TIP3   OH269063   2.893   0.252  14.730  0.2980 -0.3506  0.0896
15883TIP3    H169064   2.817   0.233  14.676  0.0868  1.4879 -0.3383
15883TIP3    H269065   2.947   0.311  14.677 -0.0994  1.8347  1.9477
15884TIP3   OH269066   5.346   4.790  15.687 -0.1900 -0.0237 -0.0569
15884TIP3    H169067   5.265   4.829  15.720 -0.2807  0.1125 -0.4396
15884TIP3    H269068   5.372   4.847  15.615 -1.0934 -1.4721 -1.5991
15885TIP3   OH269069   0.948   5.306   5.604 -0.3412 -0.1100  0.5287
15885TIP3    H169070   0.903   5.294   5.687 -1.4566  0.0909 -0.0301
15885TIP3    H269071   0.961   5.400   5.596  0.9202 -0.2196  1.0503
15886TIP3   OH269072   3.440   3.422   3.347 -0.2266 -0.3836 -0.2301
15886TIP3    H169073   3.396   3.345   3.384  2.4716 -0.9551  2.0630
15886TIP3    H269074   3.430   3.490   3.413  0.9012 -0.0284 -0.4066
15887TIP3   OH269075   5.716   3.018   1.031 -0.9024 -0.2398 -0.1982
15887TIP3    H169076   5.689   3.030   0.940 -0.2158  0.0039 -0.3814
15887TIP3    H269077   5.782   2.948   1.026  0.1412  0.7105 -0.0901
15888TIP3   OH269078   6.332   6.616   3.131 -0.0996  0.2930  0.1178
15888TIP3    H169079   6.243   6.582   3.126 -0.1680  0.4187  0.4635
15888TIP3    H269080   6.343   6.641   3.222 -0.9882  3.6479 -0.5345
15889TIP3   OH269081   6.549   6.017  14.389 -0.1072 -0.1710 -0.2677
15889TIP3    H169082   6.488   6.086  14.365 -0.0255  0.1892  0.5345
15889TIP3    H269083   6.635   6.059  14.389 -0.3151  0.6396  3.2309
15890TIP3   OH269084   0.839   4.704   5.194  0.3199 -0.2591 -0.1319
15890TIP3    H169085   0.903   4.775   5.199  0.1496 -0.1370  0.4204
15890TIP3    H269086   0.878   4.634   5.246 -0.1184 -0.0820  0.4475
15891TIP3   OH269087   3.487   6.518   3.089 -0.2995  0.0402  0.2162
15891TIP3    H169088   3.455   6.588   3.031 -0.3493 -0.3852 -0.2746
15891TIP3    H269089   3.408   6.485   3.132 -0.6874 -1.5736 -1.6144
15892TIP3   OH269090   4.381   1.818  14.325 -0.6222 -0.5358 -0.2429
15892TIP3    H169091   4.329   1.898  14.331  0.8650  0.6367 -1.8954
15892TIP3    H269092   4.416   1.805  14.413 -1.2422  0.4021  0.1569
15893TIP3   OH269093   2.229   4.467  15.752  0.0909 -0.3655  0.3187
15893TIP3    H169094   2.228   4.393  15.691 -1.8318  0.7181 -1.1093
15893TIP3    H269095   2.190   4.433  15.832  0.1118 -1.1555  0.0019
15894TIP3   OH269096   6.285   1.900   2.347  0.1883 -0.4421  0.2257
15894TIP3    H169097   6.297   1.991   2.321  0.1799 -0.4473  0.2042
15894TIP3    H269098   6.259   1.905   2.439 -0.5548 -0.3823  0.0166
15895TIP3   OH269099   1.032   2.132  14.198 -0.0374  0.4261 -0.0738
15895TIP3    H169100   1.120   2.102  14.176 -0.6947 -0.8687 -1.1999
15895TIP3    H269101   0.997   2.165  14.115 -0.7792  0.4166  0.2239
15896TIP3   OH269102   3.919   5.055  14.527 -0.2688 -0.0648 -0.2964
15896TIP3    H169103   3.832   5.042  14.488 -0.8174  0.9459  0.5329
15896TIP3    H269104   3.901   5.074  14.619  0.7514  1.1952 -0.3312
15897TIP3   OH269105   2.815   1.880  14.529 -0.5452  0.2760 -0.2356
15897TIP3    H169106   2.783   1.891  14.618 -0.5349 -1.7016  0.0484
15897TIP3    H269107   2.788   1.791  14.504 -0.3339  0.6889 -2.1167
15898TIP3   OH269108   0.697   6.583   2.031  0.2189 -0.6457  0.4077
15898TIP3    H169109   0.625   6.538   1.987 -0.8897  1.5238 -0.1221
15898TIP3    H269110   0.694   6.551   2.121 -1.3719 -0.6287  0.3809
15899TIP3   OH269111   0.763   4.782  14.382  0.0086 -0.9291  0.3391
15899TIP3    H169112   0.747   4.732  14.461  0.2164  1.3271  1.9027
15899TIP3    H269113   0.858   4.776  14.368  0.0892 -0.6530  0.7580
15900TIP3   OH269114   5.967   6.629   0.195 -0.1736  0.1688 -0.0317
15900TIP3    H169115   5.887   6.592   0.232 -1.1719  0.9960 -1.2822
15900TIP3    H269116   5.945   6.720   0.176  1.1249  0.4602 -0.2453
15901TIP3   OH269117   5.941   0.782   5.874  0.4778  0.1628  0.3395
15901TIP3    H169118   5.877   0.756   5.940 -0.0612  1.8115  0.5307
15901TIP3    H269119   5.996   0.846   5.918 -0.0113  1.4372 -0.8197
15902TIP3   OH269120   1.560   4.972  14.802 -0.5118  0.0795  0.0284
15902TIP3    H169121   1.576   4.997  14.711 -1.6407 -1.0707 -0.5306
15902TIP3    H269122   1.645   4.945  14.835  0.0239  1.0856 -0.4918
15903TIP3   OH269123   3.747   6.010   5.516 -0.0617 -0.1714  0.0826
15903TIP3    H169124   3.720   5.924   5.547  0.7813 -0.6807 -0.5451
15903TIP3    H269125   3.801   5.992   5.439  1.6824  0.8027  1.0075
15904TIP3   OH269126   0.410   4.731   0.498 -0.0730  0.7228 -0.4818
15904TIP3    H169127   0.460   4.805   0.530  1.8692 -0.9669  0.6408
15904TIP3    H269128   0.469   4.656   0.505 -2.0538 -1.0431 -1.1645
15905TIP3   OH269129   5.143   0.225   3.900 -0.4766  0.4559 -0.1390
15905TIP3    H169130   5.172   0.315   3.910 -1.4719  1.0249 -1.8495
15905TIP3    H269131   5.215   0.181   3.854 -1.5214  1.5030 -3.0714
15906TIP3   OH269132   3.475   2.153   0.303  0.1155 -0.2720 -0.1248
15906TIP3    H169133   3.510   2.204   0.230 -1.6220  1.5010  0.1829
15906TIP3    H269134   3.482   2.211   0.379 -0.2471 -1.2012  0.6448
15907TIP3   OH269135   6.773   5.084   0.006 -0.1822 -0.2744  0.2359
15907TIP3    H169136   6.702   5.073   0.070  0.0447  2.2077  1.0346
15907TIP3    H269137   6.816   4.998   0.003  0.1606 -0.4102  3.9268
15908TIP3   OH269138   2.757   4.022  15.643  0.4375  0.0894  0.1997
15908TIP3    H169139   2.814   4.006  15.718  0.8173 -1.2444 -0.3365
15908TIP3    H269140   2.806   4.085  15.590  0.4044  0.6331  0.8011
15909TIP3   OH269141   0.497   3.605  14.493 -0.1339  0.2233  0.0856
15909TIP3    H169142   0.567   3.543  14.472 -0.4047  0.0089 -0.2044
15909TIP3    H269143   0.542   3.688  14.509  0.1284  0.3581 -1.1761
15910TIP3   OH269144   2.788   2.933   1.201 -0.1798  0.3969 -0.2118
15910TIP3    H169145   2.862   2.968   1.153 -1.4546  3.7262 -0.0146
15910TIP3    H269146   2.823   2.909   1.287  0.5966  2.8428  0.2298
15911TIP3   OH269147   3.514   2.131  12.830  0.1963 -0.2168  0.5133
15911TIP3    H169148   3.604   2.111  12.857 -0.0509 -1.0463  0.7804
15911TIP3    H269149   3.522   2.204  12.770  0.7777  1.9634  3.0555
15912TIP3   OH269150   6.671   6.332   4.477 -0.0691  0.2481 -0.2543
15912TIP3    H169151   6.729   6.306   4.547  0.9109 -0.1886 -1.2059
15912TIP3    H269152   6.631   6.413   4.508  1.7599  1.0855  0.0531
15913TIP3   OH269153   4.258   0.007   0.862 -0.5875 -0.4067 -0.5559
15913TIP3    H169154   4.224   0.061   0.933 -0.8796 -1.3794  0.0602
15913TIP3    H269155   4.289   0.070   0.797 -0.7259  0.4965  0.2314
15914TIP3   OH269156   2.991   0.706   0.052  0.0999  0.4969  0.3319
15914TIP3    H169157   3.038   0.724   0.133  0.7638  1.3287 -0.2188
15914TIP3    H269158   2.934   0.631   0.073  0.4225  0.5575  1.4867
15915TIP3   OH269159   2.174   5.879  16.401  0.4077  0.0634  0.0040
15915TIP3    H169160   2.128   5.832  16.331 -0.8866 -0.4981  1.1901
15915TIP3    H269161   2.228   5.812  16.443 -2.2249 -0.8177  2.3768
15916TIP3   OH269162   2.026   3.416  14.052  0.6632  0.3902  0.4085
15916TIP3    H169163   1.965   3.344  14.065  1.8240 -0.7319 -0.1245
15916TIP3    H269164   2.025   3.432  13.957  0.9435  0.5896  0.4357
15917TIP3   OH269165   6.161   6.066   4.889  0.3535 -0.2192 -0.3486
15917TIP3    H169166   6.067   6.076   4.902 -0.0593 -0.5430 -2.6794
15917TIP3    H269167   6.201   6.108   4.966 -1.6473  1.5787 -0.2197
15918TIP3   OH269168   2.752   1.985  11.477  0.0043 -0.0931 -0.0284
15918TIP3    H169169   2.841   2.006  11.504  0.0258 -2.8558  2.7220
15918TIP3    H269170   2.696   2.037  11.535 -0.0295 -1.3552  1.1351
15919TIP3   OH269171   5.306   2.986   0.771  0.8400 -0.0135  0.1188
15919TIP3    H169172   5.353   2.908   0.742  1.2554 -0.3951  1.6868
15919TIP3    H269173   5.355   3.016   0.848  0.2512  1.3598 -0.0118
15920TIP3   OH269174   1.303   3.871   4.293  0.6189 -0.3155  0.4837
15920TIP3    H169175   1.338   3.783   4.304  0.3996 -0.4453  0.1547
15920TIP3    H269176   1.307   3.887   4.198  2.4231  0.7569  0.6899
15921TIP3   OH269177   6.213   1.242  15.645 -0.7093 -0.0809 -0.2766
15921TIP3    H169178   6.297   1.197  15.647 -0.9715 -0.5695  0.6594
15921TIP3    H269179   6.212   1.289  15.561 -0.9026 -2.7559 -1.8740
15922TIP3   OH269180   4.695   1.996   5.509 -0.4518 -0.4467  0.3223
15922TIP3    H169181   4.774   2.043   5.535  0.1434 -0.2546 -1.6581
15922TIP3    H269182   4.686   1.926   5.574  2.0232 -1.2070 -0.0417
15923TIP3   OH269183   3.142   3.149  12.722 -0.1937 -0.4338 -0.0084
15923TIP3    H169184   3.178   3.110  12.642  0.1030 -1.3141  0.5397
15923TIP3    H269185   3.157   3.083  12.790 -2.3812 -0.6196  0.3566
15924TIP3   OH269186   1.321   5.279  10.584  0.1867  0.4269  0.2979
15924TIP3    H169187   1.260   5.208  10.565  1.4337 -0.8642  0.9618
15924TIP3    H269188   1.349   5.263  10.675  2.6817  0.0315 -0.4635
15925TIP3   OH269189   4.587   5.838  11.437  0.3951  0.4885  0.1064
15925TIP3    H169190   4.682   5.846  11.451  0.4628  1.2642 -0.6911
15925TIP3    H269191   4.569   5.895  11.362 -0.1914 -2.0913 -1.8559
15926TIP3   OH269192   5.353   1.987  16.434 -0.1446  0.4490  0.1312
15926TIP3    H169193   5.294   1.915  16.456  0.5573 -0.5279 -1.0477
15926TIP3    H269194   5.441   1.949  16.441  0.2317  1.1293 -0.7021
15927TIP3   OH269195   6.517   1.787   2.229  0.8328 -0.0772  0.3027
15927TIP3    H169196   6.488   1.833   2.151  1.3399  0.5136  0.4563
15927TIP3    H269197   6.453   1.809   2.297  0.6364 -0.2406  0.1714
15928TIP3   OH269198   5.367   6.002  15.012  0.1375  0.2668 -0.6182
15928TIP3    H169199   5.317   5.999  14.931 -0.1759 -1.0104 -0.3945
15928TIP3    H269200   5.400   5.913  15.024  0.5309  0.5342  0.4435
15929TIP3   OH269201   2.167   4.180   4.790 -0.0032  0.0418  0.0046
15929TIP3    H169202   2.242   4.152   4.737 -0.6407  0.0265 -0.9210
15929TIP3    H269203   2.205   4.232   4.860  0.7582  1.6625 -1.5189
15930TIP3   OH269204   1.585   1.335  14.039 -0.0641  0.3930  0.6991
15930TIP3    H169205   1.621   1.269  14.098  0.7343 -0.8925 -1.1159
15930TIP3    H269206   1.637   1.413  14.055  2.0499 -0.7448 -0.1800
15931TIP3   OH269207   1.496   4.828   1.115  0.1023  0.2439 -0.2446
15931TIP3    H169208   1.440   4.839   1.038 -0.7195 -1.0445  0.1449
15931TIP3    H269209   1.447   4.770   1.173  1.4004 -0.0888  0.5646
15932TIP3   OH269210   2.843   1.358   0.855 -0.1799  0.1080  0.4431
15932TIP3    H169211   2.902   1.309   0.914  2.6279 -1.6209 -3.3716
15932TIP3    H269212   2.757   1.318   0.870  0.8902 -1.9714  1.6339
15933TIP3   OH269213   3.136   4.713  12.043  0.2586 -0.5877 -0.2363
15933TIP3    H169214   3.060   4.710  11.985 -1.0649  0.2161  1.4021
15933TIP3    H269215   3.154   4.621  12.064 -1.9325 -0.6963  1.4204
15934TIP3   OH269216   6.203   3.085   2.057 -0.2485 -0.4736  0.4776
15934TIP3    H169217   6.260   3.161   2.070 -2.6742  1.7718 -0.7541
15934TIP3    H269218   6.224   3.053   1.969 -0.2879 -0.1730  0.3561
15935TIP3   OH269219   4.408   5.069   4.527 -0.0351 -0.0346  0.3039
15935TIP3    H169220   4.481   5.009   4.512 -0.6535 -1.5737  2.9401
15935TIP3    H269221   4.333   5.012   4.545 -1.5620  1.5265 -0.7727
15936TIP3   OH269222   5.186   0.439  13.692 -0.2463 -0.4709 -0.2112
15936TIP3    H169223   5.156   0.530  13.682 -0.8692 -0.6290  0.1925
15936TIP3    H269224   5.116   0.396  13.740  0.3817 -0.9892  0.2481
15937TIP3   OH269225   2.191   6.524  14.377 -0.4982  0.4173  0.1241
15937TIP3    H169226   2.177   6.600  14.320 -1.0650 -0.6474 -1.2109
15937TIP3    H269227   2.125   6.532  14.445 -0.6910  1.0064 -0.1298
15938TIP3   OH269228   2.493   2.567   6.081 -0.2867  0.3491 -0.4993
15938TIP3    H169229   2.556   2.580   6.152 -0.5150  4.5292 -0.8123
15938TIP3    H269230   2.412   2.606   6.114 -0.9541  0.5619 -2.2866
15939TIP3   OH269231   3.301   3.857  14.906  0.2970 -0.1339 -0.1904
15939TIP3    H169232   3.324   3.939  14.863  0.4005 -0.7319 -1.3076
15939TIP3    H269233   3.240   3.814  14.846  0.0059 -0.7496  0.5190
15940TIP3   OH269234   1.249   0.031   2.011 -0.4855  0.5384  0.1059
15940TIP3    H169235   1.284   0.076   1.934  0.9870  1.3169  1.1750
15940TIP3    H269236   1.205  -0.046   1.975 -0.6715  1.3756 -1.5740
15941TIP3   OH269237   1.264   4.674  13.849 -0.6838  0.1206 -0.2786
15941TIP3    H169238   1.275   4.765  13.877  0.3491 -0.3197  0.8075
15941TIP3    H269239   1.271   4.678  13.753  1.5591  0.9297 -0.1351
15942TIP3   OH269240   6.009   5.782   6.090 -0.3472 -0.1084 -0.3842
15942TIP3    H169241   5.957   5.742   6.160 -0.4725 -1.9780 -1.4762
15942TIP3    H269242   5.975   5.871   6.083 -0.0795  0.2789  2.1521
15943TIP3   OH269243   0.527   4.634  16.279  0.3405 -0.1015 -1.0194
15943TIP3    H169244   0.574   4.718  16.278  3.0809 -1.5025 -2.2992
15943TIP3    H269245   0.568   4.585  16.351  0.2039 -1.0513 -1.5727
15944TIP3   OH269246   3.691   0.592   1.321  0.3070  0.0068 -0.0902
15944TIP3    H169247   3.615   0.632   1.280 -0.0126  1.1472  1.4964
15944TIP3    H269248   3.766   0.642   1.286  0.2873 -0.6467 -1.1062
15945TIP3   OH269249   5.693   5.901   5.478  0.3536 -0.2815  0.6143
15945TIP3    H169250   5.728   5.817   5.448  2.8787  0.1474  2.0288
15945TIP3    H269251   5.705   5.960   5.403  0.5861 -0.6944  0.3227
15946TIP3   OH269252   0.500   4.758   1.760  0.5443 -0.3423  0.0374
15946TIP3    H169253   0.417   4.723   1.729 -0.8406  1.6638  1.2004
15946TIP3    H269254   0.536   4.689   1.816 -0.2249 -1.3368 -0.6605
15947TIP3   OH269255   5.684   3.449   5.958  0.0047 -0.2267 -0.7025
15947TIP3    H169256   5.758   3.461   6.017 -1.7378  0.8149  1.3773
15947TIP3    H269257   5.681   3.529   5.905 -0.1055  0.0764 -0.2389
15948TIP3   OH269258   0.483   3.832  10.967  0.0414  0.0179 -0.4583
15948TIP3    H169259   0.546   3.812  11.036  0.3224  2.5980  0.1430
15948TIP3    H269260   0.422   3.758  10.969  0.4217 -0.3505  2.1028
15949TIP3   OH269261   0.172   3.785   1.879 -0.1950  0.0186  0.3298
15949TIP3    H169262   0.166   3.788   1.784  0.6217 -1.3898  0.2040
15949TIP3    H269263   0.224   3.706   1.898  1.7253  1.5452  1.8718
15950TIP3   OH269264   2.276   4.678  16.165 -0.2403 -0.0062 -0.0636
15950TIP3    H169265   2.251   4.715  16.250 -0.2282 -1.6291  0.6822
15950TIP3    H269266   2.198   4.634  16.133 -0.1791  0.4080 -0.8049
15951TIP3   OH269267   5.284   5.590   2.089 -0.0849 -0.5967 -0.3349
15951TIP3    H169268   5.346   5.614   2.020 -1.0450  0.7268 -0.7750
15951TIP3    H269269   5.330   5.611   2.170  0.5743 -0.9482 -0.6125
15952TIP3   OH269270   2.495   5.743  13.474  0.1485 -0.3728  0.0760
15952TIP3    H169271   2.443   5.667  13.451 -0.4954 -0.1242  0.6557
15952TIP3    H269272   2.436   5.797  13.528  0.6276  0.4667 -0.2160
15953TIP3   OH269273   2.742   1.531   1.685  0.6219  0.7224 -0.1457
15953TIP3    H169274   2.800   1.487   1.746  1.3172  2.6580  0.6782
15953TIP3    H269275   2.799   1.562   1.615  0.0932  0.0286 -0.9006
15954TIP3   OH269276   0.436   4.919   3.648 -0.1733  0.2308 -0.0448
15954TIP3    H169277   0.511   4.919   3.589 -1.5174  0.0967 -1.8444
15954TIP3    H269278   0.458   4.985   3.715  1.6042  0.0424 -0.3882
15955TIP3   OH269279   0.516   1.090   1.225  0.6158 -0.4749 -0.4497
15955TIP3    H169280   0.602   1.125   1.250  0.5892  0.1240 -1.1868
15955TIP3    H269281   0.456   1.163   1.238  0.6671  0.0240 -2.6727
15956TIP3   OH269282   1.645   5.210  15.849 -0.3030  0.5237 -0.0041
15956TIP3    H169283   1.706   5.282  15.867 -0.0247 -0.0563  1.5738
15956TIP3    H269284   1.582   5.215  15.921 -0.3854 -0.6847  0.0132
15957TIP3   OH269285   0.825   4.918   3.018  0.3831  0.5524 -0.0418
15957TIP3    H169286   0.772   4.966   3.083  1.7223  2.3697 -0.2157
15957TIP3    H269287   0.786   4.941   2.934  0.5242  0.6874 -0.0710
15958TIP3   OH269288   1.404   4.244  14.090 -0.4234 -1.0198 -0.1466
15958TIP3    H169289   1.478   4.256  14.148 -0.8747  0.5218  0.1622
15958TIP3    H269290   1.345   4.186  14.138 -0.7361  0.1363  0.9342
15959TIP3   OH269291   0.593   5.256  16.719  0.5041 -0.3663 -0.2732
15959TIP3    H169292   0.502   5.229  16.734  0.1052  1.0241 -0.0019
15959TIP3    H269293   0.646   5.186  16.757 -0.4578 -0.9039  0.1058
15960TIP3   OH269294   6.106   3.209  12.670 -0.2382 -0.1598 -0.3777
15960TIP3    H169295   6.046   3.158  12.726  0.7214  0.5325  1.3709
15960TIP3    H269296   6.191   3.198  12.712  0.4826  0.5894 -1.6217
15961TIP3   OH269297   6.034   0.557  10.507 -0.4491 -0.0323  0.4125
15961TIP3    H169298   6.108   0.540  10.449  0.8530  1.9018  1.4046
15961TIP3    H269299   5.960   0.571  10.449  0.4064  0.0045 -0.7034
15962TIP3   OH269300   5.709   1.133   2.142  0.1865 -0.2092 -0.1447
15962TIP3    H169301   5.615   1.116   2.149  0.0982  0.6692  1.3533
15962TIP3    H269302   5.720   1.172   2.055 -0.8569 -0.1760 -0.2774
15963TIP3   OH269303   0.480   0.546  12.964  0.3161  0.4604 -0.0865
15963TIP3    H169304   0.436   0.498  13.034  2.1748  2.3317  2.5396
15963TIP3    H269305   0.482   0.637  12.993  2.5472  1.0723 -1.7998
15964TIP3   OH269306   5.059   3.081   3.316 -0.7048  0.1308 -0.1046
15964TIP3    H169307   5.065   3.037   3.231  0.5745 -1.7565  0.8855
15964TIP3    H269308   5.145   3.122   3.328 -1.0259  0.7570  0.0926
15965TIP3   OH269309   5.619   6.266   0.450 -0.1414 -0.4568  0.3236
15965TIP3    H169310   5.706   6.269   0.489  0.8279  2.6176 -1.6863
15965TIP3    H269311   5.633   6.224   0.365 -0.9038 -1.1959  0.5584
15966TIP3   OH269312   4.387   3.712   0.598 -0.8482  0.3362 -0.5845
15966TIP3    H169313   4.325   3.782   0.615 -3.0061 -1.3308 -1.1839
15966TIP3    H269314   4.392   3.663   0.680  0.9553  1.3219 -0.0398
15967TIP3   OH269315   4.729   5.200   3.775  0.2710 -0.1260 -0.1519
15967TIP3    H169316   4.761   5.130   3.832 -1.0241  0.7003  1.6878
15967TIP3    H269317   4.789   5.273   3.791 -0.0377  0.0744  0.1294
15968TIP3   OH269318   2.190   3.665   1.716 -0.2679 -0.9065 -0.0800
15968TIP3    H169319   2.102   3.701   1.725  0.3021  0.1037  2.2291
15968TIP3    H269320   2.244   3.741   1.695  0.2331 -1.3064 -0.2409
15969TIP3   OH269321   6.708   0.667   4.906  0.1113 -1.2526 -0.3715
15969TIP3    H169322   6.797   0.631   4.912  0.5798 -0.2880 -1.2075
15969TIP3    H269323   6.691   0.674   4.813  0.0321  0.5858 -0.2538
15970TIP3   OH269324   6.042   5.180   4.312  0.3800 -0.8981 -0.1117
15970TIP3    H169325   6.069   5.257   4.363  0.7862 -1.3644  0.3980
15970TIP3    H269326   5.995   5.126   4.375 -0.2928 -0.8689 -0.5813
15971TIP3   OH269327   1.748   0.304  13.422 -0.4164 -0.3218  0.2982
15971TIP3    H169328   1.655   0.279  13.418 -0.1040 -1.4558 -0.2168
15971TIP3    H269329   1.746   0.400  13.420 -1.6102 -0.2997  1.2566
15972TIP3   OH269330   6.693   2.228  10.862 -0.3088 -0.0783  0.0559
15972TIP3    H169331   6.625   2.285  10.827  1.4162  1.2739 -1.2343
15972TIP3    H269332   6.756   2.219  10.791  1.2887 -0.5790  1.4821
15973TIP3   OH269333   1.457   5.397   2.389 -0.6341 -0.2710  0.0293
15973TIP3    H169334   1.402   5.321   2.374 -0.2440 -0.7369  0.8895
15973TIP3    H269335   1.473   5.397   2.483  2.9624 -1.7079 -0.4157
15974TIP3   OH269336   5.737   3.897   3.936  0.0109 -0.1654 -0.8152
15974TIP3    H169337   5.661   3.844   3.962  0.4948 -0.4895 -0.0039
15974TIP3    H269338   5.808   3.865   3.992  0.3475  1.2833 -0.3698
15975TIP3   OH269339   5.923   6.141   0.931  0.0618  0.1063 -0.2687
15975TIP3    H169340   5.865   6.088   0.987  0.8026  1.0189  1.4465
15975TIP3    H269341   5.969   6.077   0.877 -0.3473 -0.8696  0.5055
15976TIP3   OH269342   2.983   1.843  10.346 -0.1050  0.0861 -0.2229
15976TIP3    H169343   2.971   1.750  10.365 -0.6019  0.0885 -0.4776
15976TIP3    H269344   2.947   1.888  10.422  0.2390  0.0689 -0.0499
15977TIP3   OH269345   4.137   0.133   3.527  0.7594  0.3767  0.4965
15977TIP3    H169346   4.137   0.212   3.581 -0.4053 -0.1707  1.3178
15977TIP3    H269347   4.045   0.115   3.509  0.9939 -0.8581  0.4138
15978TIP3   OH269348   6.194   6.308  13.728 -0.3824 -0.4842 -0.5742
15978TIP3    H169349   6.158   6.376  13.785 -1.6287 -0.5478 -1.2507
15978TIP3    H269350   6.181   6.342  13.639  4.0836  0.9508 -0.9205
15979TIP3   OH269351   2.989   2.354  12.204 -0.3260 -0.1336  0.3997
15979TIP3    H169352   3.054   2.421  12.223 -0.5700  0.7402 -1.5228
15979TIP3    H269353   3.011   2.281  12.262  1.0539  0.9282  1.2750
15980TIP3   OH269354   2.879   2.253  12.798  0.2511  0.5401  0.3334
15980TIP3    H169355   2.900   2.302  12.718  1.6262 -1.5492 -0.7021
15980TIP3    H269356   2.929   2.172  12.789 -2.3027 -1.3176  1.6481
15981TIP3   OH269357   3.635   3.798  16.817  0.2693 -0.0897 -0.4568
15981TIP3    H169358   3.658   3.709  16.790  1.3567  0.5572 -1.7543
15981TIP3    H269359   3.645   3.851  16.738  0.9102  1.4188  0.5960
15982TIP3   OH269360   5.391   6.504   5.463  0.3715  0.0656  0.1938
15982TIP3    H169361   5.433   6.422   5.438  1.9778  1.3346 -1.5004
15982TIP3    H269362   5.337   6.527   5.388 -0.5694  0.2691  0.9108
15983TIP3   OH269363   2.245   0.702  15.744 -0.1339  0.7048 -0.2891
15983TIP3    H169364   2.161   0.746  15.755 -0.4394  0.2809 -0.8784
15983TIP3    H269365   2.243   0.668  15.654 -0.2866 -1.2514  0.4012
15984TIP3   OH269366   1.187   1.112  13.884 -0.1993  0.3773  0.0988
15984TIP3    H169367   1.246   1.076  13.817 -1.2490  0.5555 -0.9412
15984TIP3    H269368   1.206   1.206  13.885  0.0965  0.3179  0.3493
15985TIP3   OH269369   5.739   5.725  11.488  0.0770  0.0742 -0.9848
15985TIP3    H169370   5.659   5.683  11.459  0.5540 -0.1793 -1.9766
15985TIP3    H269371   5.715   5.768  11.570 -0.9982 -0.2120 -1.1336
15986TIP3   OH269372   1.474   3.901  16.584  0.5461  0.3840 -0.2155
15986TIP3    H169373   1.399   3.919  16.640  0.0630  1.3240 -1.1250
15986TIP3    H269374   1.462   3.810  16.556 -0.4844  0.6435 -0.6684
15987TIP3   OH269375   4.315   0.946   2.565 -0.5388  0.2147  0.3491
15987TIP3    H169376   4.361   0.965   2.483  2.7261 -1.2921  1.6479
15987TIP3    H269377   4.304   1.031   2.606  1.2631  0.6764 -0.0124
15988TIP3   OH269378   1.050   6.315  14.056  0.2630 -0.0168  0.6569
15988TIP3    H169379   1.064   6.291  13.964 -0.0146  0.5884  0.4528
15988TIP3    H269380   0.963   6.282  14.076 -0.4548  1.4632  0.1377
15989TIP3   OH269381   1.521   2.638  16.108  0.2933 -0.0915  0.4369
15989TIP3    H169382   1.448   2.627  16.047 -1.4682 -1.0700  2.5812
15989TIP3    H269383   1.579   2.565  16.088  0.1268  0.0352 -0.5526
15990TIP3   OH269384   4.551   1.886  16.505 -0.3989  0.0886  0.1788
15990TIP3    H169385   4.513   1.803  16.534  0.4227 -0.6264 -0.7340
15990TIP3    H269386   4.537   1.888  16.411 -0.5244  1.0585  0.2048
15991TIP3   OH269387   1.049   1.686   4.623 -0.1217 -0.1611 -0.0774
15991TIP3    H169388   0.962   1.674   4.662  0.0350 -1.2364 -0.0312
15991TIP3    H269389   1.087   1.598   4.620 -0.1569 -0.1668 -2.7610
15992TIP3   OH269390   5.576   5.947  16.341 -0.0818 -0.1599 -0.6294
15992TIP3    H169391   5.528   6.026  16.365 -0.7455 -1.0478  1.1500
15992TIP3    H269392   5.520   5.903  16.277  0.5548  1.0355 -2.0688
15993TIP3   OH269393   5.738   3.770   3.507  0.5876  0.4192 -0.4875
15993TIP3    H169394   5.783   3.796   3.427  1.3093 -0.6739 -0.4581
15993TIP3    H269395   5.713   3.853   3.548  1.7451  1.0474 -0.9909
15994TIP3   OH269396   6.125   3.020   5.308 -0.7056  0.2481 -0.2553
15994TIP3    H169397   6.112   3.080   5.381 -3.1953 -0.7500  0.2103
15994TIP3    H269398   6.220   3.015   5.298 -0.3259  1.3946  2.0761
15995TIP3   OH269399   1.083   4.330  13.877  0.6425 -0.1912 -0.2004
15995TIP3    H169400   0.989   4.314  13.867  0.6227 -1.1173  1.2612
15995TIP3    H269401   1.121   4.243  13.889  1.7200  0.1703 -0.8253
15996TIP3   OH269402   5.455   5.271   2.802 -0.0844  0.0832  0.4565
15996TIP3    H169403   5.494   5.184   2.795 -0.8114 -0.4205  2.1745
15996TIP3    H269404   5.484   5.317   2.723 -1.9568 -2.6222 -2.0027
15997TIP3   OH269405   1.848   5.418  12.471  0.1517 -0.1782  0.3343
15997TIP3    H169406   1.938   5.397  12.495  0.1793  0.4800  0.8238
15997TIP3    H269407   1.805   5.333  12.465  0.9032 -0.5291 -0.3192
15998TIP3   OH269408   2.220   5.215   3.891 -0.7247  0.0091  0.0951
15998TIP3    H169409   2.266   5.169   3.960 -0.8142 -1.8413 -1.0195
15998TIP3    H269410   2.233   5.161   3.813 -0.3996  2.1411 -1.4164
15999TIP3   OH269411   5.543   3.837   1.064 -0.2052  0.2968  0.5580
15999TIP3    H169412   5.590   3.761   1.031 -0.8975 -0.3331  1.0115
15999TIP3    H269413   5.570   3.845   1.156  2.5503  2.6743 -0.2894
16000TIP3   OH269414   5.666   6.753   2.381  0.1898 -0.2497 -0.2814
16000TIP3    H169415   5.723   6.705   2.321  0.7609 -0.2371  0.2402
16000TIP3    H269416   5.661   6.698   2.458 -0.6800 -0.3422 -0.3992
16001TIP3   OH269417   0.606   4.981  11.122 -0.1012  0.2589 -0.5163
16001TIP3    H169418   0.541   4.981  11.052 -1.0117 -0.7666  0.2680
16001TIP3    H269419   0.644   5.069  11.121 -0.9782  0.6429 -1.4846
16002TIP3   OH269420   5.820   3.860   2.418  0.4058 -0.3178  0.4719
16002TIP3    H169421   5.865   3.945   2.419  0.3250 -0.0989  4.4408
16002TIP3    H269422   5.743   3.874   2.473 -0.0690 -2.7603  0.5207
16003TIP3   OH269423   2.393   3.162   0.476  0.4008  0.7149 -0.2559
16003TIP3    H169424   2.472   3.209   0.502  0.2169  0.7820  0.1911
16003TIP3    H269425   2.421   3.072   0.465  0.1304  0.2793  2.0582
16004TIP3   OH269426   5.173   3.919  13.821  0.6605  0.3211 -0.4793
16004TIP3    H169427   5.148   3.834  13.785  1.6301 -0.5943  0.8796
16004TIP3    H269428   5.094   3.973  13.814  0.3213 -0.3518 -2.2779
16005TIP3   OH269429   4.153   2.640  15.180 -0.5157  0.1951  0.0696
16005TIP3    H169430   4.147   2.675  15.268  0.1993  0.8113 -0.1216
16005TIP3    H269431   4.062   2.634  15.150 -0.8139 -0.6238  1.0646
16006TIP3   OH269432   3.800   2.334   1.944  0.2556  0.3753 -0.1238
16006TIP3    H169433   3.808   2.349   1.850 -0.6192  2.8186  0.1227
16006TIP3    H269434   3.719   2.285   1.955  1.6830 -2.3310 -0.7587
16007TIP3   OH269435   2.530   0.326   5.580 -0.4007 -0.8514  0.2043
16007TIP3    H169436   2.461   0.368   5.630 -0.6560 -1.7019  0.5726
16007TIP3    H269437   2.484   0.281   5.509 -0.1811 -0.9917  0.1503
16008TIP3   OH269438   6.535   0.138  10.670 -0.3355  0.0333 -0.5311
16008TIP3    H169439   6.629   0.122  10.669 -0.0591  1.4173  0.2346
16008TIP3    H269440   6.500   0.076  10.734  0.2392  0.3651  0.1104
16009TIP3   OH269441   1.289   1.863  15.596  0.2295 -0.0951 -0.0386
16009TIP3    H169442   1.320   1.797  15.534 -0.3697  0.7408 -1.2721
16009TIP3    H269443   1.318   1.946  15.559 -1.0723  0.5019  0.2264
16010TIP3   OH269444   5.177   3.964   3.038  0.4757 -0.0559  0.5654
16010TIP3    H169445   5.270   3.982   3.051  0.4771  1.1267 -0.7861
16010TIP3    H269446   5.172   3.925   2.950 -0.3290  0.1775  0.5005
16011TIP3   OH269447   4.009   4.697   4.711  0.0988 -0.2050 -0.6782
16011TIP3    H169448   4.039   4.737   4.793  1.3431 -0.2024 -1.1236
16011TIP3    H269449   3.916   4.720   4.706  0.1618  0.3292  0.4169
16012TIP3   OH269450   3.390   1.602   2.720  0.0245 -0.1354 -0.1132
16012TIP3    H169451   3.306   1.584   2.676  0.6438  0.7941 -1.8008
16012TIP3    H269452   3.365   1.630   2.808 -1.3613 -1.1395 -0.1498
16013TIP3   OH269453   4.092   5.093  16.932  0.2510  0.0350 -0.3673
16013TIP3    H169454   4.018   5.111  16.989  0.2425 -1.7949  0.2782
16013TIP3    H269455   4.053   5.068  16.848  0.0096 -2.2797  0.3681
16014TIP3   OH269456   6.033   3.676   4.502 -0.2481  0.4823  0.1475
16014TIP3    H169457   5.972   3.635   4.439 -0.2686  0.4499  0.1886
16014TIP3    H269458   6.083   3.738   4.449 -0.6881  0.9069  0.2168
16015TIP3   OH269459   2.007   4.952  14.761 -0.6215  0.2602  0.9066
16015TIP3    H169460   1.952   4.989  14.692 -1.3949 -1.3073  0.6363
16015TIP3    H269461   1.946   4.926  14.829 -0.2728 -1.7075  0.5131
16016TIP3   OH269462   2.445   6.442  12.413 -0.2096  0.2717  0.0996
16016TIP3    H169463   2.444   6.389  12.334  0.3319  0.1067  0.2023
16016TIP3    H269464   2.365   6.494  12.408 -0.5042 -0.2106 -0.2336
16017TIP3   OH269465   6.564   1.270  13.748  0.2160 -0.7286 -0.1265
16017TIP3    H169466   6.483   1.235  13.710 -0.9718  1.0726  0.5599
16017TIP3    H269467   6.622   1.283  13.673 -0.6495 -0.7926 -0.8251
16018TIP3   OH269468   0.247   6.313  13.870  0.0260 -0.0537  0.0846
16018TIP3    H169469   0.252   6.278  13.960  0.3092  0.9516  0.4792
16018TIP3    H269470   0.175   6.265  13.829 -1.4813  0.9106  1.5033
16019TIP3   OH269471   3.692   5.583  14.391  0.8112  0.3342 -0.4256
16019TIP3    H169472   3.724   5.560  14.478  2.2308  0.7796 -0.7954
16019TIP3    H269473   3.611   5.632  14.407  0.6269 -0.2781  0.5905
16020TIP3   OH269474   6.029   0.636   5.655 -0.8702  0.0617 -0.1320
16020TIP3    H169475   6.029   0.725   5.691  1.2808  0.0792 -0.0462
16020TIP3    H269476   6.028   0.579   5.733  0.3916  0.0572 -0.1099
16021TIP3   OH269477   3.755   1.401   1.095 -0.0810  0.2990  0.0944
16021TIP3    H169478   3.764   1.312   1.061 -1.3405  0.6760 -1.3201
16021TIP3    H269479   3.734   1.389   1.188 -1.0508 -0.8993 -0.2519
16022TIP3   OH269480   6.673   0.450  11.285  0.2844 -0.4867  0.3644
16022TIP3    H169481   6.674   0.544  11.267  2.6975 -0.6521 -0.7721
16022TIP3    H269482   6.617   0.414  11.216 -1.1219  0.1350  1.1464
16023TIP3   OH269483   0.253   1.498  12.401 -0.2568  0.7700 -0.0245
16023TIP3    H169484   0.207   1.476  12.482  1.5839 -2.6854  0.2679
16023TIP3    H269485   0.190   1.478  12.332 -0.4718 -0.3722  0.4768
16024TIP3   OH269486   4.987   4.818  14.488 -0.1833  0.0693 -0.4604
16024TIP3    H169487   4.955   4.908  14.496  0.4368  0.1127  3.2133
16024TIP3    H269488   5.071   4.819  14.535 -1.2729 -2.8502  1.8136
16025TIP3   OH269489   2.253   2.815  14.815 -0.4240 -0.2766  0.0888
16025TIP3    H169490   2.269   2.761  14.738 -0.2887  0.5241 -0.4581
16025TIP3    H269491   2.171   2.781  14.851 -0.3856 -0.7910 -0.2938
16026TIP3   OH269492   3.986   2.924  14.098  0.0880 -0.2101  0.3899
16026TIP3    H169493   3.963   3.001  14.151  1.3685  0.5459 -0.1100
16026TIP3    H269494   4.075   2.902  14.126 -0.1246 -1.2892  0.2512
16027TIP3   OH269495   1.525   0.373   3.878 -0.1245  0.1416 -0.3659
16027TIP3    H169496   1.442   0.413   3.849 -1.9984 -2.9449  0.2878
16027TIP3    H269497   1.578   0.369   3.798 -1.6659 -0.1695 -1.4382
16028TIP3   OH269498   3.893   6.723   2.301 -0.1011 -0.3947  0.6029
16028TIP3    H169499   3.877   6.691   2.212  0.7833  0.1363  0.2406
16028TIP3    H269500   3.811   6.706   2.347 -0.6166 -0.5738 -0.3456
16029TIP3   OH269501   5.141   1.774  14.269  0.2851 -0.2757 -0.3602
16029TIP3    H169502   5.049   1.748  14.273  0.1145  0.2273 -0.8793
16029TIP3    H269503   5.140   1.867  14.294  0.6099 -0.1812 -0.6923
16030TIP3   OH269504   1.002   0.622  16.605  0.2444  0.1079  0.1422
16030TIP3    H169505   1.005   0.591  16.696 -1.1062  0.6616  0.4000
16030TIP3    H269506   1.007   0.717  16.612 -1.5808  0.2650 -0.2169
16031TIP3   OH269507   5.646   1.707   5.104  0.0482  0.0146 -0.3661
16031TIP3    H169508   5.651   1.777   5.168  0.7654  0.7006 -1.1511
16031TIP3    H269509   5.597   1.744   5.031 -1.4150 -0.9991  0.0618
16032TIP3   OH269510   3.146   5.168   5.472 -0.2809 -0.6461 -0.5697
16032TIP3    H169511   3.195   5.170   5.390 -0.6757 -0.9475 -0.8162
16032TIP3    H269512   3.131   5.075   5.489 -1.1594 -0.5472 -0.7365
16033TIP3   OH269513   5.794   1.653  13.324 -0.5626 -0.7665  0.7369
16033TIP3    H169514   5.815   1.686  13.237  0.1250 -1.2153  0.7222
16033TIP3    H269515   5.749   1.569  13.308  0.0670 -1.1232  0.8209
16034TIP3   OH269516   0.050   6.233  14.667  0.1478  0.5903 -0.7896
16034TIP3    H169517   0.131   6.198  14.630  1.3288  0.2909  1.8770
16034TIP3    H269518   0.076   6.313  14.711 -0.1445 -1.2668  3.1738
16035TIP3   OH269519   5.520   1.284   4.691  0.1365  0.0242  0.7475
16035TIP3    H169520   5.541   1.374   4.665 -1.5172  0.0894 -0.4711
16035TIP3    H269521   5.513   1.288   4.787  2.5586  0.6025  0.9642
16036TIP3   OH269522   0.747   3.089   4.313  0.1107 -0.2062 -0.4299
16036TIP3    H169523   0.822   3.041   4.276  0.3956 -0.8321  0.9114
16036TIP3    H269524   0.766   3.181   4.294  0.9285 -0.4059 -0.6142
16037TIP3   OH269525   6.063   4.366   2.572 -0.7838 -0.3663  0.4891
16037TIP3    H169526   5.972   4.374   2.600 -0.7514  0.9649  0.2892
16037TIP3    H269527   6.081   4.447   2.525  0.8004 -0.1673  1.3638
16038TIP3   OH269528   0.624   2.740  15.139 -0.3293 -0.6183  0.6231
16038TIP3    H169529   0.703   2.751  15.191  0.3195 -0.5843 -0.3348
16038TIP3    H269530   0.640   2.660  15.087  0.0709  0.6120 -1.2483
16039TIP3   OH269531   3.162   5.419   0.835  0.1602 -0.1883 -0.2810
16039TIP3    H169532   3.097   5.483   0.806 -0.7306 -1.1093 -0.3466
16039TIP3    H269533   3.113   5.339   0.850  1.2421 -0.8358 -0.0723
16040TIP3   OH269534   3.376   4.862  13.325 -0.4426 -0.6555  0.3279
16040TIP3    H169535   3.445   4.909  13.371  0.4903 -1.8397  0.1778
16040TIP3    H269536   3.365   4.781  13.374 -0.2227 -1.4342 -0.8783
16041TIP3   OH269537   3.062   3.916   2.918 -0.1068 -0.2720 -0.0814
16041TIP3    H169538   2.998   3.969   2.964  0.1439 -0.3852  0.4029
16041TIP3    H269539   3.015   3.836   2.895 -0.2998 -0.1141 -0.2385
16042TIP3   OH269540   2.740   4.068   5.603 -0.0093  0.1806  0.6805
16042TIP3    H169541   2.717   4.156   5.573  0.6562  0.1153 -0.0415
16042TIP3    H269542   2.690   4.010   5.545  1.4945  0.0488 -0.5551
16043TIP3   OH269543   1.176   6.233  15.045  0.2946  0.9805 -0.1830
16043TIP3    H169544   1.099   6.275  15.084  0.0456  1.0138 -0.6997
16043TIP3    H269545   1.148   6.144  15.025  0.3889  0.9919 -0.3698
16044TIP3   OH269546   3.837   1.429  16.433 -0.0247  0.5089  0.5568
16044TIP3    H169547   3.866   1.444  16.523  1.4569  0.3154  0.1310
16044TIP3    H269548   3.818   1.335  16.430  1.5907  0.1597  0.2435
16045TIP3   OH269549   0.069   2.357  12.006 -0.5708 -0.4821  1.2505
16045TIP3    H169550   0.155   2.322  12.032 -0.1509 -2.2463 -2.0198
16045TIP3    H269551   0.088   2.442  11.966  0.0158 -1.6211 -1.0660
16046TIP3   OH269552   1.167   1.555  15.933  0.0947  0.5195 -0.3916
16046TIP3    H169553   1.183   1.597  15.849 -0.2903  0.1674 -0.6438
16046TIP3    H269554   1.138   1.466  15.910 -0.3567  0.5367  0.1036
16047TIP3   OH269555   4.237   3.906   6.213  0.0547  0.1363 -0.1498
16047TIP3    H169556   4.233   3.970   6.283 -1.9275  0.6773 -0.6693
16047TIP3    H269557   4.255   3.823   6.256 -2.4565  0.2154  1.2623
16048TIP3   OH269558   6.163   6.477  10.519  0.2867  0.3349  0.3976
16048TIP3    H169559   6.164   6.500  10.426  1.3552  1.0515  0.5676
16048TIP3    H269560   6.096   6.410  10.526 -0.1141  0.5820 -0.8181
16049TIP3   OH269561   2.988   3.044  10.652 -0.2569 -0.7581 -0.1342
16049TIP3    H169562   3.054   2.975  10.658  0.9795  0.3947  0.1644
16049TIP3    H269563   2.927   3.025  10.723 -0.3355 -1.9285 -0.4989
16050TIP3   OH269564   3.723   1.326  17.071 -0.3169 -0.4552 -0.0931
16050TIP3    H169565   3.800   1.371  17.037 -0.5627  0.1118  0.0832
16050TIP3    H269566   3.657   1.335  17.001 -0.5432 -0.0538  0.1702
16051TIP3   OH269567   1.056   3.111   0.654  0.6846  0.3212 -0.5706
16051TIP3    H169568   0.964   3.135   0.658  0.4925 -0.4730  0.3902
16051TIP3    H269569   1.066   3.066   0.570 -0.1429 -0.8044 -0.0928
16052TIP3   OH269570   4.496   6.651   3.370 -0.5228 -0.6431  1.2453
16052TIP3    H169571   4.433   6.695   3.427 -1.0332  0.0208  0.1958
16052TIP3    H269572   4.529   6.720   3.313 -1.9328 -1.7325 -0.9864
16053TIP3   OH269573   0.531   0.489  16.911 -0.1683  0.1636 -0.1183
16053TIP3    H169574   0.533   0.397  16.885 -0.1693  0.4514 -1.1998
16053TIP3    H269575   0.451   0.524  16.870  0.0421  0.7386 -0.0572
16054TIP3   OH269576   3.717   6.114   0.941 -0.5832  0.0824  0.5308
16054TIP3    H169577   3.742   6.044   0.882  0.8445 -1.4057  2.7533
16054TIP3    H269578   3.704   6.190   0.884 -0.9234 -1.6209 -1.8082
16055TIP3   OH269579   2.191   1.560  12.755  0.1182 -0.1007  0.0683
16055TIP3    H169580   2.133   1.483  12.749  0.6333 -0.6435  1.5401
16055TIP3    H269581   2.185   1.601  12.669 -2.6397  0.0002  0.2214
16056TIP3   OH269582   1.360   0.254  16.553  0.3802  0.0834 -0.0953
16056TIP3    H169583   1.291   0.279  16.492 -0.4484  1.1000  1.1972
16056TIP3    H269584   1.430   0.318  16.538  0.9925 -0.8357 -1.2779
16057TIP3   OH269585   3.439   1.118   0.737  0.0801 -0.0320  0.1518
16057TIP3    H169586   3.500   1.063   0.786  1.0707  1.5563  0.7767
16057TIP3    H269587   3.494   1.171   0.679 -0.9527 -0.7097 -1.5303
16058TIP3   OH269588   0.189   3.702   4.625 -0.3298 -0.6946  0.3067
16058TIP3    H169589   0.135   3.625   4.640 -0.0721 -0.6514  1.5901
16058TIP3    H269590   0.237   3.682   4.545 -2.6553 -0.4666 -1.2163
16059TIP3   OH269591   4.641   1.948  11.458 -0.4326  0.0063  0.0277
16059TIP3    H169592   4.649   1.853  11.470  0.4260  0.0788  0.1377
16059TIP3    H269593   4.550   1.968  11.480  0.0079 -0.4321  2.5466
16060TIP3   OH269594   2.144   4.822   2.298 -0.0711  0.4029 -0.2115
16060TIP3    H169595   2.215   4.758   2.307 -0.8804 -0.6222 -0.8171
16060TIP3    H269596   2.174   4.882   2.230  1.2574  1.4972  1.2724
16061TIP3   OH269597   3.575   1.198  14.540  0.0103  0.1438  0.4273
16061TIP3    H169598   3.637   1.207  14.467  0.5180 -2.2682  0.4687
16061TIP3    H269599   3.489   1.208  14.500  0.2808 -1.2825 -0.5769
16062TIP3   OH269600   5.246   5.713  12.035 -0.4068  0.2907 -0.0458
16062TIP3    H169601   5.179   5.779  12.053 -0.0054  1.2483 -1.7680
16062TIP3    H269602   5.208   5.631  12.065 -2.8138  0.6429 -1.7840
16063TIP3   OH269603   4.036   3.011  14.407 -0.2931 -0.0539  0.0310
16063TIP3    H169604   4.070   2.939  14.461 -0.4790  0.3661  0.7184
16063TIP3    H269605   3.962   3.046  14.456 -0.6703  0.1357 -0.6535
16064TIP3   OH269606   6.171   0.786   0.310  0.0115  0.2011  0.1678
16064TIP3    H169607   6.137   0.732   0.239 -0.4645 -0.1091  0.6284
16064TIP3    H269608   6.094   0.808   0.363 -0.0934  2.6778 -0.8937
16065TIP3   OH269609   5.597   3.885   2.594 -0.2194 -0.0892  0.4618
16065TIP3    H169610   5.564   3.975   2.595 -1.1318 -0.4110  0.1305
16065TIP3    H269611   5.588   3.855   2.684  1.3909  0.5869  0.8963
16066TIP3   OH269612   2.796   6.798  11.637 -0.4348 -0.4730  0.4797
16066TIP3    H169613   2.753   6.720  11.602  0.9962  0.4011 -3.7872
16066TIP3    H269614   2.882   6.767  11.666 -0.4740 -0.7349  0.3223
16067TIP3   OH269615   1.872   1.210  12.156 -0.6729  0.0916  0.1430
16067TIP3    H169616   1.863   1.248  12.069 -2.5295  2.2986  1.2273
16067TIP3    H269617   1.967   1.195  12.166 -0.5471 -1.6569 -2.7532
16068TIP3   OH269618   1.291   4.614   2.509 -0.0432 -0.5293  0.6217
16068TIP3    H169619   1.374   4.577   2.480  0.4160  0.9104  0.0448
16068TIP3    H269620   1.234   4.611   2.432  0.0475  0.0735  0.5240
16069TIP3   OH269621   5.230   0.964   1.623 -0.6789  0.8630  0.4691
16069TIP3    H169622   5.172   0.891   1.645 -2.5903  1.9479 -0.6444
16069TIP3    H269623   5.302   0.925   1.575  0.0492 -0.6643  2.6654
16070TIP3   OH269624   2.401   3.617  14.737  0.1782 -0.2276  0.4852
16070TIP3    H169625   2.453   3.697  14.731 -0.9349  0.5240  0.5535
16070TIP3    H269626   2.363   3.619  14.824  0.3558 -0.9868  0.5916
16071TIP3   OH269627   2.592   2.526  11.574  0.4451 -0.4355  0.0002
16071TIP3    H169628   2.653   2.592  11.609  1.8365 -1.8662  0.3771
16071TIP3    H269629   2.570   2.472  11.650 -1.6082  0.2445 -0.0542
16072TIP3   OH269630   4.443   4.411  11.321 -0.4911  0.5463 -0.0658
16072TIP3    H169631   4.466   4.456  11.240 -1.1466  0.9537 -0.0391
16072TIP3    H269632   4.479   4.323  11.311 -0.4302  0.6418 -0.7312
16073TIP3   OH269633   2.851   0.338  11.862  0.8683  0.1436 -0.2130
16073TIP3    H169634   2.780   0.391  11.897  0.2290 -1.8714  1.8435
16073TIP3    H269635   2.844   0.347  11.767 -1.2144  1.1661 -0.0198
16074TIP3   OH269636   0.575   4.025  11.782  1.1247  0.5506 -0.0128
16074TIP3    H169637   0.543   3.935  11.774  0.7707  0.6786 -0.0723
16074TIP3    H269638   0.580   4.056  11.692  1.1803  0.6155  0.0131
16075TIP3   OH269639   1.737   5.010   0.626 -0.1190  0.0026 -0.0947
16075TIP3    H169640   1.681   4.939   0.594  0.1064 -0.0863 -0.2939
16075TIP3    H269641   1.826   4.974   0.621 -0.1145 -0.1937  1.0971
16076TIP3   OH269642   1.522   5.030   4.064  0.0087 -0.3642  0.0061
16076TIP3    H169643   1.540   5.022   3.970 -1.4859  1.4677 -0.4782
16076TIP3    H269644   1.602   4.997   4.106  1.0627 -0.3909 -1.9039
16077TIP3   OH269645   1.255   5.871  16.876  0.7446 -0.4712 -0.0046
16077TIP3    H169646   1.321   5.857  16.809  1.6560  0.9019  0.5687
16077TIP3    H269647   1.299   5.849  16.958  0.2455 -0.2699  0.3205
16078TIP3   OH269648   3.472   5.978  13.823  0.1440 -0.1118 -0.5968
16078TIP3    H169649   3.424   5.895  13.821 -0.6408  0.2993  0.3848
16078TIP3    H269650   3.553   5.958  13.869 -1.1889  0.1738  2.1051
16079TIP3   OH269651   2.943   1.384   2.495 -0.4560  0.8694  0.3608
16079TIP3    H169652   2.865   1.397   2.442 -1.2254 -0.5535  1.0579
16079TIP3    H269653   2.909   1.359   2.581  0.6830 -2.3361  0.0226
16080TIP3   OH269654   6.454   0.664   1.802 -0.3807  0.2886 -0.0389
16080TIP3    H169655   6.416   0.734   1.749  1.7977  2.3452  0.9599
16080TIP3    H269656   6.511   0.616   1.742 -1.2673 -0.1905 -0.5302
16081TIP3   OH269657   2.885   6.398  15.160  0.4004 -0.3090  0.2103
16081TIP3    H169658   2.931   6.409  15.077  0.2952  0.5619  0.2604
16081TIP3    H269659   2.900   6.479  15.207 -0.2902 -0.4403  0.6753
16082TIP3   OH269660   0.508   2.113   1.937  0.6512 -0.6746  0.2305
16082TIP3    H169661   0.469   2.183   1.989  0.3570 -1.0696  0.5525
16082TIP3    H269662   0.542   2.156   1.859  3.0844  0.3135  1.7051
16083TIP3   OH269663   3.211   1.788   2.511  0.0610 -0.0471  0.5675
16083TIP3    H169664   3.305   1.801   2.495 -0.2341  2.7307  0.6164
16083TIP3    H269665   3.208   1.731   2.588  1.5418 -4.3302 -2.1600
16084TIP3   OH269666   6.085   0.464  10.856  0.2349  0.0707  0.3206
16084TIP3    H169667   6.041   0.418  10.927 -0.2354  0.8201  0.5167
16084TIP3    H269668   6.082   0.402  10.783 -0.3996 -0.2139  0.5783
16085TIP3   OH269669   3.849   2.295   5.303  0.1731 -0.2767 -0.5157
16085TIP3    H169670   3.833   2.262   5.391  0.7849  1.1843  0.1707
16085TIP3    H269671   3.939   2.267   5.283 -0.5096 -2.0334 -1.3831
16086TIP3   OH269672   1.505   4.034  15.552 -0.1635  0.2686  0.2253
16086TIP3    H169673   1.514   3.952  15.602  1.5892  1.8960  2.8332
16086TIP3    H269674   1.448   4.088  15.606  1.0967  1.7855  0.1169
16087TIP3   OH269675   2.966   4.373   3.148 -0.7111  0.6704 -0.5953
16087TIP3    H169676   2.969   4.312   3.074 -0.7607  1.2676 -1.0903
16087TIP3    H269677   3.047   4.356   3.196 -0.4909  0.5503 -1.0009
16088TIP3   OH269678   0.892   1.628   0.639 -0.3389 -0.3350 -0.4393
16088TIP3    H169679   0.891   1.570   0.715 -1.2869 -1.5053 -1.2932
16088TIP3    H269680   0.915   1.571   0.565 -0.9967  0.4249 -1.2621
16089TIP3   OH269681   0.668   6.223   4.486 -0.2658 -0.0448 -0.2562
16089TIP3    H169682   0.593   6.274   4.515 -0.4214 -0.9391  0.9803
16089TIP3    H269683   0.724   6.215   4.563 -0.4965 -2.1639 -0.2485
16090TIP3   OH269684   3.879   1.332   2.188  0.3757 -0.4913  0.8038
16090TIP3    H169685   3.885   1.409   2.245  0.1255  0.1915 -0.0662
16090TIP3    H269686   3.796   1.343   2.141  1.0608 -0.5057 -0.4386
16091TIP3   OH269687   6.789   5.546  13.098 -0.5307 -0.1794  0.2754
16091TIP3    H169688   6.740   5.485  13.043 -0.2316 -1.2539  1.1738
16091TIP3    H269689   6.881   5.529  13.076 -0.4750  1.2758 -0.8236
16092TIP3   OH269690   4.043   0.129  14.358  0.4170  0.7441 -0.4022
16092TIP3    H169691   4.087   0.050  14.327 -0.6509  0.0227 -0.1577
16092TIP3    H269692   4.073   0.139  14.448 -1.4589 -0.9964  0.5160
16093TIP3   OH269693   3.699   2.536  13.853 -0.7636  0.5908 -0.3611
16093TIP3    H169694   3.729   2.627  13.860 -4.0016  1.7580  0.1163
16093TIP3    H269695   3.622   2.531  13.909 -0.8243 -2.4435 -0.5193
16094TIP3   OH269696   0.831   4.305  17.064  0.0828  0.2560  0.6719
16094TIP3    H169697   0.889   4.342  16.997  2.6188 -0.1505  2.4842
16094TIP3    H269698   0.760   4.265  17.014  1.1154  1.1657 -1.6898
16095TIP3   OH269699   0.719   0.420  14.253 -0.2111 -0.0502 -0.0098
16095TIP3    H169700   0.665   0.486  14.209  0.4168  0.4162 -0.0913
16095TIP3    H269701   0.788   0.400  14.190  0.4724  0.3315  0.6050
16096TIP3   OH269702   0.626   3.682   3.957 -0.4892  0.2064 -0.3625
16096TIP3    H169703   0.710   3.727   3.956 -1.6263  2.5298  0.7701
16096TIP3    H269704   0.596   3.689   4.047 -2.6865  1.0903 -1.0957
16097TIP3   OH269705   5.006   2.785  12.211 -0.0393 -0.6858  0.5393
16097TIP3    H169706   5.087   2.749  12.247 -1.1065 -1.2711  2.5286
16097TIP3    H269707   4.973   2.715  12.154 -0.2402 -1.3968  1.4914
16098TIP3   OH269708   1.646   5.705   3.358  0.0059 -0.0165 -0.0241
16098TIP3    H169709   1.677   5.760   3.286  2.3676  0.1640  1.0289
16098TIP3    H269710   1.642   5.764   3.433 -0.1100 -0.6975  0.5149
16099TIP3   OH269711   2.892   2.748   4.731  0.1162 -0.5605 -0.8760
16099TIP3    H169712   2.913   2.694   4.807 -0.6586  0.0926 -0.1918
16099TIP3    H269713   2.968   2.739   4.674  0.9146 -0.6910  0.1797
16100TIP3   OH269714   1.542   6.439   2.125 -0.1654 -0.3508 -0.0672
16100TIP3    H169715   1.562   6.523   2.084  1.4212 -0.3060  0.7313
16100TIP3    H269716   1.537   6.459   2.219  0.3222 -1.1679  0.1380
16101TIP3   OH269717   1.346   4.212   1.461 -0.0319 -0.0334 -0.0562
16101TIP3    H169718   1.337   4.119   1.441  0.0846 -0.1692  0.5052
16101TIP3    H269719   1.356   4.215   1.556 -1.2589  0.6389  0.0776
16102TIP3   OH269720   0.189   6.198   5.345 -0.7489  0.6426 -0.4925
16102TIP3    H169721   0.169   6.105   5.338 -1.0234  0.6327  0.2728
16102TIP3    H269722   0.221   6.223   5.259  2.0778 -0.7966  0.0122
16103TIP3   OH269723   4.852   4.526  15.887  0.2690 -0.4321 -0.0455
16103TIP3    H169724   4.833   4.511  15.980 -0.6936  0.2840 -0.1072
16103TIP3    H269725   4.942   4.495  15.876  1.3603  1.7437  1.7357
16104TIP3   OH269726   6.425   2.638   4.469 -0.0126  0.4473 -0.4577
16104TIP3    H169727   6.516   2.628   4.498 -0.6943 -2.2919  1.1317
16104TIP3    H269728   6.419   2.585   4.390  0.0736  1.8250 -1.4169
16105TIP3   OH269729   1.047   4.920  15.117 -0.3545  0.0598  0.0042
16105TIP3    H169730   1.138   4.948  15.122 -0.6343  1.0202 -0.0155
16105TIP3    H269731   1.043   4.841  15.170  0.5427 -0.1393 -0.2160
16106TIP3   OH269732   1.757   1.034  11.529  0.1872 -0.3770 -0.1077
16106TIP3    H169733   1.695   1.044  11.601  0.4754 -0.1689  0.1069
16106TIP3    H269734   1.837   1.075  11.559 -0.0388  0.7644 -0.9894
16107TIP3   OH269735   5.521   0.360  11.495  0.1913  0.8931 -0.1335
16107TIP3    H169736   5.547   0.447  11.525  0.7754 -0.1367  2.6900
16107TIP3    H269737   5.426   0.365  11.485  0.1587  1.7543  0.5135
16108TIP3   OH269738   6.635   0.349   4.182 -0.1206 -0.4954 -0.4638
16108TIP3    H169739   6.615   0.310   4.096  0.4336 -0.4502 -0.6137
16108TIP3    H269740   6.563   0.319   4.238 -0.1238 -1.0911 -0.7737
16109TIP3   OH269741   3.377   5.428   4.216  0.5644  0.2407  0.0288
16109TIP3    H169742   3.454   5.378   4.189  0.4646 -1.2062  2.1952
16109TIP3    H269743   3.304   5.366   4.209 -0.1248  1.0696 -0.3364
16110TIP3   OH269744   1.767   3.894  11.250  0.0978 -0.3149  0.1750
16110TIP3    H169745   1.743   3.950  11.324 -0.9698 -0.4291 -0.0699
16110TIP3    H269746   1.768   3.952  11.175 -1.4017 -0.6673 -0.1471
16111TIP3   OH269747   5.382   5.902   3.964 -0.3405 -0.1467  0.1187
16111TIP3    H169748   5.301   5.876   4.008  0.1116  0.5714  1.4019
16111TIP3    H269749   5.428   5.819   3.949  0.6497 -0.3214  3.3243
16112TIP3   OH269750   2.903   3.202  16.048  0.7491  0.3946 -0.2177
16112TIP3    H169751   2.875   3.124  16.094  2.9906  0.9660  2.3395
16112TIP3    H269752   2.953   3.170  15.973  0.7871 -0.6290  0.2343
16113TIP3   OH269753   4.457   5.941  16.101  0.0274 -0.1581  0.0553
16113TIP3    H169754   4.460   5.875  16.032 -0.9679 -1.1695  0.9231
16113TIP3    H269755   4.402   6.011  16.066  0.3032 -0.2203 -0.5131
16114TIP3   OH269756   4.167   3.396   2.671 -0.6774  0.0143 -0.0764
16114TIP3    H169757   4.093   3.445   2.636 -0.2632  0.2080 -0.7039
16114TIP3    H269758   4.135   3.358   2.753 -1.8117 -0.8011 -0.8695
16115TIP3   OH269759   6.370   3.297  11.929  0.3444 -0.1154 -0.5452
16115TIP3    H169760   6.295   3.256  11.974 -1.0049  0.2172 -2.3464
16115TIP3    H269761   6.330   3.341  11.854  2.2847  0.8863 -1.0292
16116TIP3   OH269762   6.125   5.746  14.053  0.2978  0.6518 -0.2859
16116TIP3    H169763   6.191   5.802  14.012 -1.4818  2.3113 -1.0196
16116TIP3    H269764   6.067   5.720  13.981 -0.8224  0.6417  0.5896
16117TIP3   OH269765   4.517   5.492  16.917 -0.1359 -1.0363 -1.0989
16117TIP3    H169766   4.596   5.501  16.970 -1.0926 -1.0342  0.3872
16117TIP3    H269767   4.493   5.400  16.924 -1.5406 -0.5902  0.4165
16118TIP3   OH269768   5.777   5.591  13.742  0.2799  0.0896  0.7800
16118TIP3    H169769   5.738   5.673  13.710 -0.7104 -0.7171 -0.1183
16118TIP3    H269770   5.790   5.538  13.664  2.0327 -0.1822  1.2198
16119TIP3   OH269771   5.229   3.275  16.795 -0.8890 -0.7287 -0.1840
16119TIP3    H169772   5.180   3.307  16.871 -0.7055  0.0312 -0.3769
16119TIP3    H269773   5.217   3.180  16.797 -0.0202 -0.8475  1.3980
16120TIP3   OH269774   6.512   3.406  14.186 -0.0445 -0.4006  0.4416
16120TIP3    H169775   6.485   3.395  14.277 -1.1891 -1.4640 -0.0041
16120TIP3    H269776   6.447   3.465  14.148  1.3072  1.3255  0.6622
16121TIP3   OH269777   2.334   5.314   1.591  0.2855  0.0641  0.6677
16121TIP3    H169778   2.415   5.321   1.540  0.3938  0.5229  0.8965
16121TIP3    H269779   2.323   5.401   1.629 -0.3611  0.0243  0.5707
16122TIP3   OH269780   4.796   3.368  10.682 -0.8156 -1.0273  0.2998
16122TIP3    H169781   4.811   3.358  10.588  0.0194 -0.4607  0.3601
16122TIP3    H269782   4.810   3.461  10.698 -2.8695 -0.7428  0.6641
16123TIP3   OH269783   2.883   1.909   0.432  0.4956 -0.2586 -0.2696
16123TIP3    H169784   2.939   1.971   0.385  1.2650 -0.1669  0.7363
16123TIP3    H269785   2.937   1.878   0.504 -0.4274 -0.9214  0.1550
16124TIP3   OH269786   0.871   4.972   3.831  0.3091 -0.2053 -0.1529
16124TIP3    H169787   0.936   4.979   3.901 -0.4711  0.7265  0.5082
16124TIP3    H269788   0.799   4.922   3.870 -0.8003  1.6473  0.2544
16125TIP3   OH269789   4.147   0.653   0.689 -0.3606  0.0495 -0.2593
16125TIP3    H169790   4.080   0.694   0.744  0.5972  0.3337  0.7240
16125TIP3    H269791   4.198   0.726   0.655 -0.8197 -0.1376 -1.3943
16126TIP3   OH269792   0.206   4.254   1.681 -0.7348 -0.5387  0.2235
16126TIP3    H169793   0.243   4.323   1.736 -1.7094 -0.8664  1.3350
16126TIP3    H269794   0.208   4.176   1.737 -0.7963 -1.1310 -0.5836
16127TIP3   OH269795   3.425   3.878  12.270 -0.3278  0.5887  0.5049
16127TIP3    H169796   3.432   3.938  12.195 -2.7781 -0.7108 -0.8812
16127TIP3    H269797   3.397   3.934  12.342 -1.7799  1.3209 -0.5638
16128TIP3   OH269798   2.517   5.166   1.336 -0.3153  0.2709 -0.7977
16128TIP3    H169799   2.529   5.092   1.395  1.3113 -0.0738 -1.4968
16128TIP3    H269800   2.436   5.147   1.289 -0.9228 -0.0979  0.3731
16129TIP3   OH269801   3.371   6.802  16.120  0.7060 -0.0554  0.4286
16129TIP3    H169802   3.332   6.890  16.129 -0.9957 -0.6148 -0.9196
16129TIP3    H269803   3.461   6.818  16.092  0.2976  1.2614 -0.1972
16130TIP3   OH269804   5.457   5.844   3.170  0.6737  0.4194  0.4358
16130TIP3    H169805   5.460   5.765   3.116  0.6309  1.0378 -0.4919
16130TIP3    H269806   5.458   5.916   3.107 -0.9360  1.1524  1.1928
16131TIP3   OH269807   2.533   5.085   0.449 -0.0164 -0.5681  0.2125
16131TIP3    H169808   2.512   5.154   0.386 -0.2336 -0.2996  0.5731
16131TIP3    H269809   2.589   5.128   0.513 -0.0104 -0.7727  0.3433
16132TIP3   OH269810   0.811   1.876   4.928  0.3784 -0.7066 -0.2188
16132TIP3    H169811   0.721   1.889   4.957 -0.5284 -2.5496 -1.9294
16132TIP3    H269812   0.852   1.962   4.937 -1.3444  0.0267  1.2186
16133TIP3   OH269813   6.209   1.487   3.699  0.5775 -0.5257  0.3673
16133TIP3    H169814   6.218   1.557   3.634  0.0777 -1.8670 -1.2207
16133TIP3    H269815   6.225   1.406   3.649 -0.4188 -1.6461  1.7908
16134TIP3   OH269816   2.105   6.078  11.904  0.2438 -0.4426  0.1055
16134TIP3    H169817   2.121   6.084  11.810  0.1895  0.9689  0.1735
16134TIP3    H269818   2.184   6.038  11.939  1.0756  0.7855 -0.3177
16135TIP3   OH269819   6.563   1.088  15.416  0.1503  0.2948  0.1411
16135TIP3    H169820   6.576   0.993  15.417  0.4339  0.2942 -1.3662
16135TIP3    H269821   6.548   1.109  15.323 -1.8673  1.4642  0.6605
16136TIP3   OH269822   4.802   0.466  13.184  0.4087  0.2063 -0.2630
16136TIP3    H169823   4.783   0.457  13.090  0.1885  0.0462 -0.2061
16136TIP3    H269824   4.885   0.513  13.188 -0.4994  1.9227 -0.5178
16137TIP3   OH269825   1.537   3.314   2.183  0.2663 -0.1177  0.2121
16137TIP3    H169826   1.598   3.377   2.223  0.7888 -0.7399  0.4124
16137TIP3    H269827   1.493   3.364   2.114 -0.6379  0.9835  1.5233
16138TIP3   OH269828   5.875   3.560   2.758  0.0241 -0.2342  0.0800
16138TIP3    H169829   5.827   3.609   2.826 -0.9450  0.3437 -0.9804
16138TIP3    H269830   5.816   3.488   2.735  0.7359 -0.9520  0.4615
16139TIP3   OH269831   3.773   6.672  16.964 -0.7195 -0.2093 -0.1830
16139TIP3    H169832   3.809   6.618  17.034 -1.1869  1.5513  1.5186
16139TIP3    H269833   3.685   6.695  16.994 -0.9056  0.6717 -1.3161
16140TIP3   OH269834   1.024   4.333  16.336  0.0797 -0.4297 -0.2415
16140TIP3    H169835   1.080   4.395  16.382 -0.7936  0.2134 -0.0122
16140TIP3    H269836   1.014   4.371  16.248  1.4520 -1.4693 -0.8812
16141TIP3   OH269837   1.665   0.727  11.971  0.6043  0.2983 -0.0587
16141TIP3    H169838   1.723   0.782  12.025  1.2017 -1.9807  1.7687
16141TIP3    H269839   1.631   0.661  12.031 -0.2816 -1.2010 -2.0897
16142TIP3   OH269840   0.852   6.139  16.608 -0.2995  0.4272 -0.4114
16142TIP3    H169841   0.881   6.223  16.573 -0.8689  0.3118 -1.1773
16142TIP3    H269842   0.933   6.090  16.623 -0.0437  0.4707 -1.6030
16143TIP3   OH269843   2.416   6.598   4.041  0.7260  0.1663 -0.0816
16143TIP3    H169844   2.454   6.668   4.094  1.0076  0.4213 -0.6109
16143TIP3    H269845   2.485   6.532   4.034  1.3391  0.9130 -1.5758
16144TIP3   OH269846   5.726   1.872   6.360 -0.1716  0.2042 -0.2341
16144TIP3    H169847   5.795   1.890   6.423 -0.3662  0.8321 -0.1933
16144TIP3    H269848   5.724   1.776   6.353  1.4405  0.1933 -1.0686
16145TIP3   OH269849   5.710   4.079   3.381 -0.1245 -0.1496  0.5294
16145TIP3    H169850   5.712   4.078   3.477  0.2231  3.3826  0.7099
16145TIP3    H269851   5.800   4.096   3.356  0.0645 -2.5086 -0.5784
16146TIP3   OH269852   1.863   3.507  10.864 -0.4114 -0.9688 -0.0353
16146TIP3    H169853   1.842   3.584  10.811  0.6014 -0.4852  0.2433
16146TIP3    H269854   1.958   3.510  10.873 -0.5745 -0.9334  2.0005
16147TIP3   OH269855   0.466   4.014  14.748 -0.2138  0.5787  0.4531
16147TIP3    H169856   0.441   3.930  14.708 -2.3089  1.8575 -1.1113
16147TIP3    H269857   0.559   4.003  14.769 -0.4968 -2.2576  0.6906
16148TIP3   OH269858   0.494   3.903   5.169 -0.0149 -0.3793 -0.3298
16148TIP3    H169859   0.567   3.964   5.178 -1.5784  1.3636  1.6626
16148TIP3    H269860   0.488   3.859   5.253 -1.3379 -0.3704 -0.3909
16149TIP3   OH269861   3.209   3.104   6.437 -0.3447 -0.4855 -0.2893
16149TIP3    H169862   3.300   3.134   6.437 -0.7739  1.0332  1.5773
16149TIP3    H269863   3.161   3.173   6.483 -2.5126 -1.1127 -1.4427
16150TIP3   OH269864   6.809   0.168   5.366  0.1163 -0.0598  0.1833
16150TIP3    H169865   6.885   0.204   5.413  0.1344 -0.3480  0.3747
16150TIP3    H269866   6.829   0.075   5.355  0.0665 -0.0125 -0.3117
16151TIP3   OH269867   6.630   4.863   1.168  0.0420 -0.7530  0.4736
16151TIP3    H169868   6.601   4.838   1.255 -1.5708  0.5587  0.3707
16151TIP3    H269869   6.722   4.887   1.179 -0.2202 -0.2992  1.8853
16152TIP3   OH269870   2.895   5.893   2.278 -0.3091 -0.4833 -0.9796
16152TIP3    H169871   2.926   5.816   2.326  0.2268  1.1326  1.3933
16152TIP3    H269872   2.974   5.945   2.263 -0.9635  0.6666 -0.5270
16153TIP3   OH269873   4.106   3.889  15.386 -0.2513 -0.8900  0.0412
16153TIP3    H169874   4.128   3.944  15.462 -0.6316 -1.1019  0.3074
16153TIP3    H269875   4.098   3.801  15.422  1.3997 -1.3159 -0.5653
16154TIP3   OH269876   3.551   2.487   3.430  0.2718  0.0137 -0.2999
16154TIP3    H169877   3.527   2.578   3.413 -1.3146 -0.4598 -0.7010
16154TIP3    H269878   3.594   2.489   3.516 -0.1344  1.0722 -0.1133
16155TIP3   OH269879   4.799   4.954   1.668 -0.2477 -0.1437 -0.0501
16155TIP3    H169880   4.855   4.953   1.590 -1.6535  0.1415 -1.0959
16155TIP3    H269881   4.720   4.908   1.641 -0.9378  0.3493  1.0864
16156TIP3   OH269882   6.060   0.772  15.231 -0.0022 -0.5132  0.6353
16156TIP3    H169883   6.082   0.716  15.156  0.1530 -1.3179  1.2569
16156TIP3    H269884   5.965   0.768  15.236  0.0190 -0.8983  0.7969
16157TIP3   OH269885   6.307   3.835   4.620 -0.0277  0.3102  0.1117
16157TIP3    H169886   6.289   3.928   4.632  1.6942  0.6956 -0.0230
16157TIP3    H269887   6.321   3.825   4.526  1.0968  0.1917  0.2799
16158TIP3   OH269888   3.284   4.950  11.003  0.2751 -0.0188 -0.1336
16158TIP3    H169889   3.327   4.925  10.921  1.3196  1.3644 -0.0459
16158TIP3    H269890   3.201   4.904  11.002 -0.3704  1.0466 -2.6662
16159TIP3   OH269891   0.389   1.759  16.485 -0.0684 -0.4000 -0.2661
16159TIP3    H169892   0.435   1.676  16.498 -1.2530 -1.3137 -1.5861
16159TIP3    H269893   0.451   1.814  16.437  1.6732  0.4826  2.6882
16160TIP3   OH269894   2.781   6.403   5.718 -0.3617 -0.1061  0.0783
16160TIP3    H169895   2.828   6.455   5.783 -0.7423  1.3705 -0.7910
16160TIP3    H269896   2.744   6.330   5.769  1.3259 -0.3250  1.0783
16161TIP3   OH269897   0.295   6.757  10.887  0.0463 -0.5385 -1.1527
16161TIP3    H169898   0.262   6.834  10.842 -1.1328 -0.9260 -1.0089
16161TIP3    H269899   0.344   6.709  10.821  0.3018  0.0559 -1.3935
16162TIP3   OH269900   3.362   2.648   2.336  0.1497 -0.0917 -0.6961
16162TIP3    H169901   3.291   2.695   2.379  0.9987  0.8888 -0.3216
16162TIP3    H269902   3.428   2.637   2.404  0.0397 -1.7245 -0.8173
16163TIP3   OH269903   4.777   2.661  11.944  0.2811  0.1203  0.5683
16163TIP3    H169904   4.808   2.745  11.910  0.9838  0.6325  2.3667
16163TIP3    H269905   4.835   2.596  11.905  0.6427  0.6142  0.2797
16164TIP3   OH269906   5.298   5.218  15.461 -0.0664 -0.2327 -0.0700
16164TIP3    H169907   5.216   5.267  15.463  0.2703  0.3320  0.9386
16164TIP3    H269908   5.348   5.257  15.389 -0.0903  0.4436  0.2703
16165TIP3   OH269909   4.620   5.501  14.936  0.1391  0.3519  0.5924
16165TIP3    H169910   4.609   5.524  15.028 -0.3265 -0.3261  0.7102
16165TIP3    H269911   4.544   5.538  14.893 -0.0432 -0.0037  0.6070
16166TIP3   OH269912   1.236   0.389  12.682 -0.1315  0.2254  0.2080
16166TIP3    H169913   1.165   0.327  12.704  0.1233 -0.1224  0.0596
16166TIP3    H269914   1.282   0.348  12.609 -0.2007  0.7857 -0.1568
16167TIP3   OH269915   2.945   0.257  16.450  0.3131  0.1344 -0.2995
16167TIP3    H169916   2.951   0.307  16.369 -1.3960  2.5407  0.8988
16167TIP3    H269917   2.868   0.202  16.439  1.3324 -1.1733 -1.0716
16168TIP3   OH269918   1.828   5.767   1.133 -0.1956  0.1090 -0.6271
16168TIP3    H169919   1.736   5.782   1.115 -0.0560  1.5631 -0.1953
16168TIP3    H269920   1.866   5.743   1.049 -0.7410  0.6994 -1.0436
16169TIP3   OH269921   2.723   0.177   5.310 -0.1207 -0.6758 -0.0197
16169TIP3    H169922   2.816   0.189   5.292 -0.1184 -1.6232 -0.7390
16169TIP3    H269923   2.712   0.083   5.322 -1.0847 -0.6475 -0.5373
16170TIP3   OH269924   3.796   4.026   3.859  0.3794 -0.0533 -0.2717
16170TIP3    H169925   3.789   4.064   3.947  0.3802 -2.2999  0.7728
16170TIP3    H269926   3.889   4.030   3.839  0.5240 -0.4826  0.2880
16171TIP3   OH269927   2.735   1.413   1.378  0.5575  0.2049 -0.4008
16171TIP3    H169928   2.814   1.378   1.420  0.8353  0.2665 -0.8675
16171TIP3    H269929   2.768   1.467   1.306  0.0586 -1.1296 -1.6693
16172TIP3   OH269930   4.017   1.524   4.472  0.3739  0.1229  0.0084
16172TIP3    H169931   4.041   1.466   4.544  0.7306 -0.4640 -0.5673
16172TIP3    H269932   4.097   1.531   4.419 -0.4939 -1.3598 -1.6120
16173TIP3   OH269933   4.486   6.431  11.636  0.4284 -0.6849  0.6329
16173TIP3    H169934   4.414   6.452  11.578  0.2247 -2.6066  0.1259
16173TIP3    H269935   4.493   6.507  11.694 -0.5220  0.4960 -0.7321
16174TIP3   OH269936   3.997   1.652  14.174 -0.2015 -0.6302  0.2294
16174TIP3    H169937   3.982   1.602  14.254 -0.6800 -0.0098  0.5402
16174TIP3    H269938   3.912   1.691  14.153  0.0347 -0.3747 -0.2952
16175TIP3   OH269939   5.722   2.550  12.012  0.7794 -0.3182 -0.0489
16175TIP3    H169940   5.689   2.582  12.096 -0.7278  1.9383 -1.3761
16175TIP3    H269941   5.760   2.465  12.032 -0.8096 -0.5238  2.6680
16176TIP3   OH269942   5.198   2.369  13.379 -0.8295 -0.0567 -0.1842
16176TIP3    H169943   5.212   2.412  13.463  1.2868 -1.1352  0.0698
16176TIP3    H269944   5.136   2.427  13.333  0.7770  2.5137  0.6804
16177TIP3   OH269945   4.690   3.701   2.869  0.1286  0.2534 -0.5710
16177TIP3    H169946   4.687   3.611   2.837  0.0094 -0.0492  0.2617
16177TIP3    H269947   4.768   3.705   2.924 -0.6749  0.2220  0.6143
16178TIP3   OH269948   4.931   6.624  14.515  0.1937 -0.4528  0.4538
16178TIP3    H169949   4.943   6.552  14.578 -0.7084 -0.9317  0.1049
16178TIP3    H269950   4.976   6.595  14.436 -0.3176 -0.7201  0.2567
16179TIP3   OH269951   5.779   0.487  12.972 -0.1600 -0.0334 -0.2987
16179TIP3    H169952   5.835   0.411  12.957  1.3794  0.4967  2.1568
16179TIP3    H269953   5.711   0.456  13.031  1.5325  0.7597  2.2577
16180TIP3   OH269954   6.541   2.852  12.174  0.0136 -0.2863 -0.2083
16180TIP3    H169955   6.574   2.841  12.085 -0.3297  0.7914 -0.4851
16180TIP3    H269956   6.525   2.763  12.204 -1.8025 -0.6474 -1.9759
16181TIP3   OH269957   2.305   2.781   5.501 -0.1635 -0.6010  0.0442
16181TIP3    H169958   2.396   2.754   5.513  0.3551  1.5987  1.9642
16181TIP3    H269959   2.300   2.811   5.411  1.7550  1.4030  0.4941
16182TIP3   OH269960   2.641   0.648  11.262 -0.2388 -0.0530  0.5888
16182TIP3    H169961   2.736   0.647  11.254 -0.2905  1.5350 -0.8036
16182TIP3    H269962   2.622   0.711  11.331 -0.2965  0.1311  0.4055
16183TIP3   OH269963   6.420   1.033   0.547 -0.2614  0.0531 -0.1110
16183TIP3    H169964   6.470   1.104   0.505 -0.3017  1.3978  1.9644
16183TIP3    H269965   6.487   0.973   0.579 -0.1236  0.1722 -0.1700
16184TIP3   OH269966   0.056   1.951  11.178 -0.5917  0.5316 -0.5092
16184TIP3    H169967   0.050   1.887  11.249 -0.1675 -0.0031 -0.9466
16184TIP3    H269968  -0.017   1.930  11.120  0.1451 -0.2314 -1.1866
16185TIP3   OH269969   0.061   3.017  12.316  0.1102 -0.2086 -0.1940
16185TIP3    H169970   0.085   3.076  12.388 -0.3724  1.3958 -1.3100
16185TIP3    H269971  -0.034   3.015  12.317  0.0775  0.3568 -1.1831
16186TIP3   OH269972   5.420   4.482   2.222 -0.0238 -0.1454 -0.4835
16186TIP3    H169973   5.422   4.546   2.294 -0.5878 -0.1993 -0.4157
16186TIP3    H269974   5.386   4.402   2.262  0.2388 -0.3525 -0.6753
16187TIP3   OH269975   1.882   3.755   5.507  0.1542 -0.4083  0.0105
16187TIP3    H169976   1.826   3.782   5.580 -0.0063 -0.8375  0.0454
16187TIP3    H269977   1.916   3.670   5.533  3.1552  1.0190  1.3176
16188TIP3   OH269978   0.126   3.242  16.971  0.4252  0.2903 -0.2952
16188TIP3    H169979   0.056   3.264  17.032  2.3389 -0.8427  2.4960
16188TIP3    H269980   0.105   3.153  16.941  0.7527 -0.1637  0.7683
16189TIP3   OH269981   0.757   6.533   0.627 -0.1264  0.0375  0.6830
16189TIP3    H169982   0.771   6.469   0.697 -1.8192 -0.8396  0.2801
16189TIP3    H269983   0.697   6.598   0.664 -0.6441 -0.1672  0.2305
16190TIP3   OH269984   4.954   2.022   4.340  0.4738 -0.4055 -0.1696
16190TIP3    H169985   4.905   2.048   4.262 -0.5913 -0.6320  0.4047
16190TIP3    H269986   4.898   1.956   4.382  0.8082  0.0554  1.0266
16191TIP3   OH269987   0.591   1.072   2.331 -0.4905  0.2491  0.5937
16191TIP3    H169988   0.614   1.031   2.414  0.5086  0.0236  0.2314
16191TIP3    H269989   0.580   1.164   2.351 -0.5070  0.1551  1.0205
16192TIP3   OH269990   5.497   3.347  15.238  0.3669  0.1498  0.0582
16192TIP3    H169991   5.543   3.431  15.238  0.6426  0.0422  2.2668
16192TIP3    H269992   5.413   3.366  15.197  1.3944  0.8779 -1.8723
16193TIP3   OH269993   0.068   3.859   3.385 -0.5006 -0.2204  0.0420
16193TIP3    H169994   0.073   3.940   3.435 -0.7007  0.9119 -1.6820
16193TIP3    H269995   0.144   3.808   3.413 -0.2725  0.6377  1.0268
16194TIP3   OH269996   0.942   2.101  12.440 -0.1398 -0.4475 -0.4942
16194TIP3    H169997   0.877   2.169  12.456 -1.9856 -1.8236 -1.6715
16194TIP3    H269998   0.985   2.088  12.524 -2.3184 -0.3609  0.6973
16195TIP3   OH269999   2.805   0.108  11.188 -0.2051  0.1428 -0.2309
16195TIP3    H170000   2.760   0.175  11.137  1.4211  2.1018  0.7282
16195TIP3    H270001   2.860   0.062  11.125 -1.2237 -0.1981 -0.8842
16196TIP3   OH270002   5.128   6.645  14.293  0.2442  0.8501  0.6702
16196TIP3    H170003   5.179   6.696  14.230  2.4748 -1.1868  0.6675
16196TIP3    H270004   5.194   6.609  14.353 -1.5736  0.8628  2.8185
16197TIP3   OH270005   3.213   0.805   5.737  0.3103 -0.2525  0.3367
16197TIP3    H170006   3.143   0.770   5.793  0.4021 -0.0617  0.5711
16197TIP3    H270007   3.286   0.745   5.750  0.0631 -0.6959 -0.2297
16198TIP3   OH270008   1.999   2.418   2.036  0.3095 -0.3940 -0.3563
16198TIP3    H170009   2.071   2.422   2.099  0.5867  1.2115 -0.7542
16198TIP3    H270010   1.965   2.507   2.033 -2.5213 -1.3293  0.7373
16199TIP3   OH270011   2.527   2.411   5.610 -0.5413  0.0886 -0.3376
16199TIP3    H170012   2.503   2.493   5.653 -1.9604 -0.8915  0.8631
16199TIP3    H270013   2.465   2.404   5.537 -0.8728 -0.2199 -0.0325
16200TIP3   OH270014   3.253   3.038   0.897  0.1025 -0.3829 -0.6584
16200TIP3    H170015   3.292   2.972   0.955 -0.0993 -0.3991 -0.5410
16200TIP3    H270016   3.327   3.091   0.869  0.5365 -1.6614 -2.0822
16201TIP3   OH270017   5.508   4.196  14.712 -0.3961 -0.4127  0.5398
16201TIP3    H170018   5.580   4.180  14.651  0.9631  0.4834  1.8463
16201TIP3    H270019   5.453   4.118  14.705  2.2126 -2.5032  1.5846
16202TIP3   OH270020   4.317   0.728  16.876  0.0595  0.0360 -0.0402
16202TIP3    H170021   4.320   0.819  16.904 -2.4842  0.6811 -1.5755
16202TIP3    H270022   4.260   0.728  16.799  2.4341 -2.4029 -2.0135
16203TIP3   OH270023   4.245   6.294   5.547  0.1750  0.2230  0.3930
16203TIP3    H170024   4.241   6.215   5.600  0.5550  0.1792  0.3619
16203TIP3    H270025   4.154   6.313   5.524  0.1083 -0.3853  0.1308
16204TIP3   OH270026   1.337   6.186  14.230  0.4799  0.1378  0.2185
16204TIP3    H170027   1.401   6.212  14.164  0.8281 -2.5208 -0.5915
16204TIP3    H270028   1.258   6.165  14.180  0.2877 -0.5077  0.7743
16205TIP3   OH270029   0.630   0.315   3.456  0.6055 -0.5808 -0.2447
16205TIP3    H170030   0.715   0.357   3.472  1.6938 -2.4133 -0.9140
16205TIP3    H270031   0.580   0.330   3.536  0.2814  3.3115 -1.0021
16206TIP3   OH270032   3.292   0.906   0.343  0.3472 -0.1677  0.2508
16206TIP3    H170033   3.351   0.977   0.314 -1.0554  0.7022 -0.5715
16206TIP3    H270034   3.331   0.827   0.307  1.7870  0.1961  0.9294
16207TIP3   OH270035   1.151   0.535  11.274  0.8584  0.3541 -0.0128
16207TIP3    H170036   1.191   0.590  11.207  2.2278 -1.3387 -0.6761
16207TIP3    H270037   1.147   0.590  11.352  2.2668  1.3632 -0.6118
16208TIP3   OH270038   1.008   0.059   0.685  1.0329  0.0089  0.2573
16208TIP3    H170039   1.078  -0.006   0.672  0.3325 -1.3809  2.8368
16208TIP3    H270040   1.055   0.140   0.703  2.0123 -0.6818  0.9666
16209TIP3   OH270041   5.575   0.351  13.077  0.7015  0.2249 -0.7828
16209TIP3    H170042   5.569   0.296  12.999  0.4741  0.8401 -1.2122
16209TIP3    H270043   5.509   0.315  13.137  0.7007 -0.1000 -0.9763
16210TIP3   OH270044   3.876   2.118   1.366 -0.4653  0.0138  0.1524
16210TIP3    H170045   3.796   2.163   1.339 -1.3755 -1.6629 -0.0762
16210TIP3    H270046   3.927   2.185   1.413 -0.7943  1.8154 -1.9304
16211TIP3   OH270047   5.703   2.849  13.164  0.4839  0.3355 -0.2260
16211TIP3    H170048   5.656   2.774  13.200  1.9071 -0.6306 -0.2989
16211TIP3    H270049   5.783   2.856  13.216  0.0352  2.3279  0.2984
16212TIP3   OH270050   2.427   2.745   3.635  0.2278  0.0499  0.0582
16212TIP3    H170051   2.396   2.780   3.719 -0.6698  0.4627 -0.4282
16212TIP3    H270052   2.349   2.706   3.596  1.4303 -3.8677  1.1774
16213TIP3   OH270053   2.966   3.171   5.060  0.1493  0.3886  0.5257
16213TIP3    H170054   2.918   3.254   5.060 -1.3543 -0.4294  1.4303
16213TIP3    H270055   2.906   3.108   5.019  1.8190  0.0025 -1.4552
16214TIP3   OH270056   6.243   2.379   2.819  0.6380 -0.1451 -0.0268
16214TIP3    H170057   6.251   2.432   2.898  0.0949 -2.0882  1.4357
16214TIP3    H270058   6.321   2.399   2.768  0.1474  2.4723  0.1165
16215TIP3   OH270059   4.342   1.013  14.237 -0.0002  0.3598  0.1650
16215TIP3    H170060   4.414   1.072  14.218  0.3567 -0.1995 -0.2394
16215TIP3    H270061   4.376   0.926  14.216 -0.4211 -0.0247  1.0104
16216TIP3   OH270062   5.539   1.816   4.868  0.1565  0.0653 -0.4277
16216TIP3    H170063   5.515   1.724   4.870 -1.2033  0.3751  1.7888
16216TIP3    H270064   5.485   1.854   4.798  0.7387 -0.8007 -1.3613
16217TIP3   OH270065   4.132   2.046   2.719 -0.1619  0.1239  0.5188
16217TIP3    H170066   4.147   2.106   2.792 -1.2797 -0.3778  1.1876
16217TIP3    H270067   4.173   1.964   2.747  0.8260  0.3682 -0.1346
16218TIP3   OH270068   5.968   3.024  11.398  0.1108  0.3951 -0.5813
16218TIP3    H170069   5.970   3.077  11.319  1.6292  0.1961 -0.7133
16218TIP3    H270070   6.060   3.010  11.420 -0.2071 -2.2162 -0.5965
16219TIP3   OH270071   5.463   5.221  17.012 -0.0252 -0.8647 -0.1795
16219TIP3    H170072   5.517   5.147  16.985 -0.6616 -0.9998 -1.1447
16219TIP3    H270073   5.383   5.213  16.960  0.5961  1.4775 -1.6546
16220TIP3   OH270074   0.196   6.047  12.562  0.2160  0.0706 -0.5425
16220TIP3    H170075   0.202   6.130  12.610 -1.2659 -1.1067  1.8414
16220TIP3    H270076   0.270   5.996  12.595  0.8586  0.2403 -1.6767
16221TIP3   OH270077   4.349   4.655  12.428  0.1762 -0.3222  0.3972
16221TIP3    H170078   4.319   4.648  12.338  0.0494 -1.5177  0.5197
16221TIP3    H270079   4.380   4.745  12.436 -1.6679  0.4158 -0.2564
16222TIP3   OH270080   1.029   1.338   2.091  0.5866  0.1059 -0.6995
16222TIP3    H170081   1.089   1.309   2.160  0.6584  1.5435 -0.1338
16222TIP3    H270082   1.024   1.263   2.031  0.9733 -0.9582  0.5554
16223TIP3   OH270083   1.613   5.206   0.799  0.4249  0.1511 -0.2683
16223TIP3    H170084   1.669   5.150   0.745  1.6475  2.4360 -1.5429
16223TIP3    H270085   1.641   5.187   0.889  1.6309 -0.4279 -0.7330
16224TIP3   OH270086   1.001   6.098  16.150 -0.5300 -0.4420 -0.0142
16224TIP3    H170087   1.057   6.094  16.228 -2.6054 -2.7614  1.4988
16224TIP3    H270088   0.945   6.174  16.164  2.4769  2.3922 -1.9119
16225TIP3   OH270089   3.786   5.189   4.765 -0.9053  0.9077  0.3534
16225TIP3    H170090   3.826   5.230   4.688 -1.2054  1.6598  0.5823
16225TIP3    H270091   3.857   5.178   4.827 -0.3918 -0.9233 -0.5040
16226TIP3   OH270092   5.487   3.510  13.382  0.0281 -0.4075  0.1284
16226TIP3    H170093   5.581   3.509  13.401 -0.4618 -1.8318  3.0444
16226TIP3    H270094   5.456   3.424  13.409 -2.3766  0.5816  0.8147
16227TIP3   OH270095   6.681   2.064   4.703  0.2041 -0.8988  0.1776
16227TIP3    H170096   6.705   1.994   4.764 -0.6901 -0.7331  0.7281
16227TIP3    H270097   6.715   2.144   4.743  0.4533 -0.8993 -0.0238
16228TIP3   OH270098   4.926   6.609  15.836 -0.4910 -0.0522 -0.1501
16228TIP3    H170099   4.836   6.643  15.832 -0.9595 -1.2945 -0.8989
16228TIP3    H270100   4.916   6.520  15.870  0.3971 -0.4078 -0.7954
16229TIP3   OH270101   2.295   4.486  15.407  0.4841 -0.4115  0.1296
16229TIP3    H170102   2.369   4.437  15.443  0.7975 -0.0988 -0.0848
16229TIP3    H270103   2.318   4.578  15.420  0.9013 -0.2713 -1.4254
16230TIP3   OH270104   6.468   5.569  16.853 -0.1311 -0.4736  0.2010
16230TIP3    H170105   6.381   5.595  16.884 -0.1655  0.7925 -0.8799
16230TIP3    H270106   6.455   5.544  16.762  0.7853  0.8001 -0.3188
16231TIP3   OH270107   3.823   3.699   2.721 -0.1409  0.0375 -0.1029
16231TIP3    H170108   3.828   3.764   2.651  0.7424 -3.0752 -3.2025
16231TIP3    H270109   3.744   3.649   2.702 -0.2561 -0.4861  1.5855
16232TIP3   OH270110   5.709   6.714   1.958  0.2098 -0.3702  0.1389
16232TIP3    H170111   5.719   6.637   2.014 -1.5967 -1.1907 -0.5911
16232TIP3    H270112   5.633   6.759   1.993  0.5204  0.4274 -0.1951
16233TIP3   OH270113   3.595   1.367  12.787 -0.3945 -0.1130  0.3028
16233TIP3    H170114   3.584   1.462  12.797 -0.3631  0.3301 -2.8060
16233TIP3    H270115   3.683   1.357  12.750 -0.4261 -1.3449  0.5366
16234TIP3   OH270116   3.268   5.254   3.978  0.7767 -0.4307 -0.1446
16234TIP3    H170117   3.185   5.302   3.983  0.5121 -0.8987 -0.0132
16234TIP3    H270118   3.324   5.308   3.922  0.2821 -0.2644 -0.4817
16235TIP3   OH270119   3.688   4.912   4.351  0.1201 -0.3890 -0.2903
16235TIP3    H170120   3.651   4.992   4.388  0.4477  0.1853 -1.1609
16235TIP3    H270121   3.671   4.920   4.257 -0.5671 -1.7354 -0.3042
16236TIP3   OH270122   6.512   2.626   3.301  0.2027  0.0111 -0.3328
16236TIP3    H170123   6.559   2.709   3.312 -2.0626  1.3311  0.1940
16236TIP3    H270124   6.551   2.586   3.223  0.1851  2.4810 -1.7168
16237TIP3   OH270125   0.831   5.811   4.476 -0.2978  0.2532 -0.5817
16237TIP3    H170126   0.754   5.755   4.485  0.1733 -0.9169 -2.8726
16237TIP3    H270127   0.899   5.752   4.444  1.6847  1.1986  1.6333
16238TIP3   OH270128   6.258   4.603   0.931 -0.6432 -0.2078  0.2449
16238TIP3    H170129   6.306   4.557   0.862  0.2981  0.2080  0.6135
16238TIP3    H270130   6.170   4.614   0.895 -0.4496 -0.8998 -0.4754
16239TIP3   OH270131   0.924   0.862   1.027  0.6250  0.0480 -0.6786
16239TIP3    H170132   0.844   0.838   1.074  1.8256  0.0678  1.4958
16239TIP3    H270133   0.896   0.927   0.963 -0.7798  1.8569  1.6212
16240TIP3   OH270134   1.119   4.759   4.326  0.4314 -0.2987  0.4692
16240TIP3    H170135   1.061   4.688   4.300  0.9342  0.5107 -3.4580
16240TIP3    H270136   1.201   4.742   4.279  1.7914  1.1185  2.1389
16241TIP3   OH270137   4.323   1.071   0.626 -0.4227  0.1607 -0.2684
16241TIP3    H170138   4.240   1.051   0.583  0.2188  0.8774 -1.9214
16241TIP3    H270139   4.389   1.061   0.557  0.6083  1.7055  0.4256
16242TIP3   OH270140   0.800   3.446  13.611  0.3472 -0.2849 -0.4409
16242TIP3    H170141   0.747   3.525  13.606 -0.9921 -1.1332 -0.1359
16242TIP3    H270142   0.742   3.380  13.651  0.6765 -2.0043 -2.5687
16243TIP3   OH270143   0.658   3.592  16.521  0.3608 -0.2610  0.1575
16243TIP3    H170144   0.569   3.609  16.490  0.7138  1.2681 -0.1114
16243TIP3    H270145   0.711   3.588  16.441  0.5661 -1.0142  0.3247
16244TIP3   OH270146   6.359   6.313  14.924 -0.2269  0.3845 -0.1182
16244TIP3    H170147   6.326   6.290  15.011 -2.0427 -2.8968 -1.4526
16244TIP3    H270148   6.454   6.301  14.930 -0.4628 -1.3366  1.0919
16245TIP3   OH270149   0.018   5.373  16.838 -0.0926 -0.3783  0.3695
16245TIP3    H170150   0.032   5.467  16.850  0.6587 -0.1655 -1.7033
16245TIP3    H270151   0.103   5.334  16.859 -0.2735 -0.5511  0.7836
16246TIP3   OH270152   4.897   1.402   4.467  1.1954 -0.0671  0.9579
16246TIP3    H170153   4.969   1.465   4.457  2.6385 -1.7647  0.0251
16246TIP3    H270154   4.938   1.317   4.452 -1.2627 -1.0206 -0.9554
16247TIP3   OH270155   0.803   1.388  10.780  0.1005  0.1834  0.3753
16247TIP3    H170156   0.820   1.301  10.817  2.4031  1.0079  1.4322
16247TIP3    H270157   0.889   1.430  10.777 -0.8641  2.2281 -0.6941
16248TIP3   OH270158   6.428   3.136  17.048  0.4154 -0.5246  0.0226
16248TIP3    H170159   6.382   3.110  17.128  1.3640 -1.1806  0.3686
16248TIP3    H270160   6.520   3.115  17.064  0.6347 -0.6240 -1.2162
16249TIP3   OH270161   5.323   2.321  16.098  0.2313 -0.1746 -0.6639
16249TIP3    H170162   5.249   2.272  16.063  0.1037  0.8749 -1.9274
16249TIP3    H270163   5.324   2.298  16.191 -2.3665  0.6068 -0.3516
16250TIP3   OH270164   3.882   1.760   4.496  0.0988 -0.0076 -0.5248
16250TIP3    H170165   3.933   1.680   4.489  1.3395  0.3413  2.8156
16250TIP3    H270166   3.903   1.809   4.416 -0.2021 -2.6516 -2.3382
16251TIP3   OH270167   0.357   1.371   3.241  0.2998 -0.1071  0.1089
16251TIP3    H170168   0.416   1.428   3.290 -2.1948  2.4254  0.4088
16251TIP3    H270169   0.294   1.430   3.200  0.8015 -2.2763 -4.3150
16252TIP3   OH270170   5.179   6.326  14.482  0.6170 -0.0808 -0.2562
16252TIP3    H170171   5.230   6.313  14.562 -0.6657 -1.5797  0.3633
16252TIP3    H270172   5.197   6.248  14.430 -1.9899 -1.3159  0.5500
16253TIP3   OH270173   0.081   5.636   5.916 -0.4972 -0.0991  0.2870
16253TIP3    H170174   0.054   5.561   5.968  0.2229  0.5613  1.6853
16253TIP3    H270175   0.004   5.693   5.915 -1.1479 -0.9512 -1.0401
16254TIP3   OH270176   5.818   4.512   2.932  0.6227  0.2956  0.4488
16254TIP3    H170177   5.772   4.596   2.928  0.5714  0.3296  1.3711
16254TIP3    H270178   5.911   4.536   2.928  0.5933  0.3271 -0.1170
16255TIP3   OH270179   1.079   0.875  15.123  0.1397  0.0115 -0.5844
16255TIP3    H170180   1.120   0.796  15.089  0.2304 -0.2467  0.1005
16255TIP3    H270181   1.144   0.912  15.182 -0.9109 -0.9076  1.2586
16256TIP3   OH270182   0.274   1.822   2.731 -0.8481  0.2746  1.0194
16256TIP3    H170183   0.221   1.771   2.793 -1.0124  0.2995  0.8978
16256TIP3    H270184   0.328   1.757   2.686 -1.6151  0.1194  0.3095
16257TIP3   OH270185   1.158   3.158  14.205 -0.1151  0.1041  0.1011
16257TIP3    H170186   1.112   3.084  14.165 -0.4113  0.6250 -0.5347
16257TIP3    H270187   1.205   3.199  14.133  0.4852  0.2218  0.5518
16258TIP3   OH270188   3.979   6.698  15.191 -0.1313  0.1765 -0.0355
16258TIP3    H170189   3.902   6.746  15.161  0.4160  1.1247  0.0604
16258TIP3    H270190   4.020   6.664  15.111 -0.3750  0.0775 -0.1198
16259TIP3   OH270191   5.610   3.821   1.319 -0.7200  0.6247 -0.0219
16259TIP3    H170192   5.577   3.731   1.318 -0.8130  0.6520  0.5590
16259TIP3    H270193   5.631   3.838   1.411 -3.6625  2.2654  0.4730
16260TIP3   OH270194   0.497   1.709   4.116 -0.3535 -0.4411  0.2959
16260TIP3    H170195   0.540   1.667   4.190 -1.2879 -0.4105  0.8695
16260TIP3    H270196   0.407   1.725   4.145 -0.1422  1.6447 -0.0334
16261TIP3   OH270197   4.250   1.983   4.795 -0.5392 -0.2844 -1.0419
16261TIP3    H170198   4.199   2.011   4.871  0.1234 -0.6412 -0.4525
16261TIP3    H270199   4.189   1.989   4.721 -1.0002  0.6880 -0.5918
16262TIP3   OH270200   2.911   3.223  11.784 -0.4690 -0.4145 -0.4542
16262TIP3    H170201   2.993   3.180  11.760 -0.4907 -0.5224 -0.3315
16262TIP3    H270202   2.911   3.304  11.733  0.6201  0.5289  0.9962
16263TIP3   OH270203   5.183   6.780  16.972 -0.1160 -0.3698 -0.2378
16263TIP3    H170204   5.109   6.820  17.017  0.9167  1.5301 -0.1218
16263TIP3    H270205   5.148   6.753  16.887 -0.6449  2.0031 -0.8592
16264TIP3   OH270206   3.283   4.655  16.194 -0.5426 -0.1834 -0.2555
16264TIP3    H170207   3.373   4.677  16.218 -0.6789 -1.5285  1.7466
16264TIP3    H270208   3.269   4.698  16.109  1.7473  0.5845 -0.3033
16265TIP3   OH270209   0.775   0.320  16.664 -0.1185 -0.1093  0.2083
16265TIP3    H170210   0.840   0.361  16.721 -0.3635 -0.8312  1.0164
16265TIP3    H270211   0.736   0.250  16.717  0.7931 -1.8974 -1.3668
16266TIP3   OH270212   2.459   4.963  17.032 -0.0351  0.4217 -0.2023
16266TIP3    H170213   2.409   4.948  17.112  0.6806  3.4503  0.9687
16266TIP3    H270214   2.396   4.948  16.961 -0.3185 -3.7204  0.6985
16267TIP3   OH270215   2.007   0.909  16.688  0.4792 -0.2189  0.7905
16267TIP3    H170216   2.057   0.879  16.765 -0.4030 -0.6296  1.2211
16267TIP3    H270217   2.071   0.957  16.636  1.4518 -1.1351  1.0877
16268TIP3   OH270218   2.211   4.357   3.275 -0.0955  0.1169 -0.1370
16268TIP3    H170219   2.229   4.446   3.244  1.6012 -0.1012  0.1255
16268TIP3    H270220   2.183   4.310   3.197  1.9255  0.1508 -0.9521
16269TIP3   OH270221   0.197   4.166   4.687 -0.4646  0.1012  0.4799
16269TIP3    H170222   0.130   4.217   4.735 -1.1238 -0.5799  0.3043
16269TIP3    H270223   0.218   4.094   4.746  0.5015  0.5891  0.7459
16270TIP3   OH270224   5.021   0.616   5.997 -0.4793  0.1827  0.3739
16270TIP3    H170225   4.935   0.576   5.998 -0.5354  0.3045  0.8931
16270TIP3    H270226   5.041   0.634   6.089 -0.3569  1.1158  0.1849
16271TIP3   OH270227   3.915   3.650  12.870 -0.6511  0.1624 -0.1500
16271TIP3    H170228   3.956   3.624  12.952 -2.2960  1.2244  1.0719
16271TIP3    H270229   3.988   3.682  12.816  0.4422 -0.4052  0.9285
16272TIP3   OH270230   4.523   6.358   0.675  0.5469 -0.5245  0.0650
16272TIP3    H170231   4.532   6.421   0.746 -1.9711  1.6408 -1.3622
16272TIP3    H270232   4.507   6.274   0.720  1.4160  0.2785  1.9983
16273TIP3   OH270233   4.640   5.342   1.730 -0.3506  0.0341 -0.2650
16273TIP3    H170234   4.664   5.265   1.782 -1.7012 -1.3893 -1.6448
16273TIP3    H270235   4.637   5.310   1.640 -1.4796  1.5681 -0.8101
16274TIP3   OH270236   4.979   2.606   1.005 -0.0561 -0.4876 -0.4426
16274TIP3    H170237   5.034   2.558   0.943  0.7418  1.0335 -0.9929
16274TIP3    H270238   4.901   2.552   1.016  0.4657 -1.5221 -1.5830
16275TIP3   OH270239   4.612   5.182  15.357  0.0411  0.1147  0.3626
16275TIP3    H170240   4.552   5.138  15.416  0.2046  0.7129  0.9895
16275TIP3    H270241   4.699   5.153  15.384  0.0479 -0.8822 -0.6506
16276TIP3   OH270242   2.587   3.557   1.570  0.5955  0.5091  0.0394
16276TIP3    H170243   2.549   3.496   1.634 -1.3695  0.2869 -1.2639
16276TIP3    H270244   2.532   3.547   1.492  2.6493  1.0862 -1.5668
16277TIP3   OH270245   5.303   4.992   1.762 -0.8983 -0.5304  0.3834
16277TIP3    H170246   5.331   4.957   1.846  1.7119  0.6085  0.0873
16277TIP3    H270247   5.363   5.064   1.744  0.4300 -2.3408 -3.6273
16278TIP3   OH270248   5.459   0.846  15.061 -0.2507 -0.4757  0.2063
16278TIP3    H170249   5.410   0.766  15.083 -0.4901 -0.0950  1.1113
16278TIP3    H270250   5.507   0.823  14.981  0.8000 -2.0162  1.2106
16279TIP3   OH270251   0.587   4.943  14.239  0.3786  0.5500 -0.1679
16279TIP3    H170252   0.496   4.937  14.266  0.8366 -0.3215  1.2669
16279TIP3    H270253   0.631   4.872  14.286  1.9376  1.4163 -0.2631
16280TIP3   OH270254   5.898   0.546  11.523  0.5000  0.3807  0.4830
16280TIP3    H170255   5.859   0.500  11.449  2.8146 -0.6957 -0.1937
16280TIP3    H270256   5.880   0.489  11.598 -0.6675  0.7770  0.5178
16281TIP3   OH270257   0.006   4.187  11.706  0.5532 -0.2078  0.6846
16281TIP3    H170258   0.017   4.126  11.779  1.8697 -0.6499  0.1482
16281TIP3    H270259   0.011   4.131  11.628  2.2364  0.6076  0.1651
16282TIP3   OH270260   2.671   5.126   2.929  0.3726  0.3358 -0.1483
16282TIP3    H170261   2.584   5.122   2.968  0.2175 -0.4027 -0.5581
16282TIP3    H270262   2.729   5.147   3.003  0.1677 -1.6304  0.6324
16283TIP3   OH270263   1.893   6.629  10.244  0.1754  0.0402 -0.1345
16283TIP3    H170264   1.876   6.564  10.313 -1.1731 -3.1914 -3.2098
16283TIP3    H270265   1.807   6.669  10.228  0.4863  0.7830  0.0145
16284TIP3   OH270266   4.096   3.503  12.305  0.1850  0.0069  0.5360
16284TIP3    H170267   4.176   3.457  12.330 -0.3716 -0.6990  1.0626
16284TIP3    H270268   4.032   3.478  12.372  0.0590  2.1562  1.3012
16285TIP3   OH270269   5.397   5.050  14.619  0.0349  0.4185 -0.8468
16285TIP3    H170270   5.347   5.013  14.691  1.3949  0.2845  0.0688
16285TIP3    H270271   5.455   4.979  14.592  2.4530  1.6788  0.7212
16286TIP3   OH270272   4.996   4.925  12.569  0.5926 -0.7057  0.2172
16286TIP3    H170273   4.960   4.856  12.625 -1.3032  0.4515  0.4986
16286TIP3    H270274   5.042   4.983  12.629 -2.3618  1.1439  0.9306
16287TIP3   OH270275   5.515   6.368  16.962 -1.0083  0.1852 -0.0372
16287TIP3    H170276   5.517   6.344  17.054  1.8894 -0.4463 -0.1710
16287TIP3    H270277   5.475   6.455  16.960  1.5216  1.5621  2.2485
16288TIP3   OH270278   5.718   1.014   4.036 -0.3317  0.0451 -0.4023
16288TIP3    H170279   5.703   1.027   3.942  2.7751  0.1821 -0.9921
16288TIP3    H270280   5.656   1.072   4.079 -2.5192 -0.7588 -2.3080
16289TIP3   OH270281   6.225   4.889   3.146 -0.4849 -0.2641  0.3435
16289TIP3    H170282   6.222   4.914   3.238  0.2740 -3.2716  1.3056
16289TIP3    H270283   6.133   4.882   3.120 -0.7097  1.2200  0.6193
16290TIP3   OH270284   1.554   2.228  13.289  0.4034 -0.0680 -0.5451
16290TIP3    H170285   1.542   2.139  13.325 -0.6183  0.4302  0.4302
16290TIP3    H270286   1.580   2.214  13.198  1.6552 -1.3765 -0.0216
16291TIP3   OH270287   0.370   5.949  13.310 -0.7972  0.0134 -0.3382
16291TIP3    H170288   0.298   5.889  13.288 -0.1271 -0.3594 -1.6170
16291TIP3    H270289   0.397   5.986  13.226 -0.1516  0.9174  0.2516
16292TIP3   OH270290   2.436   3.736  13.329  0.4965 -0.0013  0.0187
16292TIP3    H170291   2.492   3.682  13.385  0.8797  1.0417  0.6702
16292TIP3    H270292   2.465   3.716  13.239  1.0031 -0.4600  0.2803
16293TIP3   OH270293   2.333   6.124  12.400  0.1142 -0.2151  0.3066
16293TIP3    H170294   2.391   6.162  12.467 -1.9198  0.9288  1.5310
16293TIP3    H270295   2.344   6.181  12.324  1.3401 -0.6382  0.1437
16294TIP3   OH270296   4.979   5.132   4.699 -0.2556  0.1405  0.4572
16294TIP3    H170297   5.057   5.186   4.683  0.0825 -0.5424 -0.3030
16294TIP3    H270298   4.919   5.190   4.745 -0.2187  1.4358 -1.0093
16295TIP3   OH270299   3.178   2.574  12.182  0.9706 -0.0428  0.2238
16295TIP3    H170300   3.233   2.649  12.162 -0.6690  1.6222  1.6716
16295TIP3    H270301   3.222   2.531  12.255  0.9389  0.6013  0.6237
16296TIP3   OH270302   3.152   3.452  15.931 -0.2211  0.3058  0.4716
16296TIP3    H170303   3.183   3.518  15.869  1.5956  0.6450  1.6651
16296TIP3    H270304   3.192   3.370  15.901 -1.1620  0.0353 -0.0737
16297TIP3   OH270305   3.590   6.647  13.981  0.7528  0.1722  0.5766
16297TIP3    H170306   3.508   6.597  13.978  1.5928 -1.2066 -0.4404
16297TIP3    H270307   3.653   6.588  14.021  1.5905  0.6741  0.0171
16298TIP3   OH270308   4.741   2.489   1.067  0.0625  0.8732  0.3649
16298TIP3    H170309   4.723   2.405   1.109  0.7730 -0.0338 -1.0756
16298TIP3    H270310   4.688   2.552   1.116 -0.9587 -0.4970  1.0853
16299TIP3   OH270311   6.427   6.060  14.079  0.0935 -0.2831  0.1863
16299TIP3    H170312   6.402   5.988  14.138 -1.2321 -1.7980 -2.0615
16299TIP3    H270313   6.480   6.018  14.011  1.0830  1.2961 -0.0643
16300TIP3   OH270314   1.994   4.254   2.124  0.1535  0.0253 -0.9292
16300TIP3    H170315   2.088   4.250   2.110  0.9734  2.0556  2.7210
16300TIP3    H270316   1.973   4.348   2.123 -2.0479 -0.3919 -2.3791
16301TIP3   OH270317   6.028   1.673  16.367  0.2531  0.1379 -0.6236
16301TIP3    H170318   6.073   1.697  16.286  0.2058 -1.3168 -1.1153
16301TIP3    H270319   6.099   1.657  16.430  0.5144 -1.9688 -1.3456
16302TIP3   OH270320   5.429   5.608   3.386 -0.0193  0.1505  0.2726
16302TIP3    H170321   5.422   5.601   3.291 -0.7973 -2.2830  0.4569
16302TIP3    H270322   5.352   5.657   3.413  0.3948  1.1795 -0.3410
16303TIP3   OH270323   5.892   6.658  14.233 -0.6274  0.2650 -0.1435
16303TIP3    H170324   5.889   6.571  14.272  0.1633  0.4418  0.3439
16303TIP3    H270325   5.854   6.647  14.146  0.6680 -0.8652 -0.6169
16304TIP3   OH270326   3.125   4.051  12.835  0.1290 -0.3929 -0.2157
16304TIP3    H170327   3.180   3.986  12.792  0.1822 -0.6608  0.2531
16304TIP3    H270328   3.177   4.083  12.909 -0.8814 -1.7269  1.1318
16305TIP3   OH270329   2.815   5.794  15.898 -0.2689  0.3175 -0.7959
16305TIP3    H170330   2.762   5.714  15.893  1.3304 -0.7854 -0.7580
16305TIP3    H270331   2.824   5.810  15.992 -0.5844  0.5595 -0.8030
16306TIP3   OH270332   1.445   4.062   5.337 -0.2477 -0.1207 -0.5724
16306TIP3    H170333   1.479   3.985   5.293 -0.4418 -0.4172 -0.2073
16306TIP3    H270334   1.350   4.052   5.334 -0.2644 -0.2215  0.0335
16307TIP3   OH270335   3.859   6.059  13.306 -0.5477 -0.0827  0.3446
16307TIP3    H170336   3.901   6.100  13.381 -1.1149  0.8469  0.1705
16307TIP3    H270337   3.930   6.039  13.246 -0.0695 -0.9886  1.1858
16308TIP3   OH270338   2.776   6.219  14.809 -0.5416  0.0104 -0.2981
16308TIP3    H170339   2.824   6.292  14.769 -1.6610  0.8401 -0.1602
16308TIP3    H270340   2.719   6.260  14.874  0.0198 -1.1575  0.9973
16309TIP3   OH270341   2.725   6.250   5.108  0.0243  0.5462  0.1965
16309TIP3    H170342   2.802   6.197   5.127 -1.5148 -1.3190  1.6978
16309TIP3    H270343   2.733   6.325   5.166  1.3270  1.0456 -0.6015
16310TIP3   OH270344   1.187   0.354   2.307 -0.5439 -0.1920 -0.4275
16310TIP3    H170345   1.211   0.409   2.233  0.1644 -0.9075 -0.7432
16310TIP3    H270346   1.122   0.293   2.272 -1.7039  0.7329  0.0434
16311TIP3   OH270347   1.061   5.983  15.067 -0.3087  0.0086 -0.1905
16311TIP3    H170348   0.977   5.941  15.087  0.0941  0.1821  2.1376
16311TIP3    H270349   1.100   6.001  15.153  1.1266  1.9455 -1.1636
16312TIP3   OH270350   1.460   4.404  11.909  0.2660 -0.1830 -0.0057
16312TIP3    H170351   1.512   4.465  11.962 -1.0037  0.2921  0.7132
16312TIP3    H270352   1.487   4.317  11.939  0.1168  0.0718  0.8874
16313TIP3   OH270353   6.515   5.563  16.298 -0.4302  0.4442  0.1517
16313TIP3    H170354   6.495   5.637  16.242 -1.1238  0.0817 -0.0911
16313TIP3    H270355   6.607   5.543  16.280 -0.5063  0.6443 -0.4903
16314TIP3   OH270356   4.589   3.341   4.447 -0.1110 -0.2841 -0.1578
16314TIP3    H170357   4.537   3.379   4.377  0.3046  1.0664  0.2433
16314TIP3    H270358   4.571   3.396   4.523  0.8229 -0.6267  0.3342
16315TIP3   OH270359   1.601   1.496   5.399 -0.4557  0.2071  0.1321
16315TIP3    H170360   1.522   1.523   5.353 -0.3669 -0.2243 -0.2815
16315TIP3    H270361   1.589   1.403   5.416 -0.2346  0.2388  0.4749
16316TIP3   OH270362   0.795   6.324  16.157  0.1107 -0.1369  0.1854
16316TIP3    H170363   0.774   6.394  16.220  0.4368 -0.1554  0.3177
16316TIP3    H270364   0.829   6.370  16.081 -1.2269 -0.0459 -0.3807
16317TIP3   OH270365   3.819   5.085   1.575  0.1054  0.3697  0.0539
16317TIP3    H170366   3.827   4.991   1.594 -0.7507  0.1371 -0.6845
16317TIP3    H270367   3.878   5.100   1.502 -1.8072 -0.2007 -1.6951
16318TIP3   OH270368   3.600   1.641  16.730  0.1002  0.2486 -0.2208
16318TIP3    H170369   3.570   1.564  16.778  0.2451 -0.3537 -1.0825
16318TIP3    H270370   3.559   1.715  16.776 -0.1456 -0.3444  0.5314
16319TIP3   OH270371   0.238   5.533   5.305 -0.1951 -0.1437 -0.0145
16319TIP3    H170372   0.152   5.537   5.262 -0.2979 -0.2478  0.1849
16319TIP3    H270373   0.288   5.470   5.253 -0.1498  0.1183 -0.2924
16320TIP3   OH270374   4.207   2.543  14.918 -0.4530 -0.1302 -0.1947
16320TIP3    H170375   4.258   2.623  14.910  0.0685 -0.2849  1.2479
16320TIP3    H270376   4.189   2.536  15.012 -0.9688 -1.4119 -0.3727
16321TIP3   OH270377   1.178   5.949   4.294  0.0199  0.5598 -0.0745
16321TIP3    H170378   1.180   6.019   4.228  0.7574  0.3278 -0.3070
16321TIP3    H270379   1.177   5.995   4.378 -1.0380  0.8589 -0.2417
16322TIP3   OH270380   5.887   1.643   4.126  0.7385 -0.4454 -0.4507
16322TIP3    H170381   5.981   1.628   4.135  0.4878 -1.7430  0.2870
16322TIP3    H270382   5.879   1.738   4.122  1.8696 -0.0879  2.7159
16323TIP3   OH270383   0.237   4.408  14.406  0.3243 -0.1681  0.1114
16323TIP3    H170384   0.147   4.420  14.377 -0.2076  0.1433  1.7857
16323TIP3    H270385   0.281   4.367  14.331 -1.8214 -2.8409  0.1561
16324TIP3   OH270386   0.186   4.853  12.033  0.0212  0.1567 -0.0151
16324TIP3    H170387   0.124   4.838  11.961  1.8781 -0.7868 -1.5193
16324TIP3    H270388   0.232   4.770  12.042  1.1719  0.8662  0.9255
16325TIP3   OH270389   4.113   4.941  14.906 -0.4183 -0.3726 -0.0551
16325TIP3    H170390   4.033   4.918  14.859 -0.6678 -1.0245  0.6647
16325TIP3    H270391   4.151   5.012  14.855 -2.6870  1.6294  0.8430
16326TIP3   OH270392   4.043   1.600   4.809 -0.3693  0.1268  0.6965
16326TIP3    H170393   4.077   1.609   4.898 -0.6814 -0.5260  0.8828
16326TIP3    H270394   4.081   1.518   4.777  0.8234  1.0074 -0.2649
16327TIP3   OH270395   3.604   5.744  11.151 -0.0603  0.2710  0.2028
16327TIP3    H170396   3.619   5.838  11.162 -0.6209  0.2820  0.9059
16327TIP3    H270397   3.646   5.704  11.226  1.1402 -0.1517 -0.6615
16328TIP3   OH270398   6.586   4.830   2.565 -0.3687  0.0074 -0.3520
16328TIP3    H170399   6.508   4.804   2.515  1.2963 -1.8698 -2.1692
16328TIP3    H270400   6.575   4.787   2.649 -1.1299 -0.5468 -0.7197
16329TIP3   OH270401   4.328   3.454   4.289 -0.1068 -0.0882  0.2151
16329TIP3    H170402   4.235   3.434   4.303 -0.2226 -0.2120 -0.6419
16329TIP3    H270403   4.342   3.438   4.196  0.6869  0.3117  0.2543
16330TIP3   OH270404   2.065   6.177   0.506  0.2973  0.0912 -0.4791
16330TIP3    H170405   2.152   6.217   0.510  0.0971  0.6273 -1.2826
16330TIP3    H270406   2.017   6.216   0.580  1.1125 -1.1702  0.7600
16331TIP3   OH270407   2.368   1.394  13.093  0.3208  0.0380 -0.0046
16331TIP3    H170408   2.313   1.430  13.162 -0.6699 -0.6431 -0.4155
16331TIP3    H270409   2.368   1.300  13.109  1.5621  0.0373  0.1110
16332TIP3   OH270410   1.822   2.211   6.351  0.0608  0.0009 -0.2117
16332TIP3    H170411   1.877   2.230   6.427  0.3690 -1.1426 -0.1303
16332TIP3    H270412   1.869   2.143   6.303 -0.4806  0.1926 -1.0426
16333TIP3   OH270413   0.115   4.251   3.017 -0.0311  0.1431  0.3243
16333TIP3    H170414   0.022   4.262   2.999 -0.2962 -0.9005  0.9284
16333TIP3    H270415   0.145   4.188   2.951  0.3557  0.8316 -0.1602
16334TIP3   OH270416   5.267   3.537  13.211 -0.1170 -1.0704 -0.0903
16334TIP3    H170417   5.256   3.632  13.210  0.0238 -1.0575 -0.3537
16334TIP3    H270418   5.350   3.522  13.257  0.2045 -1.0312 -0.6463
16335TIP3   OH270419   5.647   5.049  16.878  0.5812 -0.5819  0.6232
16335TIP3    H170420   5.648   4.991  16.802  1.9708 -0.9439  0.8874
16335TIP3    H270421   5.676   5.134  16.844 -0.1179 -0.3896  0.4967
16336TIP3   OH270422   5.345   5.010   4.812  0.1704  0.1168 -0.0448
16336TIP3    H170423   5.328   5.082   4.872 -1.2968  0.0381 -0.3199
16336TIP3    H270424   5.366   4.936   4.869 -1.1013  0.0720  0.3847
16337TIP3   OH270425   1.301   5.376   0.523 -0.1358 -0.3548 -0.5293
16337TIP3    H170426   1.371   5.430   0.487 -1.5113  1.1875 -0.9855
16337TIP3    H270427   1.338   5.341   0.605  1.5915 -0.6370 -1.3826
16338TIP3   OH270428   5.487   2.100  14.549 -0.4310  0.0307  0.2722
16338TIP3    H170429   5.547   2.105  14.475 -1.4581  2.3994 -0.4870
16338TIP3    H270430   5.437   2.021  14.534  0.1258 -0.1058 -0.9751
16339TIP3   OH270431   1.967   1.487  14.078 -0.2556  0.0353 -0.3602
16339TIP3    H170432   1.948   1.395  14.093 -0.3419 -0.2519 -1.9965
16339TIP3    H270433   2.057   1.488  14.045  0.3376  0.7244  1.1958
16340TIP3   OH270434   1.725   2.430   3.943 -0.4186 -0.3412 -0.2054
16340TIP3    H170435   1.643   2.404   3.985 -0.9252 -0.5371 -1.2639
16340TIP3    H270436   1.752   2.353   3.893  1.0516 -0.6732  1.0369
16341TIP3   OH270437   2.609   6.314   0.609  0.0429 -0.3669 -0.0565
16341TIP3    H170438   2.621   6.220   0.620  1.3353 -0.5191 -2.1297
16341TIP3    H270439   2.634   6.352   0.693 -0.6760 -1.8519  0.8737
16342TIP3   OH270440   0.011   1.251   4.428 -0.0707 -0.2421  0.0755
16342TIP3    H170441  -0.059   1.284   4.484  0.4721  0.8671  0.1168
16342TIP3    H270442   0.075   1.214   4.489 -0.6364 -1.3363  0.0334
16343TIP3   OH270443   5.108   6.178  13.437 -0.2026  0.1967 -0.0944
16343TIP3    H170444   5.158   6.259  13.450  0.8556 -0.2516 -1.1921
16343TIP3    H270445   5.149   6.115  13.496  0.0241  0.0314 -0.4289
16344TIP3   OH270446   4.517   3.026   2.668  0.0508  0.6866  0.2734
16344TIP3    H170447   4.487   3.112   2.697 -0.0437  0.9607 -0.6199
16344TIP3    H270448   4.613   3.034   2.663 -0.0728  1.6941 -2.5934
16345TIP3   OH270449   5.209   3.487   4.639  0.5962  0.5853 -0.1669
16345TIP3    H170450   5.225   3.425   4.568  1.6060  1.1775 -0.4775
16345TIP3    H270451   5.144   3.444   4.694  1.3598 -0.8201 -0.3104
16346TIP3   OH270452   1.657   5.687   2.708 -0.6896  0.0970 -0.1341
16346TIP3    H170453   1.715   5.730   2.646 -1.8896  0.8076 -0.7951
16346TIP3    H270454   1.690   5.597   2.713  1.4685  0.8815  0.7924
16347TIP3   OH270455   5.984   3.811   1.626  0.6886  0.1490 -0.2026
16347TIP3    H170456   6.061   3.785   1.676  1.3927  0.9386 -0.8395
16347TIP3    H270457   5.913   3.814   1.690  0.8894 -1.8135  0.1659
16348TIP3   OH270458   3.714   6.762  14.644 -0.3680  0.3597 -0.0873
16348TIP3    H170459   3.691   6.854  14.658 -1.9210 -0.2098  1.4483
16348TIP3    H270460   3.676   6.741  14.558 -0.0511  1.1216 -0.4222
16349TIP3   OH270461   2.097   4.650  15.091  0.1388  0.3813 -0.3256
16349TIP3    H170462   2.106   4.655  14.996  1.4790  3.9859 -0.1636
16349TIP3    H270463   2.089   4.741  15.119  0.0943 -0.5330  3.0682
16350TIP3   OH270464   3.072   6.361   4.802 -0.5962  0.1728  0.3170
16350TIP3    H170465   2.987   6.317   4.810 -0.5216  0.1109  0.7751
16350TIP3    H270466   3.135   6.297   4.836  0.0586 -1.0996 -2.9138
16351TIP3   OH270467   1.708   3.809   2.064  0.7777  0.8577  0.3483
16351TIP3    H170468   1.769   3.735   2.064  1.1904  1.1922 -0.2583
16351TIP3    H270469   1.713   3.844   1.975  0.2401  1.3367  0.5041
16352TIP3   OH270470   2.380   3.853   0.003  0.0776  0.1764 -0.3963
16352TIP3    H170471   2.368   3.881  -0.088 -1.8817 -0.2103 -0.3044
16352TIP3    H270472   2.461   3.802   0.001  0.8620  1.3644 -1.6061
16353TIP3   OH270473   6.164   2.135  11.918  0.1348 -0.5449  0.0375
16353TIP3    H170474   6.244   2.107  11.874  0.4857 -2.1727  1.5508
16353TIP3    H270475   6.194   2.174  12.000 -0.3681  4.2752 -1.7567
16354TIP3   OH270476   5.465   5.471   0.271  0.0509 -0.1648  0.3653
16354TIP3    H170477   5.395   5.426   0.225 -0.2648  1.6326 -0.9847
16354TIP3    H270478   5.546   5.432   0.236 -0.2288 -0.9952  0.6268
16355TIP3   OH270479   5.003   3.254  11.673  0.1013 -0.3960  0.1911
16355TIP3    H170480   5.073   3.228  11.734  1.9832 -0.9475 -2.0614
16355TIP3    H270481   5.037   3.332  11.629 -1.0088 -0.2581 -0.4589
16356TIP3   OH270482   5.214   5.181   1.054 -0.7149 -0.6344  0.3583
16356TIP3    H170483   5.141   5.235   1.084 -0.3208 -0.9588  2.0292
16356TIP3    H270484   5.262   5.236   0.992  0.2947  1.4488  2.7695
16357TIP3   OH270485   5.469   1.038   4.573  0.1404 -0.0713 -0.0952
16357TIP3    H170486   5.531   1.026   4.501  0.8350  1.0416  0.2898
16357TIP3    H270487   5.465   1.133   4.586 -2.4848 -0.0154 -0.8071
16358TIP3   OH270488   5.776   0.001  14.469 -0.2107  0.2131 -0.1043
16358TIP3    H170489   5.796  -0.081  14.513 -2.5933 -0.9187 -0.9490
16358TIP3    H270490   5.794  -0.016  14.376 -0.0465  0.9053 -0.2108
16359TIP3   OH270491   4.878   1.119   3.327 -0.3308 -0.5208  0.0076
16359TIP3    H170492   4.832   1.194   3.365 -0.7110 -1.5645  1.7354
16359TIP3    H270493   4.839   1.043   3.370  0.8558 -1.6330 -0.8152
16360TIP3   OH270494   1.529   0.731  15.381 -0.3169  0.3262 -0.5767
16360TIP3    H170495   1.617   0.707  15.353  0.4727  0.6424  1.5095
16360TIP3    H270496   1.520   0.694  15.469 -1.2168  2.6674  0.4003
16361TIP3   OH270497   5.259   0.663   4.746  0.1042  0.6347  0.4150
16361TIP3    H170498   5.312   0.638   4.671 -0.2166  0.8111  0.1279
16361TIP3    H270499   5.204   0.735   4.714 -0.0471  0.6988  0.8115
16362TIP3   OH270500   1.616   0.729   0.805  0.4945 -1.1349 -0.3107
16362TIP3    H170501   1.626   0.791   0.734  1.2714  1.7347  2.1222
16362TIP3    H270502   1.696   0.677   0.803  0.8480 -0.5738 -1.0480
16363TIP3   OH270503   1.856   1.217  16.792 -0.2646 -0.4513  0.1368
16363TIP3    H170504   1.858   1.136  16.843  0.5501  0.0781  0.9815
16363TIP3    H270505   1.937   1.262  16.816 -2.1376  2.1094  2.1604
16364TIP3   OH270506   3.855   4.100   4.737 -0.1514  0.1159 -0.0415
16364TIP3    H170507   3.816   4.156   4.804 -0.6042 -1.4581  1.0960
16364TIP3    H270508   3.781   4.057   4.695  0.2025 -1.9178  1.2452
16365TIP3   OH270509   5.173   1.781  11.864  0.1435  0.6880  0.3266
16365TIP3    H170510   5.104   1.789  11.798  0.1724 -1.7969 -0.1323
16365TIP3    H270511   5.145   1.707  11.918  1.7154  0.6052  1.0634
16366TIP3   OH270512   5.077   2.885   0.370  0.5790 -0.3995  0.1273
16366TIP3    H170513   5.040   2.799   0.390 -0.1250 -0.3952 -1.0998
16366TIP3    H270514   5.031   2.945   0.429  0.1133 -0.6782  0.0524
16367TIP3   OH270515   5.691   3.320  11.574  0.0434 -0.1935  0.2975
16367TIP3    H170516   5.643   3.397  11.601 -1.2713 -0.4899 -1.0584
16367TIP3    H270517   5.641   3.284  11.500  1.7796 -1.1064 -0.5247
16368TIP3   OH270518   4.213   0.955   4.864  0.0396 -0.0868  0.0526
16368TIP3    H170519   4.228   1.039   4.906  1.2663  0.0206 -0.5450
16368TIP3    H270520   4.127   0.964   4.822  0.3534  1.0539 -0.3970
16369TIP3   OH270521   4.423   5.706   6.143 -0.4204  0.3870  0.0742
16369TIP3    H170522   4.389   5.795   6.145  1.2925  1.1055 -0.3199
16369TIP3    H270523   4.490   5.704   6.212  0.2924 -0.2615 -0.6143
16370TIP3   OH270524   6.599   3.743  13.388 -0.7747 -0.1391  0.1218
16370TIP3    H170525   6.669   3.808  13.378 -0.6875 -0.4695 -1.6858
16370TIP3    H270526   6.563   3.760  13.475  1.5518  0.0413  1.1327
16371TIP3   OH270527   5.025   4.538   5.612 -0.2261  0.0745  0.2061
16371TIP3    H170528   4.966   4.487   5.556 -0.2438 -0.8936  1.0944
16371TIP3    H270529   5.102   4.553   5.557  0.2724 -1.9117  0.2941
16372TIP3   OH270530   5.957   4.132  10.628 -0.2473 -0.1601 -0.5356
16372TIP3    H170531   6.040   4.172  10.600 -0.6910  0.8932 -0.4074
16372TIP3    H270532   5.943   4.165  10.717 -0.1221 -1.4475 -0.0171
16373TIP3   OH270533   1.963   5.926   4.885 -0.2762 -0.2487 -0.4544
16373TIP3    H170534   1.986   5.887   4.801 -2.2805 -0.9654 -0.7352
16373TIP3    H270535   1.949   6.019   4.866 -2.7406 -0.7504 -1.4292
16374TIP3   OH270536   3.723   0.254   4.913 -0.0363  0.0787  0.5114
16374TIP3    H170537   3.665   0.186   4.948  1.8848 -0.8182  2.2174
16374TIP3    H270538   3.670   0.302   4.850 -2.7908 -0.2805  2.3961
16375TIP3   OH270539   4.632   3.373  11.461  0.5127 -0.4081 -0.2857
16375TIP3    H170540   4.544   3.410  11.458  1.8139  3.1815  0.7692
16375TIP3    H270541   4.667   3.387  11.373  0.7960  0.4502 -0.0514
16376TIP3   OH270542   1.181   4.454  11.721  0.2293 -0.4583  0.2860
16376TIP3    H170543   1.138   4.454  11.807  3.0975 -0.7417  1.8317
16376TIP3    H270544   1.176   4.545  11.692  0.5379 -0.0401  1.4827
16377TIP3   OH270545   0.278   2.181  11.384 -0.3928  0.8584  0.4350
16377TIP3    H170546   0.188   2.197  11.412 -1.0389 -0.2216 -0.9023
16377TIP3    H270547   0.290   2.237  11.307 -1.0967 -1.3794 -1.4088
16378TIP3   OH270548   1.749   0.917  16.800 -0.1181  0.1609 -0.0065
16378TIP3    H170549   1.776   0.895  16.889  0.7458  1.4713  0.0949
16378TIP3    H270550   1.825   0.894  16.746  0.5217  2.0538  0.0131
16379TIP3   OH270551   0.368   2.172   3.052  0.2715  0.0854 -0.2401
16379TIP3    H170552   0.372   2.138   2.963  2.5229 -0.0639 -0.1630
16379TIP3    H270553   0.460   2.186   3.076 -0.3531  1.6597  1.4800
16380TIP3   OH270554   4.384   6.119   5.121 -0.1793 -0.3054 -0.2366
16380TIP3    H170555   4.427   6.189   5.170  1.4387 -2.9193  2.3556
16380TIP3    H270556   4.291   6.127   5.144 -0.2757  1.7231 -1.0916
16381TIP3   OH270557   3.271   3.477  11.153 -0.1127 -0.1541  0.0072
16381TIP3    H170558   3.268   3.442  11.241 -0.4442 -1.1747 -0.4010
16381TIP3    H270559   3.364   3.486  11.133 -0.0134  1.5179  0.9935
16382TIP3   OH270560   1.693   5.624   4.922  0.1681  0.1862  0.5076
16382TIP3    H170561   1.757   5.590   4.984 -0.0138 -0.6976  0.2268
16382TIP3    H270562   1.744   5.681   4.864  0.6057 -0.1103  0.5951
16383TIP3   OH270563   6.209   1.021  12.630  0.5502 -0.2756  0.2918
16383TIP3    H170564   6.129   0.972  12.612  0.5227  0.4810 -1.9342
16383TIP3    H270565   6.184   1.113  12.625  1.3381 -0.0224  0.7126
16384TIP3   OH270566   3.663   6.035   4.358  0.3502 -0.1741 -0.0810
16384TIP3    H170567   3.732   6.028   4.292  0.9390 -1.3793  0.6447
16384TIP3    H270568   3.584   6.005   4.313 -0.2277  3.0797 -1.5503
16385TIP3   OH270569   4.468   4.087  11.642 -0.2251 -0.0713  0.2119
16385TIP3    H170570   4.543   4.050  11.596 -0.2073  1.4090 -1.0073
16385TIP3    H270571   4.402   4.018  11.639 -0.5123  0.2076 -2.7655
16386TIP3   OH270572   5.030   2.855   4.198  0.0861  0.4474  0.3079
16386TIP3    H170573   5.068   2.893   4.277 -0.2829  0.1375  0.6398
16386TIP3    H270574   4.956   2.913   4.177  0.5262  0.8506 -0.1355
16387TIP3   OH270575   3.436   6.247  16.512 -0.1629  0.2817 -0.7059
16387TIP3    H170576   3.530   6.247  16.529 -0.1416  0.3416 -0.8217
16387TIP3    H270577   3.399   6.195  16.582  0.0945 -0.8916 -1.4117
16388TIP3   OH270578   5.946   5.106   1.540  0.2457 -0.3200  0.0179
16388TIP3    H170579   5.951   5.017   1.576 -1.1661  1.1574  4.6062
16388TIP3    H270580   5.862   5.109   1.495 -0.3172 -1.0202  0.9788
16389TIP3   OH270581   2.124   5.979   4.633 -0.2034  0.5783  0.3885
16389TIP3    H170582   2.101   6.059   4.679 -0.7067 -0.5593  2.1880
16389TIP3    H270583   2.042   5.947   4.596  0.1878  1.4657 -1.3872
16390TIP3   OH270584   4.024   1.558   0.153  0.2694 -0.4384 -0.7785
16390TIP3    H170585   4.053   1.644   0.184 -0.2986 -0.4500 -0.1977
16390TIP3    H270586   4.077   1.496   0.204 -0.0032 -0.4429 -0.4967
16391TIP3   OH270587   6.393   6.692   2.484 -0.7397 -0.4030 -0.0409
16391TIP3    H170588   6.444   6.744   2.547  0.5065  0.3129 -1.5868
16391TIP3    H270589   6.321   6.750   2.459 -0.3460 -0.0690 -0.4312
16392TIP3   OH270590   4.686   4.320  13.093 -0.4538 -0.3076  0.0534
16392TIP3    H170591   4.723   4.302  13.007  0.7065 -1.5307  0.7786
16392TIP3    H270592   4.611   4.261  13.100  0.9264 -2.0375  0.8221
16393TIP3   OH270593   6.263   1.023  15.898 -0.3944 -0.2574  0.4824
16393TIP3    H170594   6.205   1.022  15.822 -0.8111  1.9184  0.7089
16393TIP3    H270595   6.208   0.994  15.971 -1.1181  1.3682  0.6166
16394TIP3   OH270596   2.782   1.569  13.949 -0.2698 -0.0845 -0.7358
16394TIP3    H170597   2.700   1.553  13.997  0.0026  0.9444  0.1022
16394TIP3    H270598   2.847   1.583  14.017  0.1388  1.3810 -1.3928
16395TIP3   OH270599   4.675   0.854   5.090  0.2811 -0.1570  0.4036
16395TIP3    H170600   4.634   0.895   5.166  0.4979  0.5147  0.1722
16395TIP3    H270601   4.752   0.909   5.073  0.3993 -0.4800 -0.1129
16396TIP3   OH270602   3.800   4.109  13.865 -0.1252 -0.2981  0.4119
16396TIP3    H170603   3.827   4.172  13.932 -0.8743 -1.0633  1.4651
16396TIP3    H270604   3.716   4.142  13.833  0.5810  0.4679 -0.7159
16397TIP3   OH270605   5.292   5.922   2.633 -0.5168  0.4770  0.2553
16397TIP3    H170606   5.208   5.877   2.618 -0.8153  1.2533 -0.4825
16397TIP3    H270607   5.350   5.853   2.667 -1.2860 -0.2023  0.2299
16398TIP3   OH270608   3.778   0.884  13.797  0.1446  0.5739  0.3901
16398TIP3    H170609   3.847   0.951  13.792  1.3200 -0.5897  0.3407
16398TIP3    H270610   3.753   0.882  13.889 -0.1116  1.2611  0.3459
16399TIP3   OH270611   0.110   2.746   3.945  0.1966 -0.4163 -0.6790
16399TIP3    H170612   0.170   2.821   3.953  0.6937 -0.9326  0.9047
16399TIP3    H270613   0.098   2.734   3.851  2.3034 -0.0526 -1.0390
16400TIP3   OH270614   2.306   0.927   2.279  0.4412  0.3944 -0.0872
16400TIP3    H170615   2.337   1.009   2.318  1.8349  0.0340 -0.3625
16400TIP3    H270616   2.368   0.861   2.311 -0.4448 -0.4960 -0.1584
16401TIP3   OH270617   0.361   2.556   4.857  0.1800 -0.0917 -0.2748
16401TIP3    H170618   0.339   2.581   4.946  1.0452  0.3606 -0.1697
16401TIP3    H270619   0.282   2.514   4.823 -0.1488 -0.2901  0.7036
16402TIP3   OH270620   0.446   4.109  11.201 -0.2483 -0.2737  0.3389
16402TIP3    H170621   0.494   4.041  11.248  0.2800 -0.3451 -0.2923
16402TIP3    H270622   0.420   4.171  11.269 -1.4063 -1.4856  1.0277
16403TIP3   OH270623   3.567   5.050  13.050 -0.0753  0.5345  0.3058
16403TIP3    H170624   3.607   4.984  13.107 -1.2073  2.3091  3.4133
16403TIP3    H270625   3.494   5.004  13.008 -0.3694 -0.4376  1.7923
16404TIP3   OH270626   6.804   1.329  14.803  0.3470  0.5849 -0.5259
16404TIP3    H170627   6.771   1.268  14.870 -0.3657  0.9672 -0.5242
16404TIP3    H270628   6.732   1.339  14.741  0.7519  0.7906 -0.9702
16405TIP3   OH270629   4.763   0.759   6.329  0.4005 -0.7435  0.3004
16405TIP3    H170630   4.851   0.740   6.361  0.1072 -1.8526  0.4781
16405TIP3    H270631   4.748   0.697   6.259  0.3907  0.5698 -0.9020
16406TIP3   OH270632   6.525   2.681  16.614 -0.2776 -0.7713 -0.3184
16406TIP3    H170633   6.505   2.609  16.553 -0.6789 -0.5218 -0.4884
16406TIP3    H270634   6.464   2.750  16.589  0.4505 -0.1855 -0.4795
16407TIP3   OH270635   0.751   1.093  13.966  0.1363 -0.2180 -0.0230
16407TIP3    H170636   0.684   1.161  13.964  0.5845  0.2308  0.1756
16407TIP3    H270637   0.816   1.120  13.901  0.4905 -0.2743  0.3030
16408TIP3   OH270638   0.493   5.199   2.601  0.2276 -0.0419 -0.0116
16408TIP3    H170639   0.585   5.226   2.603  0.1424  0.2301  0.6364
16408TIP3    H270640   0.494   5.110   2.568  0.8095 -0.3486  0.8070
16409TIP3   OH270641   4.129   2.402  10.994 -0.3641 -0.0149  0.4511
16409TIP3    H170642   4.037   2.414  11.021 -0.0468  0.1276  1.5309
16409TIP3    H270643   4.150   2.312  11.018  0.0703  0.2658  1.1811
16410TIP3   OH270644   4.711   4.987  14.355 -0.1609 -0.6267 -0.2598
16410TIP3    H170645   4.767   5.025  14.423 -1.5915 -1.1166  1.2528
16410TIP3    H270646   4.631   5.040  14.357  0.7678  1.2105 -3.6089
16411TIP3   OH270647   3.329   1.497  14.307  0.3002 -0.1423  0.2558
16411TIP3    H170648   3.365   1.454  14.384 -1.5173 -1.3059  0.5049
16411TIP3    H270649   3.253   1.545  14.339 -0.4615 -0.6089 -0.7895
16412TIP3   OH270650   5.774   3.857   4.311 -0.0625  0.5561  0.2234
16412TIP3    H170651   5.819   3.941   4.305 -0.3006  0.8383  1.9245
16412TIP3    H270652   5.810   3.805   4.239  1.1050  1.6371 -0.0058
16413TIP3   OH270653   4.151   1.683   5.056 -1.0729  0.6313 -0.5436
16413TIP3    H170654   4.198   1.755   5.098  3.4756 -2.6662  0.7418
16413TIP3    H270655   4.090   1.652   5.123 -0.9885  1.4895 -0.0581
16414TIP3   OH270656   6.355   6.546   3.757  0.2312  0.0839 -0.5185
16414TIP3    H170657   6.358   6.596   3.838  0.3299 -0.9074  0.1034
16414TIP3    H270658   6.407   6.597   3.695 -0.3620  1.1650 -0.1535
16415TIP3   OH270659   2.097   0.985  13.338  0.1408 -0.0908 -0.0748
16415TIP3    H170660   2.157   0.919  13.372  0.0574 -0.0268  0.2014
16415TIP3    H270661   2.042   1.009  13.413  1.5591  1.8395  0.4105
16416TIP3   OH270662   2.411   5.092  16.058  0.0123 -0.4250  0.3225
16416TIP3    H170663   2.475   5.022  16.071 -1.2790 -1.8869 -0.8172
16416TIP3    H270664   2.464   5.172  16.050  1.6291 -1.4768  0.1132
16417TIP3   OH270665   3.341   6.457  11.273  0.1568 -0.0847  0.3532
16417TIP3    H170666   3.389   6.472  11.191  1.2068  1.2343  1.1712
16417TIP3    H270667   3.381   6.518  11.336 -1.2064 -0.4505  1.6257
16418TIP3   OH270668   5.458   6.271   0.131 -0.3787 -0.4927  0.4720
16418TIP3    H170669   5.517   6.200   0.156  0.6230 -0.7166 -2.1592
16418TIP3    H270670   5.370   6.232   0.137  0.1799 -2.2608 -1.4732
16419TIP3   OH270671   1.500   3.777   5.240  0.0286  0.1977  0.0908
16419TIP3    H170672   1.571   3.815   5.187 -0.1196  0.9707  0.4235
16419TIP3    H270673   1.543   3.713   5.296  0.2955 -0.1162 -0.4672
16420TIP3   OH270674   4.114   1.709  12.978 -0.3580 -0.7972 -0.1759
16420TIP3    H170675   4.158   1.625  12.996  0.0485 -0.6580 -0.5140
16420TIP3    H270676   4.168   1.751  12.911 -0.9446 -0.5715 -0.5173
16421TIP3   OH270677   4.182   6.356   0.629  0.5230  0.0388  0.1703
16421TIP3    H170678   4.090   6.331   0.640 -0.4103  1.6119 -2.9839
16421TIP3    H270679   4.186   6.446   0.660  0.8537  0.1751 -0.2641
16422TIP3   OH270680   6.257   3.562  14.489  0.2645  0.1438 -0.3827
16422TIP3    H170681   6.281   3.654  14.483 -2.3532  0.7825 -3.4601
16422TIP3    H270682   6.331   3.515  14.449  1.5731  0.8111  1.1283
16423TIP3   OH270683   4.426   2.024   5.701  0.1820  0.7356 -0.0486
16423TIP3    H170684   4.489   1.951   5.702 -1.1805 -0.5048  1.8415
16423TIP3    H270685   4.459   2.085   5.766  0.6341  1.2269 -0.7208
16424TIP3   OH270686   0.258   5.225  11.820 -0.2388 -0.6291  0.4275
16424TIP3    H170687   0.165   5.232  11.798 -0.0390 -0.1221 -0.2908
16424TIP3    H270688   0.282   5.136  11.795 -0.3765 -0.5470 -0.0037
16425TIP3   OH270689   0.551   5.528   5.946  0.3448  0.5572  0.1671
16425TIP3    H170690   0.617   5.512   6.013  2.4265  3.5064 -0.9884
16425TIP3    H270691   0.500   5.601   5.979 -0.6460  0.0377 -0.1536
16426TIP3   OH270692   1.621   0.892   5.642 -0.2536 -0.8022 -0.6060
16426TIP3    H170693   1.661   0.833   5.706 -2.8088 -0.9256  1.0326
16426TIP3    H270694   1.631   0.848   5.558  1.2242 -1.7057  0.0111
16427TIP3   OH270695   2.625   1.974   4.449 -0.9395 -0.0476 -0.2482
16427TIP3    H170696   2.573   1.916   4.504 -0.0472 -0.2279  0.4389
16427TIP3    H270697   2.707   1.926   4.434 -0.2824  0.9146  0.1247
16428TIP3   OH270698   3.339   4.271   1.341 -0.2009  0.0052 -0.9456
16428TIP3    H170699   3.311   4.361   1.323  0.7831  0.2244 -1.4506
16428TIP3    H270700   3.353   4.233   1.255 -2.9587 -1.4577 -0.8726
16429TIP3   OH270701   4.178   2.425  16.280 -0.4388 -0.5654 -0.0781
16429TIP3    H170702   4.269   2.404  16.300 -0.2813 -0.6667 -0.8906
16429TIP3    H270703   4.133   2.421  16.365  0.0302 -1.9492  0.1277
16430TIP3   OH270704   4.881   4.304   3.970 -0.3391 -0.2414 -0.2022
16430TIP3    H170705   4.915   4.391   3.993  0.2612 -0.4564 -0.2836
16430TIP3    H270706   4.930   4.243   4.025  0.5838 -0.6959 -1.4836
16431TIP3   OH270707   4.618   2.186  13.909 -0.1460  0.7013  0.0316
16431TIP3    H170708   4.550   2.144  13.857  0.0882  1.5700 -1.0260
16431TIP3    H270709   4.664   2.243  13.847  1.5488  0.1423  0.7035
16432TIP3   OH270710   3.748   4.095   4.260 -0.1266 -0.2673 -0.0794
16432TIP3    H170711   3.662   4.109   4.221  0.7356  0.4373 -1.8672
16432TIP3    H270712   3.730   4.074   4.351 -2.0660  3.4227  0.6068
16433TIP3   OH270713   1.880   2.666   2.969  0.5103 -0.2004 -0.2303
16433TIP3    H170714   1.863   2.588   2.915  1.3219 -1.5353  1.3668
16433TIP3    H270715   1.929   2.633   3.044  0.4533  1.7975  0.7378
16434TIP3   OH270716   6.006   6.592  11.154 -0.4951  0.6509  0.5234
16434TIP3    H170717   5.925   6.641  11.169 -1.4682 -0.0691 -1.9091
16434TIP3    H270718   6.046   6.633  11.077 -1.0717 -1.8770 -1.2667
16435TIP3   OH270719   0.630   5.479   3.345  0.0429 -0.4784 -0.1534
16435TIP3    H170720   0.619   5.440   3.258 -1.0063 -0.5689  0.0102
16435TIP3    H270721   0.566   5.434   3.400 -0.4687  0.7413  0.2802
16436TIP3   OH270722   5.352   4.792   5.140  0.1966  0.1893  0.5848
16436TIP3    H170723   5.416   4.858   5.166  1.5702 -1.8023  2.7231
16436TIP3    H270724   5.328   4.749   5.222 -1.1320 -1.5209 -0.6360
16437TIP3   OH270725   0.766   1.586  11.503 -0.0036 -0.1676  0.6892
16437TIP3    H170726   0.679   1.564  11.536 -1.8318  1.4655 -2.6190
16437TIP3    H270727   0.798   1.505  11.464 -1.1922 -0.1689 -0.3334
16438TIP3   OH270728   3.800   1.469  13.722  0.1340  0.7244  0.1439
16438TIP3    H170729   3.871   1.528  13.747  0.2324  0.4727  0.4630
16438TIP3    H270730   3.829   1.430  13.639  0.7425  0.0008  0.6887
16439TIP3   OH270731   1.517   1.410   1.854  0.3862 -0.1434 -0.9264
16439TIP3    H170732   1.542   1.484   1.910 -0.4059  0.1749 -0.9784
16439TIP3    H270733   1.426   1.428   1.830 -0.7765 -2.4952  1.2701
16440TIP3   OH270734   3.618   5.202  15.959  0.2340  0.2559  0.1693
16440TIP3    H170735   3.650   5.290  15.978  0.1835  0.6933 -1.6384
16440TIP3    H270736   3.647   5.183  15.870 -1.6042 -0.6655 -0.3068
16441TIP3   OH270737   4.422   6.113  12.555 -0.8480  0.6754 -0.2611
16441TIP3    H170738   4.373   6.094  12.635  1.0375 -1.9471  0.4299
16441TIP3    H270739   4.436   6.208  12.557  0.1591  0.5908  3.2282
16442TIP3   OH270740   3.340   3.199  14.917 -0.1664  0.4491 -0.4419
16442TIP3    H170741   3.317   3.214  14.825  1.0710 -2.2948 -1.3347
16442TIP3    H270742   3.404   3.267  14.937 -1.1682  1.6737 -1.2749
16443TIP3   OH270743   3.631   2.368   2.904  1.2213 -0.0795  0.6464
16443TIP3    H170744   3.671   2.429   2.842  0.7014 -0.7439 -0.3732
16443TIP3    H270745   3.543   2.402   2.917  0.9884 -0.5077  0.2123
16444TIP3   OH270746   2.446   4.636  16.742 -0.4687 -0.2038 -0.2750
16444TIP3    H170747   2.404   4.602  16.663  0.0127  0.0423 -0.6407
16444TIP3    H270748   2.506   4.566  16.769 -1.4662 -0.7807  0.5498
16445TIP3   OH270749   2.802   5.657   0.017  0.0673  0.3043 -0.6206
16445TIP3    H170750   2.759   5.582   0.058 -1.6720  1.7966  0.4324
16445TIP3    H270751   2.756   5.668  -0.066  0.2194  0.3078 -0.7055
16446TIP3   OH270752   2.498   4.090   1.606 -0.6643 -0.4622  0.5843
16446TIP3    H170753   2.532   4.119   1.690 -1.2723 -2.9369  1.7703
16446TIP3    H270754   2.475   4.171   1.560 -1.3819  0.9491  3.2314
16447TIP3   OH270755   2.877   1.472  16.505  0.3370 -0.5400 -0.0637
16447TIP3    H170756   2.789   1.502  16.481  0.1393 -1.2713 -0.2995
16447TIP3    H270757   2.866   1.430  16.590  0.2750 -1.4041 -0.4811
16448TIP3   OH270758   6.083   0.976  13.311  0.2601 -0.1647 -0.0091
16448TIP3    H170759   6.090   0.885  13.340  0.6922 -0.0535  0.2451
16448TIP3    H270760   6.094   0.972  13.216  2.4180 -0.1718  0.1989
16449TIP3   OH270761   5.309   1.901  10.547 -0.1238  0.1632 -0.5929
16449TIP3    H170762   5.333   1.818  10.589  1.4117  0.7183 -0.3092
16449TIP3    H270763   5.264   1.875  10.467 -2.0507 -0.9211  0.7630
16450TIP3   OH270764   2.174   3.414  13.223  0.1369 -0.5475 -0.2443
16450TIP3    H170765   2.228   3.420  13.144 -0.0551 -0.9785 -0.4099
16450TIP3    H270766   2.236   3.428  13.295  0.4797 -1.0520 -0.4308
16451TIP3   OH270767   2.233   4.158   5.805  0.8000 -0.1362 -0.0080
16451TIP3    H170768   2.262   4.200   5.887  0.7445  0.4422 -0.2773
16451TIP3    H270769   2.167   4.094   5.833  1.7657 -0.9172  0.5329
16452TIP3   OH270770   1.499   5.820  13.573 -0.0628  0.5783 -0.1483
16452TIP3    H170771   1.478   5.741  13.524  0.7088  0.8679 -0.9672
16452TIP3    H270772   1.424   5.878  13.559 -0.7809 -0.1120  0.7211
16453TIP3   OH270773   5.152   4.867  11.627 -1.0160 -0.7314  0.1040
16453TIP3    H170774   5.196   4.792  11.666  1.4103  0.0820 -0.8439
16453TIP3    H270775   5.164   4.938  11.690 -3.4357 -1.0560  1.0707
16454TIP3   OH270776   4.851   6.395   2.830 -0.4119 -0.3123 -0.3056
16454TIP3    H170777   4.834   6.335   2.758  1.6990 -0.0137 -1.1388
16454TIP3    H270778   4.869   6.479   2.788  1.9899 -0.3897  0.3972
16455TIP3   OH270779   5.386   6.301   0.614 -0.2328 -0.0594 -0.5111
16455TIP3    H170780   5.472   6.266   0.589  0.8076  2.2378 -0.3933
16455TIP3    H270781   5.371   6.267   0.702  0.7215 -0.2450 -0.4095
16456TIP3   OH270782   1.876   4.752   0.019 -0.0608 -0.1193  0.3675
16456TIP3    H170783   1.899   4.680  -0.040 -1.0015 -0.1902  0.0862
16456TIP3    H270784   1.811   4.803  -0.028 -0.0408  0.4279  0.9217
16457TIP3   OH270785   6.772   4.439  12.304  0.0138 -0.0041  0.0846
16457TIP3    H170786   6.750   4.531  12.289  1.5625  0.0648 -2.4611
16457TIP3    H270787   6.789   4.433  12.398 -1.2648  1.9991  0.5193
16458TIP3   OH270788   1.579   6.025   0.746  0.0252 -0.0846 -0.0085
16458TIP3    H170789   1.611   5.935   0.751  1.1335  0.3216  0.4435
16458TIP3    H270790   1.523   6.026   0.668  0.7255 -0.9326 -0.5426
16459TIP3   OH270791   1.838   4.604  16.341 -0.2894 -0.7443 -0.0952
16459TIP3    H170792   1.769   4.607  16.274 -1.3107  0.2966  0.9582
16459TIP3    H270793   1.894   4.679  16.321 -1.7934  0.8624  1.3910
16460TIP3   OH270794   1.826   6.082   1.206 -0.3049 -0.8631  0.0501
16460TIP3    H170795   1.747   6.122   1.244 -0.5685  0.0273 -1.3711
16460TIP3    H270796   1.818   6.097   1.112  1.3937 -1.0807 -0.1626
16461TIP3   OH270797   0.635   2.592  11.681  0.3045  0.1805  0.0111
16461TIP3    H170798   0.697   2.665  11.672 -0.4704  0.7271 -1.1951
16461TIP3    H270799   0.587   2.611  11.762 -0.1321  1.2283 -0.4664
16462TIP3   OH270800   3.107   4.464  15.378  0.5244  0.5037 -0.4191
16462TIP3    H170801   3.184   4.479  15.433  0.7683  1.4257 -0.9878
16462TIP3    H270802   3.033   4.495  15.430  0.8762  2.5050 -1.0379
16463TIP3   OH270803   1.066   3.897   5.916  0.3475 -0.2473 -0.0515
16463TIP3    H170804   1.043   3.864   6.003  1.0697 -0.3895  0.0966
16463TIP3    H270805   1.161   3.908   5.920  0.1266  2.4126  0.1165
16464TIP3   OH270806   5.472   6.631  13.524  0.2098 -0.2373 -0.2888
16464TIP3    H170807   5.498   6.722  13.514 -0.7039  0.2063  1.0687
16464TIP3    H270808   5.403   6.632  13.591 -2.4174 -1.4523 -2.7148
16465TIP3   OH270809   2.555   5.614  11.796  0.4957 -0.2332 -0.4921
16465TIP3    H170810   2.647   5.637  11.782  0.4090  0.2999 -0.2031
16465TIP3    H270811   2.508   5.660  11.728  0.4680 -0.7656 -0.8419
16466TIP3   OH270812   2.489   6.797   4.284 -0.2073 -0.0740 -0.4534
16466TIP3    H170813   2.490   6.857   4.359 -2.0696  0.8758 -1.1350
16466TIP3    H270814   2.401   6.806   4.247 -0.1778 -2.4062 -1.2680
16467TIP3   OH270815   5.613   6.169   4.996  0.7580  0.1955  0.0735
16467TIP3    H170816   5.525   6.205   5.007  1.0740  1.2307 -0.5613
16467TIP3    H270817   5.638   6.195   4.907  3.1527  3.3110  1.4667
16468TIP3   OH270818   4.454   5.746  15.865  0.6573  0.1537 -0.1748
16468TIP3    H170819   4.458   5.745  15.770  1.2300  0.1056 -0.1590
16468TIP3    H270820   4.431   5.657  15.890  0.7117  0.1139 -0.2662
16469TIP3   OH270821   3.421   1.644  15.111  0.0895  0.4186 -0.4689
16469TIP3    H170822   3.489   1.708  15.090  2.0101 -1.0608  0.9490
16469TIP3    H270823   3.430   1.577  15.044 -0.9830  0.9017 -1.1233
16470TIP3   OH270824   0.826   1.142   5.901  0.5919  0.0226 -0.1048
16470TIP3    H170825   0.770   1.114   5.974  1.2747  1.3592  0.9818
16470TIP3    H270826   0.772   1.204   5.852  0.2702 -0.5680 -0.4954
16471TIP3   OH270827   5.977   3.311  14.060  0.0137 -0.4686  0.2382
16471TIP3    H170828   5.913   3.241  14.062 -1.7959  1.1156  0.4796
16471TIP3    H270829   6.037   3.292  14.132 -0.3359 -1.8164  0.1878
16472TIP3   OH270830   6.690   3.149  14.440  0.7592  0.3314 -0.0610
16472TIP3    H170831   6.696   3.078  14.375  3.2074 -0.7065  1.1674
16472TIP3    H270832   6.686   3.104  14.524  0.7383  1.6658  0.6790
16473TIP3   OH270833   0.694   2.219   2.895  0.2665 -0.5592  0.4461
16473TIP3    H170834   0.729   2.130   2.896  0.0217 -0.6636  0.1307
16473TIP3    H270835   0.687   2.244   2.987  0.3369 -0.8664  0.5349
16474TIP3   OH270836   1.305   3.532   2.432  0.5461 -0.5181 -0.1056
16474TIP3    H170837   1.314   3.457   2.491  3.5704 -0.6883 -0.6003
16474TIP3    H270838   1.212   3.538   2.414  0.0106 -3.0376  1.3810
16475TIP3   OH270839   4.188   4.793  16.833 -0.5233 -0.0579 -0.4636
16475TIP3    H170840   4.221   4.749  16.912 -0.4223  0.2724 -0.3198
16475TIP3    H270841   4.108   4.745  16.811 -0.0071 -0.7955 -0.7509
16476TIP3   OH270842   3.834   5.781   2.596 -0.2819 -0.4203 -0.3073
16476TIP3    H170843   3.742   5.805   2.610 -0.1414 -0.2168  0.3080
16476TIP3    H270844   3.878   5.865   2.581 -0.4094 -0.6196 -1.9737
16477TIP3   OH270845   3.291   3.049  16.220  0.4427  0.0044 -0.4887
16477TIP3    H170846   3.291   2.967  16.171 -2.0164 -0.4544  0.1210
16477TIP3    H270847   3.374   3.091  16.198  1.8848 -2.7373 -0.6322
16478TIP3   OH270848   3.719   5.415  13.884 -0.0716 -0.8274 -0.4278
16478TIP3    H170849   3.715   5.457  13.969 -1.3422  0.9948 -1.3048
16478TIP3    H270850   3.792   5.353  13.890  2.1107  1.7068  0.8670
16479TIP3   OH270851   0.348   0.047   5.929  0.0121 -0.0151 -0.1431
16479TIP3    H170852   0.335   0.101   6.007 -1.1938 -0.9368  0.3196
16479TIP3    H270853   0.431   0.002   5.944  1.2595  1.9393 -0.7155
16480TIP3   OH270854   0.279   3.175   2.519 -0.4909  0.4446 -0.3966
16480TIP3    H170855   0.362   3.211   2.551  0.9950  0.3560 -3.7639
16480TIP3    H270856   0.282   3.082   2.542  0.0005  0.5905  0.1307
16481TIP3   OH270857   1.397   0.019  14.829  0.2350 -0.0247  0.1767
16481TIP3    H170858   1.395   0.003  14.923 -0.8516  0.8006  0.3082
16481TIP3    H270859   1.323   0.077  14.812 -0.8682 -1.7546 -1.4865
16482TIP3   OH270860   5.645   1.387  13.340  0.3288 -0.4257  0.0940
16482TIP3    H170861   5.648   1.293  13.322 -0.9069 -0.5210  0.3209
16482TIP3    H270862   5.566   1.418  13.296  0.1479  0.3056  0.8910
16483TIP3   OH270863   4.748   3.056   4.790 -0.0112 -0.5067  0.7307
16483TIP3    H170864   4.767   2.982   4.733 -0.9602  0.6546 -1.2151
16483TIP3    H270865   4.658   3.082   4.766  0.9370  2.4327 -0.1274
16484TIP3   OH270866   3.380   5.110  15.727  0.0133  0.4967 -0.0014
16484TIP3    H170867   3.470   5.078  15.730 -0.0841  0.2860  1.0728
16484TIP3    H270868   3.328   5.034  15.701 -0.2414 -0.3585  2.7282
16485TIP3   OH270869   5.772   0.252  10.764 -0.8613  0.1765 -0.2398
16485TIP3    H170870   5.689   0.245  10.718 -0.0442 -2.3527 -1.5346
16485TIP3    H270871   5.778   0.171  10.815  0.8265  0.2691 -0.2341
16486TIP3   OH270872   5.400   3.972   0.820 -0.1479 -0.1659  0.6220
16486TIP3    H170873   5.382   4.058   0.859  2.7889  1.8916 -2.1064
16486TIP3    H270874   5.491   3.954   0.843  0.4121 -0.7671 -1.8341
16487TIP3   OH270875   4.613   0.822   4.450  0.0802 -0.0251 -0.1887
16487TIP3    H170876   4.553   0.757   4.413  0.5356 -1.4033  1.3710
16487TIP3    H270877   4.698   0.798   4.413  0.1854 -0.1005  0.0979
16488TIP3   OH270878   4.527   2.281  12.796  0.3330  0.2356 -0.5546
16488TIP3    H170879   4.494   2.301  12.709 -0.8609 -0.8767 -0.3951
16488TIP3    H270880   4.481   2.343  12.854 -0.6030 -0.5217 -0.4712
16489TIP3   OH270881   0.259   5.878   0.597  0.6786 -0.4966 -0.5775
16489TIP3    H170882   0.244   5.960   0.550  1.2107  0.0021  0.1035
16489TIP3    H270883   0.175   5.833   0.592 -0.6574  1.4877  1.7126
16490TIP3   OH270884   4.368   5.387   0.431 -0.1383  0.2465 -0.3312
16490TIP3    H170885   4.319   5.423   0.357  2.9981  0.8758 -2.2858
16490TIP3    H270886   4.330   5.301   0.446 -1.4691  0.4854 -2.0528
16491TIP3   OH270887   0.340   4.819   4.860  0.1503  0.6154 -0.1514
16491TIP3    H170888   0.381   4.738   4.891  0.6058  0.6902 -0.5495
16491TIP3    H270889   0.309   4.861   4.940  3.4459  1.9990  0.5898
16492TIP3   OH270890   1.862   6.364  15.424  0.1212 -0.4357 -0.1423
16492TIP3    H170891   1.855   6.273  15.452 -0.8217  0.2856  2.3215
16492TIP3    H270892   1.773   6.398  15.433  0.6144  0.9306 -0.1588
16493TIP3   OH270893   5.554   5.599   1.564 -0.2241 -0.0607  0.1438
16493TIP3    H170894   5.560   5.657   1.639 -2.5236  1.2751 -0.6026
16493TIP3    H270895   5.497   5.528   1.593  0.1390 -0.3790  0.1002
16494TIP3   OH270896   4.030   5.444  15.854  0.2846 -0.3531  0.6705
16494TIP3    H170897   4.058   5.353  15.859 -0.0538 -0.6357 -1.5252
16494TIP3    H270898   4.087   5.482  15.787 -1.5616  0.2210 -0.6497
16495TIP3   OH270899   5.660   4.119  14.946  0.1242 -0.0944 -0.2263
16495TIP3    H170900   5.660   4.175  15.024 -1.2027 -0.5640  0.1433
16495TIP3    H270901   5.658   4.181  14.873  1.4081  0.3501  0.0908
16496TIP3   OH270902   0.465   1.990  13.013  0.1814 -0.0339 -0.0798
16496TIP3    H170903   0.452   1.905  12.971 -4.1215  0.4671 -0.2182
16496TIP3    H270904   0.487   2.048  12.941 -0.3627 -0.4329 -0.5851
16497TIP3   OH270905   2.663   4.091  11.062 -0.0615  0.9900  0.1343
16497TIP3    H170906   2.678   4.116  11.153 -0.1626 -0.2017  0.4889
16497TIP3    H270907   2.656   4.175  11.015  1.5993  1.6334  0.9471
16498TIP3   OH270908   5.476   4.500  12.327  0.2841  0.6584 -0.0478
16498TIP3    H170909   5.539   4.497  12.398  0.0854  1.2307  0.1615
16498TIP3    H270910   5.395   4.530  12.368 -0.1260 -0.0538 -0.3131
16499TIP3   OH270911   6.295   6.351   1.991  0.4895  0.2398  0.4006
16499TIP3    H170912   6.283   6.308   2.075  0.5605 -1.1177 -0.2569
16499TIP3    H270913   6.362   6.417   2.007 -0.4835  0.9539  1.7172
16500TIP3   OH270914   6.680   5.954   0.612  0.2555  0.2615 -0.1528
16500TIP3    H170915   6.744   6.021   0.634 -1.0188  1.0635  1.3089
16500TIP3    H270916   6.716   5.873   0.649 -0.0888  0.9162  1.7196
16501TIP3   OH270917   4.935   3.459   3.447  0.4112  0.1694  0.6152
16501TIP3    H170918   4.951   3.394   3.516 -1.5679  0.0988  1.0625
16501TIP3    H270919   4.991   3.533   3.470  0.7549 -0.3703  1.5574
16502TIP3   OH270920   4.678   1.834   2.485 -0.4397  0.2013  0.5131
16502TIP3    H170921   4.626   1.902   2.441 -0.5889  0.3575  0.9260
16502TIP3    H270922   4.636   1.824   2.571  0.1714  0.2790  0.8239
16503TIP3   OH270923   3.874   6.677  15.846 -0.0724  0.1251 -0.2888
16503TIP3    H170924   3.855   6.601  15.901 -1.5796  1.4699  1.1441
16503TIP3    H270925   3.840   6.653  15.760 -0.2479 -0.9295  0.0500
16504TIP3   OH270926   5.470   1.702  13.864 -0.1856  0.0040  0.5185
16504TIP3    H170927   5.397   1.648  13.894 -0.1846 -0.0655  0.3955
16504TIP3    H270928   5.511   1.650  13.794  0.5252 -0.3684  1.1969
16505TIP3   OH270929   4.412   0.475  16.775  0.0562 -0.3993  0.0064
16505TIP3    H170930   4.493   0.505  16.733 -0.0036  0.0895  0.2412
16505TIP3    H270931   4.380   0.551  16.823 -1.1633 -0.2170 -1.0279
16506TIP3   OH270932   4.336   2.641  14.058  0.2596 -0.3391 -0.1658
16506TIP3    H170933   4.332   2.548  14.035 -0.1882 -0.0087 -1.4970
16506TIP3    H270934   4.299   2.686  13.982  0.3256  0.9234  0.5276
16507TIP3   OH270935   0.318   4.283   3.534 -0.9615  0.1439  0.5877
16507TIP3    H170936   0.335   4.342   3.461 -1.5394  0.1907  0.4914
16507TIP3    H270937   0.293   4.341   3.606 -0.1750  0.1171  0.8970
16508TIP3   OH270938   1.102   4.884  15.591 -0.1821 -0.4015 -0.1967
16508TIP3    H170939   1.175   4.910  15.535  0.5794 -1.0339  0.4787
16508TIP3    H270940   1.026   4.928  15.553  0.8051  1.6398  0.0664
16509TIP3   OH270941   5.893   1.560  11.608  0.1601  0.4930 -0.1179
16509TIP3    H170942   5.838   1.579  11.532 -2.3914  2.1822  1.9802
16509TIP3    H270943   5.892   1.641  11.659  3.6039  0.1403  0.7240
16510TIP3   OH270944   0.852   6.155  12.219  0.3783  0.3043  0.3057
16510TIP3    H170945   0.798   6.177  12.295 -1.3715 -0.1166 -0.7567
16510TIP3    H270946   0.941   6.146  12.254 -0.1963  1.1867  2.0920
16511TIP3   OH270947   4.493   4.874  16.167 -0.1958  0.2837 -0.6626
16511TIP3    H170948   4.552   4.929  16.116 -0.3148  0.8499 -0.1950
16511TIP3    H270949   4.435   4.935  16.212  0.1899 -0.1755  0.4988
16512TIP3   OH270950   2.980   1.415  11.622 -0.2690 -0.3599  0.4840
16512TIP3    H170951   2.955   1.402  11.531  1.8632 -0.8291 -0.0979
16512TIP3    H270952   3.069   1.451  11.618 -0.7133  1.1510  2.3695
16513TIP3   OH270953   5.011   6.382  12.516 -0.4553  0.2371 -0.6741
16513TIP3    H170954   4.916   6.387  12.529 -0.3988  0.5288 -0.3544
16513TIP3    H270955   5.036   6.470  12.490 -0.3109  0.0896 -1.0334
16514TIP3   OH270956   4.909   3.278  11.283 -0.1356  0.1570  0.1886
16514TIP3    H170957   4.836   3.338  11.272  0.6751  1.0592 -0.3965
16514TIP3    H270958   4.957   3.312  11.359  0.7845  0.7631 -0.6384
16515TIP3   OH270959   4.313   0.216  17.073  0.4335 -0.4787 -0.0154
16515TIP3    H170960   4.305   0.123  17.050 -2.2432  0.0954 -1.9024
16515TIP3    H270961   4.229   0.237  17.114  1.1034  1.0709  0.6110
16516TIP3   OH270962   4.359   6.486  13.094 -0.3860 -0.0116  0.3324
16516TIP3    H170963   4.292   6.449  13.036 -0.1652 -0.8903  0.6326
16516TIP3    H270964   4.407   6.547  13.038 -0.2392 -0.7709 -0.4002
16517TIP3   OH270965   3.007   4.891   3.619 -0.6987 -0.1104  0.9036
16517TIP3    H170966   2.922   4.926   3.591 -0.3367  0.7753  0.8576
16517TIP3    H270967   3.030   4.942   3.697 -0.3962 -0.6239  1.1563
16518TIP3   OH270968   1.647   4.586  14.522 -0.1932 -0.0178 -0.3081
16518TIP3    H170969   1.735   4.591  14.483 -0.5553  0.7121 -1.0328
16518TIP3    H270970   1.664   4.577  14.616  0.6564  1.5542 -0.2819
16519TIP3   OH270971   6.101   0.050  16.336 -0.1608 -0.0089  0.3304
16519TIP3    H170972   6.094   0.039  16.241 -1.5051  0.1770  0.4018
16519TIP3    H270973   6.096   0.144  16.350 -0.5704 -0.0748  0.6319
16520TIP3   OH270974   6.384   2.689  11.265  0.3365 -0.0016 -0.3733
16520TIP3    H170975   6.429   2.605  11.268  2.4058  1.0729  0.5138
16520TIP3    H270976   6.429   2.738  11.196 -1.3523  0.1530 -1.4247
16521TIP3   OH270977   2.189   2.093  14.785  0.1871 -0.3537  0.5921
16521TIP3    H170978   2.258   2.046  14.832 -0.8898 -2.1537  0.4535
16521TIP3    H270979   2.138   2.135  14.854  0.5119 -0.2911  0.7984
16522TIP3   OH270980   5.698   1.410  15.302 -0.4459  0.0148  0.3639
16522TIP3    H170981   5.692   1.501  15.273 -1.7302  0.1745  1.0413
16522TIP3    H270982   5.746   1.415  15.385  1.8522 -0.2688 -0.8622
16523TIP3   OH270983   1.126   0.776  13.135  0.5483 -0.3110 -0.0938
16523TIP3    H170984   1.170   0.811  13.059 -0.5165 -0.3228 -0.7400
16523TIP3    H270985   1.045   0.827  13.142 -0.4722 -1.8068 -0.3671
16524TIP3   OH270986   3.129   6.577  15.152 -0.0062  0.1165  0.0155
16524TIP3    H170987   3.135   6.568  15.057  1.3742 -0.5745  0.1434
16524TIP3    H270988   3.127   6.672  15.167 -0.0002  0.2325 -0.7030
16525TIP3   OH270989   6.403   5.384  12.532 -0.3612  0.4015  0.2091
16525TIP3    H170990   6.487   5.431  12.526  0.5160 -1.0753  0.3861
16525TIP3    H270991   6.382   5.363  12.442 -0.5216  0.7259  0.1687
16526TIP3   OH270992   4.118   5.554  13.757  0.4088 -0.4492  0.8261
16526TIP3    H170993   4.104   5.636  13.710  2.1753 -0.1020  0.8477
16526TIP3    H270994   4.191   5.512  13.712  0.2700 -1.4838  1.5181
16527TIP3   OH270995   6.542   1.564   5.346 -0.1071  0.1177 -0.1684
16527TIP3    H170996   6.608   1.629   5.370 -0.5326  0.2322  0.7206
16527TIP3    H270997   6.459   1.610   5.354 -0.3184 -0.0535 -1.1917
16528TIP3   OH270998   4.794   4.232  13.313  0.7106  0.1759  0.0942
16528TIP3    H170999   4.754   4.259  13.231  0.9483 -0.8418 -0.3821
16528TIP3    H271000   4.855   4.302  13.335  1.1414  0.1519 -0.9626
16529TIP3   OH271001   0.318   6.030   0.059 -0.6522 -0.2778 -0.6336
16529TIP3    H171002   0.324   6.117   0.020  0.0383 -0.7690 -1.6487
16529TIP3    H271003   0.352   6.041   0.148  2.1678 -0.0598 -1.6588
16530TIP3   OH271004   5.230   1.671   2.729 -0.5960 -0.1053  0.0269
16530TIP3    H171005   5.310   1.716   2.755 -1.3443  2.2024 -1.4284
16530TIP3    H271006   5.159   1.731   2.754 -1.6255 -0.2795 -2.2622
16531TIP3   OH271007   4.314   0.694   4.944  0.4333  0.1340 -0.3339
16531TIP3    H171008   4.297   0.786   4.925 -4.5474 -0.2001  1.0030
16531TIP3    H271009   4.262   0.646   4.879  1.5011 -1.7149  0.1057
16532TIP3   OH271010   3.297   2.948   2.332 -0.1656 -0.3889 -0.0025
16532TIP3    H171011   3.373   2.943   2.274  0.6044 -0.7582  1.0088
16532TIP3    H271012   3.223   2.924   2.276  0.4898 -0.3006 -0.9392
16533TIP3   OH271013   1.355   6.670  13.058 -0.1372  0.2000 -0.3482
16533TIP3    H171014   1.409   6.699  13.131 -0.5744  1.5535 -0.5457
16533TIP3    H271015   1.306   6.747  13.031 -1.1022 -0.6418 -1.1126
16534TIP3   OH271016   4.007   4.382  15.941 -0.4620 -0.6901  0.0354
16534TIP3    H171017   3.979   4.365  15.851 -0.6439 -1.7482  0.2752
16534TIP3    H271018   4.026   4.295  15.977 -0.5011 -0.2899  1.0561
16535TIP3   OH271019   4.903   5.211  11.554  1.1153 -0.0284  0.0959
16535TIP3    H171020   4.840   5.166  11.611 -0.2754  1.8077  0.1113
16535TIP3    H271021   4.852   5.281  11.513  2.6963  0.2717 -1.4834
16536TIP3   OH271022   4.643   4.479  12.830 -0.9862  0.7141  0.4455
16536TIP3    H171023   4.598   4.396  12.845  0.8577 -0.4454 -0.1792
16536TIP3    H271024   4.666   4.478  12.737  0.5867  1.1081  0.7951
16537TIP3   OH271025   1.494   5.358  11.993 -0.0348  0.3062 -0.5490
16537TIP3    H171026   1.494   5.453  11.979  0.4323  0.0493 -2.5049
16537TIP3    H271027   1.401   5.333  11.986 -0.2554  0.6727  0.7022
16538TIP3   OH271028   3.439   1.767  13.815  0.4834 -0.8053  0.8139
16538TIP3    H171029   3.464   1.821  13.740  0.3765 -0.7108  0.8457
16538TIP3    H271030   3.464   1.678  13.790 -0.6425 -0.9597  0.1589
16539TIP3   OH271031   2.679   1.244  12.258  0.4448  0.1659 -0.2314
16539TIP3    H171032   2.700   1.229  12.350 -0.6050  1.1102  0.1846
16539TIP3    H271033   2.761   1.273  12.219  1.0227 -0.7240  0.2811
16540TIP3   OH271034   2.041   4.850   0.197 -0.3287  0.3128  0.0083
16540TIP3    H171035   2.016   4.803   0.118  0.7243  0.2258 -0.2879
16540TIP3    H271036   1.961   4.852   0.250 -0.3355 -2.1989  0.2330
16541TIP3   OH271037   0.617   5.606   0.829 -0.1091  0.4124  0.7939
16541TIP3    H171038   0.684   5.644   0.771  1.1989  1.1805  2.7056
16541TIP3    H271039   0.539   5.660   0.814 -0.4256 -0.5741 -1.5675
16542TIP3   OH271040   2.415   1.514  16.831 -0.3127 -0.3246 -0.1373
16542TIP3    H171041   2.320   1.507  16.840 -0.0571 -1.9956  2.3205
16542TIP3    H271042   2.434   1.606  16.849 -1.4604 -0.0076 -0.4689
16543TIP3   OH271043   1.773   2.323   1.181  0.2271  0.2903 -0.2521
16543TIP3    H171044   1.788   2.376   1.103  0.0133  0.8332  0.0764
16543TIP3    H271045   1.691   2.355   1.217  0.2749 -0.0275  0.1412
16544TIP3   OH271046   1.409   2.436  13.078 -0.0148 -0.2447 -0.5180
16544TIP3    H171047   1.382   2.386  13.154  4.3278 -1.3742  0.5573
16544TIP3    H271048   1.473   2.500  13.112 -0.9432  2.0376 -2.7060
16545TIP3   OH271049   5.416   2.891  16.986 -0.7036  1.0507  0.2615
16545TIP3    H171050   5.381   2.962  17.040 -2.0775  1.1170 -0.6489
16545TIP3    H271051   5.460   2.936  16.913  2.1139  0.9874  1.7795
16546TIP3   OH271052   2.808   1.729  11.687  0.5516 -0.2337 -0.3937
16546TIP3    H171053   2.765   1.712  11.603 -0.9571 -0.1124  0.3325
16546TIP3    H271054   2.786   1.820  11.707  3.1984  0.6656 -1.1453
16547TIP3   OH271055   1.852   5.978  11.888 -0.4679 -1.0404  0.4489
16547TIP3    H171056   1.828   6.057  11.840 -0.8612 -2.4959 -1.8871
16547TIP3    H271057   1.947   5.984  11.899 -0.6097  0.2001  1.2272
16548TIP3   OH271058   1.898   1.802   5.892  0.1509  0.3312 -0.2879
16548TIP3    H171059   1.915   1.708   5.897 -3.0543 -0.3431  0.5080
16548TIP3    H271060   1.922   1.835   5.978  0.1113 -0.0379 -0.1306
16549TIP3   OH271061   5.727   0.494  12.160  0.1548 -0.4926  0.1436
16549TIP3    H171062   5.700   0.404  12.144 -0.0199 -0.2113 -1.2995
16549TIP3    H271063   5.780   0.517  12.084 -0.9891  1.0711 -0.2399
16550TIP3   OH271064   2.967   1.494   3.656  0.2909 -0.7475  0.9888
16550TIP3    H171065   3.016   1.439   3.595 -1.2670 -2.6190  1.3298
16550TIP3    H271066   2.997   1.466   3.743 -0.7453 -1.2964  1.1767
16551TIP3   OH271067   1.655   3.271   3.043 -0.1305 -0.1215 -0.1132
16551TIP3    H171068   1.565   3.305   3.050  0.0104  0.1399  0.5051
16551TIP3    H271069   1.645   3.176   3.047 -0.5126 -0.1732 -1.6728
16552TIP3   OH271070   3.416   1.832  16.804  0.1435  0.1643  0.0231
16552TIP3    H171071   3.337   1.794  16.765  0.6234 -2.1017  1.0918
16552TIP3    H271072   3.401   1.830  16.898  0.4854  2.0996  0.1514
16553TIP3   OH271073   5.875   2.296  10.237  0.3710 -0.6976 -0.4221
16553TIP3    H171074   5.922   2.379  10.232  0.5655 -0.7659  0.1785
16553TIP3    H271075   5.902   2.248  10.158 -1.1766  0.5344 -1.7505
16554TIP3   OH271076   2.431   4.229  15.417 -0.1497  0.0114  0.3634
16554TIP3    H171077   2.388   4.145  15.399 -2.0542  1.3520 -2.1479
16554TIP3    H271078   2.449   4.228  15.511 -0.9913 -2.7881  0.5778
16555TIP3   OH271079   0.319   4.013  16.602 -0.1691 -0.5128  0.3565
16555TIP3    H171080   0.402   4.011  16.556  0.6318 -1.8855  1.7785
16555TIP3    H271081   0.253   4.018  16.533  1.0723  1.6070 -0.7641
16556TIP3   OH271082   6.484   4.596  14.677 -0.1848  0.8365 -0.0785
16556TIP3    H171083   6.478   4.691  14.684 -0.8698  0.6883  2.8226
16556TIP3    H271084   6.434   4.563  14.752  0.0483 -1.8283 -0.9702
16557TIP3   OH271085   0.281   6.409   2.779 -0.1102  0.4134  0.2100
16557TIP3    H171086   0.293   6.324   2.822 -1.5836  1.3149  2.5789
16557TIP3    H271087   0.302   6.473   2.847 -1.4534  1.9496 -0.7694
16558TIP3   OH271088   2.247   5.051   4.532 -0.0570  0.2486  0.2564
16558TIP3    H171089   2.160   5.031   4.499 -0.9940  1.0665  2.1098
16558TIP3    H271090   2.233   5.086   4.620  2.0772  1.1964  0.2956
16559TIP3   OH271091   6.237   0.672  11.201  0.1912 -0.4295 -0.3005
16559TIP3    H171092   6.321   0.714  11.218 -0.0174  0.7796 -1.9615
16559TIP3    H271093   6.193   0.671  11.286  1.9086 -1.2050  0.6250
16560TIP3   OH271094   3.576   3.838   2.347  0.2377 -0.2496  0.2164
16560TIP3    H171095   3.536   3.922   2.371  1.6705  1.1105 -1.8058
16560TIP3    H271096   3.661   3.862   2.310  1.4199 -2.7612  1.0935
16561TIP3   OH271097   4.749   3.489  12.163 -0.9500  0.4748 -0.5855
16561TIP3    H171098   4.803   3.556  12.203 -0.6378 -0.1018 -0.0210
16561TIP3    H271099   4.719   3.528  12.081 -0.6030  1.2169 -0.3684
16562TIP3   OH271100   6.568   5.420   3.039  0.0273  0.1535 -0.0336
16562TIP3    H171101   6.594   5.479   2.969  0.4668  0.8428  0.6924
16562TIP3    H271102   6.486   5.457   3.073 -0.1968 -0.1911 -0.1893
16563TIP3   OH271103   0.525   5.721   2.956  0.0309  0.5801  0.1441
16563TIP3    H171104   0.614   5.747   2.980 -0.0640 -0.3193  1.5894
16563TIP3    H271105   0.536   5.637   2.912 -0.0692  0.7365 -0.1857
16564TIP3   OH271106   4.067   6.111  15.748 -0.0109 -0.5914 -0.0930
16564TIP3    H171107   4.135   6.161  15.703 -1.8937  1.3203 -0.9777
16564TIP3    H271108   4.043   6.043  15.686  1.3503 -1.5746  0.4065
16565TIP3   OH271109   1.385   1.673  11.684  0.7729  0.4564 -0.2183
16565TIP3    H171110   1.366   1.595  11.633 -0.3877  0.6894 -0.1665
16565TIP3    H271111   1.402   1.741  11.618  1.1337  0.3112 -0.2725
16566TIP3   OH271112   5.021   1.821   2.150 -0.1322 -0.2778  0.2774
16566TIP3    H171113   4.998   1.805   2.242  0.4529  1.7986  0.8402
16566TIP3    H271114   5.078   1.898   2.153  1.0619 -1.0121 -1.7152
16567TIP3   OH271115   3.738   3.234  17.063 -0.1790 -0.3173  0.4589
16567TIP3    H171116   3.652   3.220  17.102 -0.1969  0.6069  0.7602
16567TIP3    H271117   3.799   3.194  17.125 -0.3814 -0.8842  0.2944
16568TIP3   OH271118   2.594   4.651  16.251  0.0303 -0.4994 -0.5192
16568TIP3    H171119   2.517   4.663  16.195 -1.2720  1.1771  1.4724
16568TIP3    H271120   2.567   4.687  16.336  3.0599  0.1904  0.2488
16569TIP3   OH271121   4.958   5.338  12.534 -0.4745  0.0306  0.4300
16569TIP3    H171122   4.958   5.360  12.627  0.1587 -1.7409  0.8871
16569TIP3    H271123   4.913   5.254  12.529  0.8650 -0.6731 -0.6234
16570TIP3   OH271124   4.110   1.722   2.721 -0.0704  0.1465 -0.0934
16570TIP3    H171125   4.173   1.761   2.782  0.0645  2.5255 -1.6077
16570TIP3    H271126   4.028   1.719   2.771  0.8090 -1.5255  1.3825
16571TIP3   OH271127   0.898   4.949  12.823  0.4589  0.2143  0.6374
16571TIP3    H171128   0.923   5.027  12.873  1.3070  0.3972 -0.0384
16571TIP3    H271129   0.939   4.876  12.869  3.7857  0.6561 -1.3312
16572TIP3   OH271130   3.793   3.600   1.601 -0.3480 -0.2107 -0.4511
16572TIP3    H171131   3.864   3.660   1.576  0.5464 -0.4923  1.2536
16572TIP3    H271132   3.812   3.578   1.692 -3.4597  0.8671  0.5764
16573TIP3   OH271133   2.726   5.700  12.249  0.4824  0.1396 -0.2934
16573TIP3    H171134   2.797   5.666  12.195  0.7902 -0.1076  0.2641
16573TIP3    H271135   2.663   5.628  12.254  2.1302 -1.2646  2.7208
16574TIP3   OH271136   2.518   1.130  13.022 -1.0476  0.2169  0.0215
16574TIP3    H171137   2.506   1.156  12.930  2.0555  0.4844 -0.4195
16574TIP3    H271138   2.516   1.034  13.019  3.1856 -0.0825 -1.2883
16575TIP3   OH271139   1.009   1.229  16.701  0.3364 -0.2527  0.2224
16575TIP3    H171140   1.004   1.300  16.765  0.6992  0.5712 -0.6295
16575TIP3    H271141   1.099   1.197  16.708  1.1524  1.4540 -1.4914
16576TIP3   OH271142   1.928   5.875  12.759  0.0234  0.2395 -0.3663
16576TIP3    H171143   1.933   5.960  12.802 -1.1480  0.2669 -0.2731
16576TIP3    H271144   2.020   5.847  12.752  0.3215  0.6620  1.3072
16577TIP3   OH271145   3.498   0.653  16.420 -0.5270 -0.5070  0.0414
16577TIP3    H171146   3.573   0.605  16.387 -0.1829  1.0352 -1.5904
16577TIP3    H271147   3.431   0.586  16.436  0.4506 -1.6657 -0.6047
16578TIP3   OH271148   6.639   1.771   4.087 -0.9712 -0.1393  0.0386
16578TIP3    H171149   6.595   1.754   4.170 -0.9492 -1.1436 -0.1476
16578TIP3    H271150   6.583   1.833   4.042 -1.5522 -0.4425  0.3387
16579TIP3   OH271151   0.238   5.261   1.435 -0.4272 -0.0308 -0.3095
16579TIP3    H171152   0.316   5.271   1.490 -0.8518  0.9243  0.1328
16579TIP3    H271153   0.179   5.206   1.487  0.6205 -2.3184 -1.3906
16580TIP3   OH271154   6.729   2.057   2.957 -0.6663  0.4075 -0.4368
16580TIP3    H171155   6.816   2.018   2.960 -0.6177  0.3531 -1.8236
16580TIP3    H271156   6.669   1.985   2.974 -0.4538  0.4793  0.6978
16581TIP3   OH271157   4.453   5.147  14.426  0.2167 -0.5998  0.2617
16581TIP3    H171158   4.372   5.144  14.374 -0.3612  0.2263  1.0901
16581TIP3    H271159   4.440   5.220  14.486  1.1067 -1.1890  1.1927
16582TIP3   OH271160   6.032   4.066   3.994 -0.0021 -0.0393 -0.1109
16582TIP3    H171161   6.046   4.141   3.936  0.5982 -1.2620 -1.5673
16582TIP3    H271162   5.993   3.999   3.939  0.5497 -1.2324  0.9086
16583TIP3   OH271163   4.700   0.974  12.826  0.5036  0.6871  0.0433
16583TIP3    H171164   4.787   0.992  12.862  0.4496  2.0220 -0.4200
16583TIP3    H271165   4.649   0.943  12.901  2.0427 -2.8583 -0.1830
16584TIP3   OH271166   3.898   4.165  15.675 -0.5601 -0.1962  0.6112
16584TIP3    H171167   3.911   4.259  15.668  2.9115 -0.3809  2.2405
16584TIP3    H271168   3.812   4.155  15.716 -1.1226  2.2143  0.1677
16585TIP3   OH271169   2.238   1.641  10.930  0.1051  0.4301  0.4249
16585TIP3    H171170   2.307   1.691  10.887 -0.6458  0.0259 -1.3877
16585TIP3    H271171   2.157   1.674  10.890 -0.4393 -1.8389 -0.5060
16586TIP3   OH271172   3.085   5.128   3.255 -0.1217 -1.1334 -0.0387
16586TIP3    H171173   3.053   5.176   3.330  0.3659  1.0727 -1.1593
16586TIP3    H271174   3.176   5.108   3.276 -0.2773 -1.4355  0.3604
16587TIP3   OH271175   2.115   5.234   2.094  1.0577  0.3390 -0.2632
16587TIP3    H171176   2.068   5.247   2.011  0.6678 -0.4196 -0.1675
16587TIP3    H271177   2.138   5.322   2.122 -1.4290  0.8632  0.3437
16588TIP3   OH271178   6.382   6.359   3.333  0.2944  0.0555 -0.1602
16588TIP3    H171179   6.366   6.450   3.358  0.9140 -0.2242  1.3283
16588TIP3    H271180   6.353   6.308   3.408  2.4511 -0.8046  0.1432
16589TIP3   OH271181   3.382   0.702   2.462  0.2248 -0.0536 -0.7110
16589TIP3    H171182   3.467   0.740   2.442  1.6374 -2.9913 -0.8642
16589TIP3    H271183   3.353   0.748   2.541  1.9201  1.0305 -0.6730
16590TIP3   OH271184   2.799   3.895   5.998  0.8247  0.2723  0.2333
16590TIP3    H171185   2.802   3.883   6.093  1.5351  1.5725  0.3911
16590TIP3    H271186   2.754   3.816   5.965 -1.1349  0.6605  1.7979
16591TIP3   OH271187   4.652   3.094   1.387  0.4508  0.1389  0.1750
16591TIP3    H171188   4.629   3.159   1.454 -0.4609  0.4672 -0.4396
16591TIP3    H271189   4.688   3.145   1.315 -0.9057  0.0711 -0.5904
16592TIP3   OH271190   3.293   4.779   2.194 -0.1235 -0.5074  0.4743
16592TIP3    H171191   3.294   4.829   2.276 -1.2442 -2.6773  1.8958
16592TIP3    H271192   3.385   4.771   2.170  0.1004  2.7193 -0.2003
16593TIP3   OH271193   0.787   5.104   1.490  0.1239  0.3744  0.3352
16593TIP3    H171194   0.791   5.199   1.478 -0.3188  0.3828  0.2624
16593TIP3    H271195   0.696   5.081   1.474  0.0966  0.0163  0.9917
16594TIP3   OH271196   1.635   2.630   0.692 -0.0934 -0.1227 -0.1696
16594TIP3    H171197   1.562   2.675   0.734 -1.3021 -2.1925  0.0632
16594TIP3    H271198   1.709   2.644   0.751 -0.7518  0.4537  0.5390
16595TIP3   OH271199   1.784   4.852  10.799  0.2507  0.7797 -0.0162
16595TIP3    H171200   1.722   4.805  10.854 -1.1141  1.1503 -1.1767
16595TIP3    H271201   1.837   4.784  10.758 -0.1812  0.3787  0.0851
16596TIP3   OH271202   1.024   6.446   5.622  0.4068 -0.0175  0.0909
16596TIP3    H171203   1.043   6.369   5.569  0.0048  0.3941 -0.6670
16596TIP3    H271204   1.110   6.486   5.638  0.4033  0.8355 -1.7833
16597TIP3   OH271205   0.380   4.951  11.797  0.3451 -0.2562 -0.5918
16597TIP3    H171206   0.470   4.981  11.811  0.4641 -0.8930  0.0455
16597TIP3    H271207   0.387   4.856  11.791 -0.2091 -0.2673 -1.2046
16598TIP3   OH271208   4.678   0.388  15.647  0.5144 -0.2383  0.2401
16598TIP3    H171209   4.702   0.302  15.612  0.4897  0.4678 -1.6627
16598TIP3    H271210   4.693   0.381  15.741  2.7512 -1.6067 -0.1362
16599TIP3   OH271211   2.480   3.394  12.504 -0.1158 -0.0944 -0.2657
16599TIP3    H171212   2.491   3.472  12.559 -1.8064 -0.7778  1.1168
16599TIP3    H271213   2.569   3.359  12.496  0.2855  0.3588  1.5882
16600TIP3   OH271214   2.045   2.084  15.407 -0.3788 -0.0742  0.0952
16600TIP3    H171215   2.029   2.104  15.499  0.1130  1.5860 -0.1440
16600TIP3    H271216   2.126   2.032  15.408 -0.5683 -0.3762  0.6065
16601TIP3   OH271217   4.218   2.069   5.899 -0.3243 -0.1082 -0.3234
16601TIP3    H171218   4.257   2.011   5.834  0.1000  1.4087 -1.4848
16601TIP3    H271219   4.159   2.125   5.849 -0.5829  0.5875  0.7183
16602TIP3   OH271220   0.939   1.615   1.722 -0.4071  0.5276  0.0809
16602TIP3    H171221   0.896   1.589   1.804  0.2296  1.7041  0.8031
16602TIP3    H271222   1.032   1.614   1.742 -0.1428 -0.6237 -1.0795
16603TIP3   OH271223   6.318   3.057   0.216 -0.2140  0.2215 -0.6270
16603TIP3    H171224   6.248   2.991   0.212 -0.4033  0.4055 -0.4314
16603TIP3    H271225   6.364   3.037   0.297  0.4136 -0.3444 -1.1155
16604TIP3   OH271226   1.784   6.591  15.818  0.1574 -0.3346  0.1684
16604TIP3    H171227   1.821   6.507  15.843  0.9037 -0.3633 -0.9576
16604TIP3    H271228   1.694   6.589  15.851  0.8196 -0.6727  2.0743
16605TIP3   OH271229   6.779   4.729  16.723 -0.0936 -0.1762 -0.4510
16605TIP3    H171230   6.788   4.822  16.703  0.0662 -0.1703 -0.3557
16605TIP3    H271231   6.835   4.684  16.659 -0.3283 -0.2202 -0.6270
16606TIP3   OH271232   4.068   0.840   3.907 -0.4125 -0.0084 -0.2401
16606TIP3    H171233   4.156   0.851   3.941  0.0236 -2.4959 -0.3817
16606TIP3    H271234   4.078   0.842   3.812 -0.5298 -0.0733 -0.2543
16607TIP3   OH271235   1.790   3.419   4.080  0.3319  0.2763 -0.0149
16607TIP3    H171236   1.873   3.419   4.128  1.2379  0.7141 -1.5066
16607TIP3    H271237   1.813   3.453   3.993 -1.0661 -1.2164 -1.0277
16608TIP3   OH271238   0.710   2.514   1.988  0.0370 -0.8090 -0.0480
16608TIP3    H171239   0.635   2.507   1.928  1.2488  0.1320 -1.7685
16608TIP3    H271240   0.786   2.500   1.932  1.2348  0.3581  1.2301
16609TIP3   OH271241   1.370   2.923  14.360  0.1125 -0.0018  0.0715
16609TIP3    H171242   1.289   2.874  14.373  1.0472 -1.1851  1.7883
16609TIP3    H271243   1.343   3.015  14.366 -0.9686 -0.3889  1.6751
16610TIP3   OH271244   6.766   0.898  16.078 -0.5575  0.2703 -0.0126
16610TIP3    H171245   6.853   0.938  16.082 -1.0589  1.4065 -0.0375
16610TIP3    H271246   6.750   0.884  15.985  1.1771 -3.6623  0.0701
16611TIP3   OH271247   0.128   1.915   2.292  0.4020 -0.7313 -0.0875
16611TIP3    H171248   0.137   1.928   2.386  1.6083 -0.2443 -0.2600
16611TIP3    H271249   0.101   2.000   2.258  1.3504 -0.5215 -0.3437
16612TIP3   OH271250   2.463   2.239   0.350 -0.2034  0.5391  0.2840
16612TIP3    H171251   2.445   2.327   0.316 -1.1349  0.1411 -0.2871
16612TIP3    H271252   2.551   2.245   0.387 -0.4818  1.8689  0.7881
16613TIP3   OH271253   1.665   2.905   6.462  0.3939 -0.2066  0.6332
16613TIP3    H171254   1.702   2.818   6.449 -0.5320 -0.6078  0.5582
16613TIP3    H271255   1.573   2.896   6.435  0.6376  1.1723 -0.7984
16614TIP3   OH271256   6.589   3.653   2.805 -0.0610 -0.7820  0.0644
16614TIP3    H171257   6.525   3.714   2.768  1.8883  0.0957 -2.1238
16614TIP3    H271258   6.547   3.620   2.885 -2.5443  0.9165 -0.4072
16615TIP3   OH271259   0.659   0.404   6.190  0.1365 -0.2289  0.0832
16615TIP3    H171260   0.683   0.452   6.269 -0.7386  0.9260 -0.3240
16615TIP3    H271261   0.574   0.439   6.165  0.5539 -0.2961 -1.5811
16616TIP3   OH271262   4.762   4.844  15.549  0.5478 -0.0999  0.1547
16616TIP3    H171263   4.666   4.847  15.550  0.4674 -1.6625 -0.7176
16616TIP3    H271264   4.785   4.836  15.457  1.4090 -1.9335  0.4967
16617TIP3   OH271265   0.073   5.587  11.086  0.7509  0.1905  0.1393
16617TIP3    H171266   0.052   5.680  11.089 -0.9701 -0.1661  2.4859
16617TIP3    H271267   0.151   5.578  11.140 -0.1450  0.0979  1.4632
16618TIP3   OH271268   5.190   1.092   0.021  0.5292 -0.3041 -0.2394
16618TIP3    H171269   5.195   1.070   0.114  3.3708  1.1911  0.0619
16618TIP3    H271270   5.245   1.026  -0.022  2.4204  1.2117 -0.2945
16619TIP3   OH271271   5.066   2.640  12.523 -0.3736 -0.0402  0.1963
16619TIP3    H171272   5.116   2.711  12.563  0.7167 -1.9016  2.4486
16619TIP3    H271273   5.112   2.622  12.441 -0.5113  1.6390 -0.2739
16620TIP3   OH271274   0.927   1.808  16.915  0.5045  0.4844 -0.9087
16620TIP3    H171275   0.935   1.737  16.852  1.4768  2.0220 -2.6429
16620TIP3    H271276   1.005   1.861  16.901  1.1000  0.5706  2.1093
16621TIP3   OH271277   5.002   5.317   6.416 -0.2663  0.4723 -0.2396
16621TIP3    H171278   5.089   5.292   6.385  0.0935 -0.1823  1.2412
16621TIP3    H271279   5.013   5.338   6.508 -2.0469 -1.9051  0.6384
16622TIP3   OH271280   6.121   1.286   0.743  0.0233  0.0635 -0.4869
16622TIP3    H171281   6.046   1.239   0.781  2.2099 -2.1851  1.4128
16622TIP3    H271282   6.153   1.342   0.813  0.1441  1.0573 -1.3051
16623TIP3   OH271283   5.495   4.476   4.879  0.1836 -0.3384 -0.0552
16623TIP3    H171284   5.402   4.468   4.903 -0.6217 -0.4675 -2.8100
16623TIP3    H271285   5.537   4.399   4.916 -0.9355 -0.6284  0.6634
16624TIP3   OH271286   6.683   3.420   3.683 -1.1108 -0.0037 -0.5941
16624TIP3    H171287   6.613   3.480   3.707 -1.1337  0.1778 -1.1075
16624TIP3    H271288   6.728   3.463   3.610 -0.5888 -0.2082 -0.4001
16625TIP3   OH271289   6.132   1.082   3.348 -0.0731 -0.3070 -0.5374
16625TIP3    H171290   6.157   0.996   3.382  0.0188 -0.1012 -0.0711
16625TIP3    H271291   6.174   1.087   3.262  0.3022 -0.5477 -0.3742
16626TIP3   OH271292   3.861   1.915  11.869 -0.2229  0.3762 -0.3083
16626TIP3    H171293   3.847   1.867  11.951  2.3323  1.0233  0.6001
16626TIP3    H271294   3.851   2.007  11.894  1.6500  0.6412 -0.4112
16627TIP3   OH271295   3.910   0.194  14.875 -0.1239  0.6310  0.4521
16627TIP3    H171296   3.867   0.122  14.921  0.0905  0.1096 -0.1619
16627TIP3    H271297   3.982   0.153  14.827 -0.4535  1.1489 -0.4955
16628TIP3   OH271298   4.867   0.488   0.684 -0.3942 -0.3443 -0.7134
16628TIP3    H171299   4.806   0.464   0.753  0.3321 -0.2403 -0.0328
16628TIP3    H271300   4.827   0.453   0.604 -1.7918  0.4965 -0.4122
16629TIP3   OH271301   2.047   5.164  10.574 -0.7667  0.1207  0.1721
16629TIP3    H171302   2.138   5.187  10.592 -1.0137  0.6204  0.8457
16629TIP3    H271303   2.052   5.083  10.523  0.0891  0.9592 -1.1311
16630TIP3   OH271304   1.623   2.406   2.953  0.1526 -0.4658  0.4166
16630TIP3    H171305   1.702   2.425   2.903  0.7690 -0.9191  1.2011
16630TIP3    H271306   1.551   2.432   2.894  0.8379 -1.2421 -0.8180
16631TIP3   OH271307   2.599   5.904   3.750 -0.3115  0.6136 -0.2000
16631TIP3    H171308   2.590   5.836   3.817 -1.9099 -0.5456 -1.4966
16631TIP3    H271309   2.629   5.857   3.672 -1.4739  1.3763 -1.1338
16632TIP3   OH271310   2.044   5.643  14.017  0.5966 -0.1433  0.2476
16632TIP3    H171311   1.972   5.581  14.006 -0.4912  1.1433 -0.0590
16632TIP3    H271312   2.084   5.618  14.101 -0.0536 -1.0080  0.3105
16633TIP3   OH271313   0.211   5.771  15.484 -0.2864 -0.3409 -0.1722
16633TIP3    H171314   0.233   5.855  15.524 -0.0880  0.0647 -1.0999
16633TIP3    H271315   0.154   5.794  15.410 -1.5255 -1.1480  0.5022
16634TIP3   OH271316   1.280   5.714   1.069  0.0574  0.5746  0.0818
16634TIP3    H171317   1.259   5.621   1.062  1.5488  0.3248 -2.1423
16634TIP3    H271318   1.313   5.724   1.159 -0.8083 -0.8633  0.5970
16635TIP3   OH271319   1.088   1.377  13.541  0.6058  0.3359  0.6031
16635TIP3    H171320   1.123   1.454  13.585  2.1960  0.2710 -0.4469
16635TIP3    H271321   1.164   1.323  13.523 -0.4578 -1.4543  1.1919
16636TIP3   OH271322   0.538   5.778   4.398 -0.1060  0.0643 -0.1588
16636TIP3    H171323   0.465   5.821   4.443  0.6345 -1.4107  2.7110
16636TIP3    H271324   0.497   5.704   4.353 -0.4703 -0.6151  1.2337
16637TIP3   OH271325   1.970   1.939  15.886  0.4277 -0.3382  0.0464
16637TIP3    H171326   2.011   2.009  15.836 -1.5499  0.3768 -0.6980
16637TIP3    H271327   1.936   1.878  15.820 -1.9289  0.4455  0.4275
16638TIP3   OH271328   3.609   6.333   1.729  0.0632 -0.3988  0.1682
16638TIP3    H171329   3.676   6.372   1.784 -0.5259 -0.0916  0.6707
16638TIP3    H271330   3.559   6.277   1.788 -0.5241 -0.1264 -0.0710
16639TIP3   OH271331   5.871   0.112   4.875  0.1431 -0.5106 -0.1226
16639TIP3    H171332   5.951   0.075   4.838  0.6413  1.7201 -1.4174
16639TIP3    H271333   5.879   0.206   4.862 -2.4281 -0.1568  0.2698
16640TIP3   OH271334   6.169   4.491   0.563 -0.1357 -0.3644 -0.8372
16640TIP3    H171335   6.103   4.530   0.620  1.0231  0.3011  0.1018
16640TIP3    H271336   6.242   4.470   0.622  0.0483 -2.2039 -1.6331
16641TIP3   OH271337   5.389   0.795   4.058  0.3583 -0.0203 -0.1831
16641TIP3    H171338   5.457   0.862   4.064  0.5684 -0.2284 -0.2239
16641TIP3    H271339   5.361   0.798   3.966 -1.4448  1.7800  0.3467
16642TIP3   OH271340   5.292   3.278   0.551  0.2490 -0.0543  0.5766
16642TIP3    H171341   5.207   3.260   0.509  0.6758 -0.8079  0.0109
16642TIP3    H271342   5.311   3.199   0.601  1.6007 -0.7967 -1.0087
16643TIP3   OH271343   0.632   1.464   3.918  0.6917 -0.2837 -0.3072
16643TIP3    H171344   0.639   1.488   4.010 -3.2997  0.5922 -0.0710
16643TIP3    H271345   0.654   1.544   3.870 -0.3802  0.2398  0.0468
16644TIP3   OH271346   3.077   3.814  10.705  0.0180  0.6462  0.1360
16644TIP3    H171347   3.001   3.772  10.665 -0.7595  1.4065  0.7944
16644TIP3    H271348   3.126   3.849  10.630 -0.7722  0.9711 -0.2470
16645TIP3   OH271349   4.962   6.642   2.678  0.2151 -0.2252 -0.5090
16645TIP3    H171350   5.012   6.567   2.647 -0.7316 -1.2703  0.3947
16645TIP3    H271351   4.912   6.672   2.601  1.3851  0.1626 -1.1362
16646TIP3   OH271352   0.783   5.686  15.428  0.2684  0.0881 -0.3881
16646TIP3    H171353   0.875   5.690  15.402  0.2067  2.0557 -0.4670
16646TIP3    H271354   0.779   5.734  15.511 -0.7645  0.4940 -0.6581
16647TIP3   OH271355   0.320   5.906   2.889 -0.4322  0.2573  0.0651
16647TIP3    H171356   0.253   5.847   2.853 -0.0279 -1.0012  1.2494
16647TIP3    H271357   0.394   5.848   2.909 -0.4160  0.9667  2.2850
16648TIP3   OH271358   5.675   0.080   6.201  0.2623 -0.1921  0.1271
16648TIP3    H171359   5.663  -0.014   6.208 -2.1931 -0.0548 -1.3413
16648TIP3    H271360   5.740   0.091   6.131 -0.5407 -0.7821 -0.7264
16649TIP3   OH271361   0.601   3.083   4.074  0.1342  0.3772  0.2843
16649TIP3    H171362   0.550   3.141   4.132 -0.2946 -0.7686  1.1017
16649TIP3    H271363   0.682   3.066   4.123 -1.2659 -2.6104  1.8181
16650TIP3   OH271364   4.374   2.784  13.531 -0.0369  0.5214  0.1659
16650TIP3    H171365   4.283   2.787  13.502  0.3609  1.6301 -1.0670
16650TIP3    H271366   4.419   2.733  13.464  0.7299  2.3377 -0.7819
16651TIP3   OH271367   3.676   6.544   1.478 -0.2370 -0.3747  0.2143
16651TIP3    H171368   3.686   6.463   1.529  0.1410 -0.9075 -0.6754
16651TIP3    H271369   3.729   6.528   1.399 -1.2927  0.1889 -0.6216
16652TIP3   OH271370   2.483   0.581  14.482  0.2268  0.2470 -0.1671
16652TIP3    H171371   2.438   0.649  14.432  3.5430  1.2187 -2.1587
16652TIP3    H271372   2.466   0.500  14.434 -3.1499 -0.4071  1.8206
16653TIP3   OH271373   1.747   0.844  13.870 -0.4904  0.1324 -0.0299
16653TIP3    H171374   1.752   0.939  13.865 -0.3820  0.2188  1.3999
16653TIP3    H271375   1.829   0.818  13.913 -0.2621 -0.6649 -0.9023
16654TIP3   OH271376   3.204   0.852   3.497  0.0316  0.1866  0.1846
16654TIP3    H171377   3.115   0.872   3.524  0.5424  0.6393  1.6138
16654TIP3    H271378   3.222   0.914   3.426 -1.1016 -0.5872 -0.8366
16655TIP3   OH271379   2.625   0.580   3.094 -0.4471 -0.4137 -0.5040
16655TIP3    H171380   2.660   0.559   3.181 -1.8563 -0.6482  0.0206
16655TIP3    H271381   2.557   0.645   3.110  0.0897  0.4487 -1.5706
16656TIP3   OH271382   2.361   6.385  11.832 -0.2646 -0.2429 -0.3583
16656TIP3    H171383   2.266   6.393  11.833 -0.2353  0.2198 -0.6355
16656TIP3    H271384   2.383   6.376  11.739 -0.0282 -0.1684 -0.3113
16657TIP3   OH271385   3.413   6.267  10.386  0.6812  0.4084  0.0138
16657TIP3    H171386   3.345   6.267  10.453  0.4552 -1.1107 -0.1788
16657TIP3    H271387   3.411   6.355  10.349 -1.7186  0.2019 -0.5025
16658TIP3   OH271388   2.800   3.153  14.445 -0.1555 -0.2503  0.6741
16658TIP3    H171389   2.752   3.187  14.521 -0.2137 -0.7218  0.8541
16658TIP3    H271390   2.758   3.068  14.426 -1.0721  0.4740 -0.7562
16659TIP3   OH271391   2.795   2.330  13.479  0.2137 -0.0975  0.5068
16659TIP3    H171392   2.809   2.288  13.394  0.6536  0.0642  0.5001
16659TIP3    H271393   2.820   2.264  13.543  1.7593  0.4419  0.4888
16660TIP3   OH271394   2.162   1.835  15.530  0.2239 -0.3607 -0.1241
16660TIP3    H171395   2.068   1.821  15.540  0.3175 -0.7686  0.1988
16660TIP3    H271396   2.190   1.766  15.470  0.1116  0.5202 -1.2404
16661TIP3   OH271397   2.844   6.550   2.697 -0.3135  0.1139 -0.4398
16661TIP3    H171398   2.878   6.635   2.670 -1.7719  0.4588 -1.3099
16661TIP3    H271399   2.814   6.509   2.615 -1.1996 -0.5043  0.1733
16662TIP3   OH271400   6.183   0.352   3.428  0.4800  0.0742  0.6503
16662TIP3    H171401   6.098   0.319   3.460  0.5483 -1.3016 -0.4744
16662TIP3    H271402   6.170   0.446   3.418 -1.2209 -0.2291 -0.3787
16663TIP3   OH271403   5.476   2.633   5.956 -0.1560 -0.9922  0.2798
16663TIP3    H171404   5.530   2.625   6.035 -1.7248  2.0247  1.8205
16663TIP3    H271405   5.428   2.714   5.968 -0.6120 -0.4708 -3.7894
16664TIP3   OH271406   6.083   5.443  16.311 -0.1044 -0.3284 -0.3037
16664TIP3    H171407   6.003   5.485  16.280 -1.5071 -1.6741  1.2495
16664TIP3    H271408   6.068   5.429  16.405  1.6724 -1.2625 -0.1031
16665TIP3   OH271409   5.436   4.315  11.349  0.8216  0.3512 -0.2192
16665TIP3    H171410   5.463   4.397  11.307 -0.2605 -0.0076 -1.6692
16665TIP3    H271411   5.464   4.325  11.440  0.8341  2.2799 -0.3909
16666TIP3   OH271412   6.007   2.673   4.058  0.6385  0.0584 -0.4567
16666TIP3    H171413   6.002   2.695   4.151  1.5093 -0.4090 -0.2842
16666TIP3    H271414   6.084   2.617   4.051 -0.9700 -2.1960 -1.0284
16667TIP3   OH271415   5.832   3.600  16.070  0.2346  0.1271 -0.7630
16667TIP3    H171416   5.919   3.619  16.105  0.6839 -0.3530 -1.6075
16667TIP3    H271417   5.819   3.666  16.002 -0.7218  1.1873  0.3937
16668TIP3   OH271418   2.708   2.560   6.231 -0.1083 -0.0991  0.0443
16668TIP3    H171419   2.707   2.625   6.301  0.0554  1.2846 -1.1869
16668TIP3    H271420   2.798   2.561   6.198 -0.9002  1.7838 -2.3703
16669TIP3   OH271421   5.219   2.624   1.592  0.7893  0.3074 -0.3721
16669TIP3    H171422   5.288   2.575   1.636  1.5222  1.4901 -0.1571
16669TIP3    H271423   5.257   2.710   1.575 -0.6988  1.0729 -0.0620
16670TIP3   OH271424   5.639   0.946  15.745 -0.3119  0.8573  0.0525
16670TIP3    H171425   5.600   0.895  15.673  0.9098  2.1792 -1.6291
16670TIP3    H271426   5.601   1.033  15.735 -2.0778  0.4808  2.6508
16671TIP3   OH271427   4.827   5.547  13.338 -0.2989 -0.2012  0.0092
16671TIP3    H171428   4.803   5.583  13.424  0.2040 -1.4919  0.7154
16671TIP3    H271429   4.753   5.491  13.314 -1.1769  1.4103 -1.1864
16672TIP3   OH271430   4.664   4.838  14.676  0.3248  0.3413 -0.1276
16672TIP3    H171431   4.584   4.889  14.683  0.2758  0.4133 -1.0544
16672TIP3    H271432   4.734   4.902  14.682  0.3286  0.2494  0.9323
16673TIP3   OH271433   1.440   5.560  13.461 -0.0272  0.2963  0.1824
16673TIP3    H171434   1.401   5.532  13.378 -0.6038  1.5538  0.0113
16673TIP3    H271435   1.383   5.521  13.528  0.6478 -1.0288  0.0292
16674TIP3   OH271436   5.240   6.798  15.233 -0.6976  0.0333 -0.6482
16674TIP3    H171437   5.165   6.746  15.202  0.1932 -0.3148 -2.3754
16674TIP3    H271438   5.277   6.745  15.304 -1.0182 -0.6836 -0.9983
16675TIP3   OH271439   0.756   2.288   5.414 -0.6751  0.0238  0.3374
16675TIP3    H171440   0.691   2.311   5.347 -1.2909  2.6333  1.6845
16675TIP3    H271441   0.704   2.251   5.485 -0.3895  0.0027  0.5337
16676TIP3   OH271442   2.012   0.038   5.718  0.2483 -0.2878 -0.3821
16676TIP3    H171443   1.947  -0.032   5.710 -0.4706  0.1595  1.1589
16676TIP3    H271444   2.016   0.057   5.812  0.9523  1.2566 -0.6823
16677TIP3   OH271445   0.456   6.114   2.060 -0.5540  0.0700 -0.1786
16677TIP3    H171446   0.537   6.132   2.109 -1.3287  1.2588  0.7425
16677TIP3    H271447   0.413   6.045   2.110 -0.7662  0.4328  0.1504
16678TIP3   OH271448   3.262   0.152   1.144 -0.3448 -0.3503 -0.1360
16678TIP3    H171449   3.246   0.168   1.237  1.6205 -0.1481  0.2012
16678TIP3    H271450   3.181   0.112   1.113 -0.4098 -2.1746  2.0835
16679TIP3   OH271451   6.611   6.031   4.991 -0.3411 -0.2810  0.9112
16679TIP3    H171452   6.558   6.109   4.972  2.4361  1.3042 -1.0698
16679TIP3    H271453   6.673   6.060   5.057  1.1131 -0.5644 -0.2849
16680TIP3   OH271454   6.018   1.330  13.664 -0.0648  0.3620 -0.4604
16680TIP3    H171455   5.935   1.370  13.637 -1.5056 -1.3748  1.1511
16680TIP3    H271456   6.085   1.385  13.623 -1.9538  2.5708 -0.8103
16681TIP3   OH271457   1.683   5.972  14.215  0.2230  0.6020  0.2442
16681TIP3    H171458   1.708   5.950  14.125 -0.4296 -0.4259  0.2990
16681TIP3    H271459   1.615   6.039  14.205  0.6918  1.0588  0.0117
16682TIP3   OH271460   4.933   6.548   5.501 -0.3410 -0.0071  0.4003
16682TIP3    H171461   4.869   6.618   5.512 -1.3955 -0.5995 -1.5166
16682TIP3    H271462   4.944   6.540   5.406  0.4785 -1.7820  0.6014
16683TIP3   OH271463   6.304   4.566   5.089  0.3468 -0.0602 -0.0402
16683TIP3    H171464   6.368   4.508   5.130  1.1684  1.2539  0.6102
16683TIP3    H271465   6.224   4.554   5.139  0.2205 -1.3035 -0.5066
16684TIP3   OH271466   6.386   0.647   5.752 -0.1714 -0.3379  0.7490
16684TIP3    H171467   6.470   0.668   5.791 -0.2838 -0.7672  1.2372
16684TIP3    H271468   6.339   0.600   5.821  0.0804 -2.2088 -0.2879
16685TIP3   OH271469   1.670   2.641   5.474  0.2678 -0.5303  0.0349
16685TIP3    H171470   1.746   2.609   5.426 -1.0802 -1.7294 -1.3975
16685TIP3    H271471   1.660   2.732   5.446  1.9017  0.0841  1.2566
16686TIP3   OH271472   2.948   2.410   6.421  0.3882  0.5549 -0.4037
16686TIP3    H171473   2.969   2.479   6.358  0.0494  0.1034 -1.0277
16686TIP3    H271474   2.967   2.448   6.506 -0.7247  1.7594 -0.6690
16687TIP3   OH271475   1.766   1.301  12.461 -0.0610 -0.7438  0.4685
16687TIP3    H171476   1.679   1.261  12.458 -0.0797 -0.8117  1.4906
16687TIP3    H271477   1.753   1.381  12.512 -0.0251  0.5959 -1.5130
16688TIP3   OH271478   6.298   5.427   2.349  0.4561  0.0407 -0.6542
16688TIP3    H171479   6.382   5.415   2.304 -0.1610  1.8635 -2.4306
16688TIP3    H271480   6.306   5.512   2.391 -0.0101 -0.4280  0.4209
16689TIP3   OH271481   3.169   3.300   4.821 -0.1355  0.4388 -0.1426
16689TIP3    H171482   3.112   3.353   4.764 -0.3275 -1.0530 -1.3885
16689TIP3    H271483   3.109   3.241   4.867  0.0727  1.2914  1.3065
16690TIP3   OH271484   6.543   4.368  11.620 -0.2997 -0.6416  0.3309
16690TIP3    H171485   6.485   4.427  11.667  0.6873  2.9656 -2.5273
16690TIP3    H271486   6.491   4.339  11.544  0.1040 -1.3144  0.3048
16691TIP3   OH271487   0.292   2.447   1.265  0.1296 -0.8466 -0.3433
16691TIP3    H171488   0.228   2.489   1.208  0.8086  0.8763  0.1130
16691TIP3    H271489   0.373   2.444   1.214  0.2287 -1.1372 -0.1794
16692TIP3   OH271490   3.549   3.019   0.997  0.7216  0.3741 -0.3778
16692TIP3    H171491   3.502   2.956   1.051  2.2355 -1.5034 -1.1538
16692TIP3    H271492   3.546   3.101   1.047 -1.5829 -0.1818  0.5043
16693TIP3   OH271493   1.752   1.499   2.248 -0.0461 -0.0360  0.2104
16693TIP3    H171494   1.772   1.506   2.341  1.8751  0.1711 -0.1872
16693TIP3    H271495   1.823   1.446   2.212 -0.3679  0.4926 -1.2702
16694TIP3   OH271496   3.422   0.362  15.426 -0.3736 -0.2101  0.2059
16694TIP3    H171497   3.368   0.320  15.358 -0.2315  0.8310 -0.5703
16694TIP3    H271498   3.474   0.427  15.378 -1.1155  1.3767  1.4723
16695TIP3   OH271499   2.957   0.141   1.053  0.0765  0.4358 -0.5203
16695TIP3    H171500   2.883   0.200   1.067 -1.6969 -1.2829 -2.0554
16695TIP3    H271501   2.967   0.136   0.958  0.6219 -1.1601 -0.4199
16696TIP3   OH271502   3.667   1.168   3.349 -0.1446  0.0014 -0.0829
16696TIP3    H171503   3.693   1.170   3.257  4.6265  2.6111  0.9780
16696TIP3    H271504   3.663   1.261   3.374  0.5553 -0.6522  2.7469
16697TIP3   OH271505   2.010   5.908   3.913  0.2354 -0.1797 -0.2170
16697TIP3    H171506   1.917   5.918   3.934 -0.0503  0.9217 -1.7982
16697TIP3    H271507   2.048   5.994   3.932  0.5214 -0.0321 -1.3631
16698TIP3   OH271508   1.988   0.577  12.058  0.0242 -0.8688 -0.0798
16698TIP3    H171509   1.996   0.661  12.014  0.1051 -1.0483 -0.4147
16698TIP3    H271510   2.064   0.527  12.028 -0.2252 -1.1946 -0.1761
16699TIP3   OH271511   3.454   0.316   4.450  0.2070 -0.3744 -0.4402
16699TIP3    H171512   3.387   0.290   4.513  0.2456 -1.1272 -0.7053
16699TIP3    H271513   3.410   0.312   4.365  0.5087 -0.5811 -0.5863
16700TIP3   OH271514   4.059   4.871   0.834  0.3739 -0.2889  0.1267
16700TIP3    H171515   4.084   4.894   0.924  0.3390  1.1690 -0.2179
16700TIP3    H271516   4.020   4.784   0.842  0.6077 -0.2937  1.4824
16701TIP3   OH271517   6.178   5.115   3.345  0.1641 -0.1980 -0.1706
16701TIP3    H171518   6.104   5.171   3.322  0.5252  0.3738  0.0437
16701TIP3    H271519   6.147   5.063   3.419 -0.3329 -0.6245 -0.6684
16702TIP3   OH271520   0.913   0.666   1.350  1.0959  0.0571 -0.0255
16702TIP3    H171521   0.845   0.646   1.285  1.3257 -1.2282  0.1105
16702TIP3    H271522   0.865   0.710   1.421  0.4834 -0.3711 -0.1610
16703TIP3   OH271523   5.767   0.801   1.725  0.9172  0.3127 -0.3533
16703TIP3    H171524   5.736   0.763   1.643 -1.2036  0.6828  0.2329
16703TIP3    H271525   5.839   0.743   1.751 -1.0216 -2.3233 -0.4084
16704TIP3   OH271526   6.308   4.421  13.978  0.3611 -0.3019  0.0954
16704TIP3    H171527   6.273   4.483  13.914 -2.4575  0.2684  2.0120
16704TIP3    H271528   6.252   4.344  13.970  1.9069 -1.4468 -0.1541
16705TIP3   OH271529   1.340   2.144   4.591 -0.1673 -0.1557 -0.4507
16705TIP3    H171530   1.349   2.215   4.527  2.6218 -1.1783 -1.3266
16705TIP3    H271531   1.267   2.091   4.558 -2.7579  2.4682  0.5650
16706TIP3   OH271532   0.886   4.110   3.146 -0.4161  0.0920  0.5387
16706TIP3    H171533   0.811   4.067   3.105  0.0598 -0.5167  0.3064
16706TIP3    H271534   0.848   4.186   3.190 -0.7847  1.6850 -2.2797
16707TIP3   OH271535   1.540   5.638   4.434 -0.1012 -0.1650  1.3045
16707TIP3    H171536   1.471   5.636   4.500  1.5718  1.1488  3.2184
16707TIP3    H271537   1.616   5.600   4.477  1.2518  1.3987  0.4381
16708TIP3   OH271538   0.572   4.271   0.847  0.2154 -0.3143  0.5257
16708TIP3    H171539   0.584   4.323   0.926 -1.8749 -1.4542  1.6548
16708TIP3    H271540   0.598   4.183   0.872  0.9693 -0.4065 -0.5267
16709TIP3   OH271541   3.711   4.207  15.062  0.1234  0.6857  0.4103
16709TIP3    H171542   3.728   4.119  15.095 -3.0616  0.4588  1.8231
16709TIP3    H271543   3.734   4.203  14.970  2.1637 -0.9225  0.9209
16710TIP3   OH271544   6.621   0.560   1.593  0.2218  0.1824  0.1356
16710TIP3    H171545   6.711   0.580   1.621  1.6959 -1.3773 -3.0136
16710TIP3    H271546   6.609   0.467   1.616 -0.5575  0.3447  0.4128
16711TIP3   OH271547   0.778   5.476  10.846  0.2793  0.3544 -0.0740
16711TIP3    H171548   0.783   5.404  10.783 -0.5856 -0.3197  0.6011
16711TIP3    H271549   0.702   5.527  10.818  0.9515  1.0954 -0.6132
16712TIP3   OH271550   3.313   6.118   4.544 -0.1346  0.7241 -0.3812
16712TIP3    H171551   3.277   6.110   4.456  0.9377 -0.2337 -0.7678
16712TIP3    H271552   3.398   6.161   4.532  0.1125  0.4015  0.1465
16713TIP3   OH271553   2.652   6.028  12.622  0.2548 -0.1394  0.4179
16713TIP3    H171554   2.683   6.098  12.565  0.0629  0.2376  0.7731
16713TIP3    H271555   2.667   6.060  12.711  1.8274 -1.2914  0.6041
16714TIP3   OH271556   6.356   0.747   4.648  0.3403  0.4595  0.5143
16714TIP3    H171557   6.313   0.779   4.727 -2.6412 -0.9875 -0.4008
16714TIP3    H271558   6.296   0.767   4.577  1.1708 -1.5971 -0.8638
16715TIP3   OH271559   1.220   3.799   0.687  0.1580  0.7765 -0.0050
16715TIP3    H171560   1.126   3.786   0.677 -0.0216  2.6157 -1.0606
16715TIP3    H271561   1.259   3.738   0.624 -0.2510 -0.5256  0.9503
16716TIP3   OH271562   2.999   3.065   5.746  0.1540 -0.5733  0.1695
16716TIP3    H171563   2.944   3.143   5.733  0.5274 -0.3633 -0.1788
16716TIP3    H271564   2.952   3.014   5.812  0.8073  0.8171  1.7912
16717TIP3   OH271565   1.572   4.330  13.320  0.4428  0.0412 -0.1363
16717TIP3    H171566   1.543   4.392  13.253 -1.4411 -2.0666 -1.3662
16717TIP3    H271567   1.644   4.282  13.279 -0.7981 -1.3417 -0.7747
16718TIP3   OH271568   0.689   0.642   1.166  0.1702  0.2771 -0.2793
16718TIP3    H171569   0.668   0.735   1.165 -1.5746 -0.0750  0.4347
16718TIP3    H271570   0.653   0.608   1.083 -3.6023 -0.5564  1.4755
16719TIP3   OH271571   4.876   3.064   3.540  0.0205 -0.4744  0.5682
16719TIP3    H171572   4.830   3.121   3.479 -2.3109 -1.8451  0.8902
16719TIP3    H271573   4.960   3.046   3.499  0.3205  2.1175 -0.1127
16720TIP3   OH271574   4.515   1.921  10.593 -0.1838  0.4015 -0.2102
16720TIP3    H171575   4.533   1.828  10.576 -4.8598 -0.2055 -3.7765
16720TIP3    H271576   4.581   1.968  10.542  0.2850 -1.0415 -0.9836
16721TIP3   OH271577   2.405   6.129   2.563  0.5037  0.0872 -0.0681
16721TIP3    H171578   2.488   6.093   2.529  1.1509  0.8519  0.6532
16721TIP3    H271579   2.371   6.060   2.620  1.3208  0.2794  0.6731
16722TIP3   OH271580   3.978   3.194  12.093 -0.3297  0.3914  0.1465
16722TIP3    H171581   3.933   3.120  12.134  0.0836 -0.6167 -1.1039
16722TIP3    H271582   3.928   3.271  12.118 -0.7521 -0.3113  1.5343
16723TIP3   OH271583   1.442   5.780  15.848  0.8031  0.0354 -0.4037
16723TIP3    H171584   1.357   5.759  15.886  0.0582 -1.0390 -2.5021
16723TIP3    H271585   1.433   5.869  15.815  1.2540  0.7388  1.2409
16724TIP3   OH271586   4.500   3.846   5.380 -0.6159  0.7253 -0.0188
16724TIP3    H171587   4.471   3.938   5.375 -2.1566  0.2440 -0.5085
16724TIP3    H271588   4.495   3.824   5.473 -2.3844  0.5153 -0.1340
16725TIP3   OH271589   1.759   1.792   4.223  0.2324  0.1663  0.2052
16725TIP3    H171590   1.776   1.713   4.172 -1.6623 -0.4065  0.3690
16725TIP3    H271591   1.749   1.861   4.157  1.1352  0.1348  0.0210
16726TIP3   OH271592   6.265   0.809  17.088  0.4580  0.4060 -0.3405
16726TIP3    H171593   6.273   0.714  17.098  0.9240  0.4494 -0.2865
16726TIP3    H271594   6.291   0.845  17.173 -0.9256  0.5372  0.0599
16727TIP3   OH271595   6.694   0.048   1.088  1.2817 -0.2269 -0.8048
16727TIP3    H171596   6.776   0.019   1.130  3.4618  3.4873 -1.9707
16727TIP3    H271597   6.722   0.085   1.005 -1.7897  0.3437 -1.6954
16728TIP3   OH271598   1.129   1.890   5.868 -0.0394  0.8702  0.4191
16728TIP3    H171599   1.210   1.896   5.919  0.3708 -1.9584  0.2557
16728TIP3    H271600   1.116   1.978   5.834  4.2255  1.0504 -1.4279
16729TIP3   OH271601   3.992   4.581  13.383 -0.5071 -0.0294  0.2949
16729TIP3    H171602   3.989   4.601  13.477 -3.8027 -0.9566  0.5312
16729TIP3    H271603   4.082   4.553  13.367  0.9011  2.6390  2.5692
16730TIP3   OH271604   6.035   3.971   3.614 -0.4019  0.4019  0.0309
16730TIP3    H171605   6.084   3.948   3.535 -1.1214  0.8311 -0.5533
16730TIP3    H271606   6.024   3.888   3.661  0.0556  0.1494 -0.2993
16731TIP3   OH271607   4.842   5.296   4.443  0.1490  0.1674 -0.0508
16731TIP3    H171608   4.906   5.357   4.480  0.4536 -0.4316  0.4262
16731TIP3    H271609   4.858   5.298   4.349  1.1162 -0.2520  0.1000
16732TIP3   OH271610   5.813   4.143   2.428  0.2271 -0.0673  0.1951
16732TIP3    H171611   5.874   4.172   2.496 -1.3886  1.2342  1.1557
16732TIP3    H271612   5.781   4.224   2.388  0.0838 -0.7689 -1.1994
16733TIP3   OH271613   3.343   6.006   1.992 -0.0244 -0.6766 -0.6760
16733TIP3    H171614   3.407   6.007   1.922  1.3823 -0.2681  0.5592
16733TIP3    H271615   3.368   5.932   2.047 -2.1870 -2.1317 -1.4860
16734TIP3   OH271616   4.246   3.709  13.466  0.0480  0.5343  0.0244
16734TIP3    H171617   4.177   3.703  13.532  0.9416 -0.0520  0.9401
16734TIP3    H271618   4.216   3.652  13.395  0.5231 -1.4611  1.3255
16735TIP3   OH271619   0.810   4.511  14.108  0.0352  0.2973  0.0941
16735TIP3    H171620   0.744   4.506  14.178  1.0125  2.0520  1.2185
16735TIP3    H271621   0.893   4.524  14.155  1.0780 -0.9413 -1.3190
16736TIP3   OH271622   0.876   0.301  16.954 -0.0683  0.0364  0.3063
16736TIP3    H171623   0.954   0.246  16.948 -1.1305 -1.4272 -0.8834
16736TIP3    H271624   0.818   0.255  17.014 -1.9801 -1.6139 -2.5415
16737TIP3   OH271625   0.404   5.942  13.843  0.3044  0.0748 -0.2377
16737TIP3    H171626   0.398   6.000  13.919 -1.2918 -1.9676  1.3105
16737TIP3    H271627   0.357   5.988  13.774 -0.6532  0.7951  0.8431
16738TIP3   OH271628   4.657   3.880  12.183 -0.3303  0.3858  0.3791
16738TIP3    H171629   4.588   3.844  12.238 -1.8716 -0.5169 -1.9775
16738TIP3    H271630   4.612   3.943  12.127  0.8817  0.2925 -0.7452
16739TIP3   OH271631   4.430   3.893  17.011  0.5785 -0.1977  0.4129
16739TIP3    H171632   4.491   3.823  16.992 -1.0113 -1.7698  0.8619
16739TIP3    H271633   4.361   3.852  17.063 -1.5680  1.1686 -1.1678
16740TIP3   OH271634   1.368   3.145   6.153 -0.2972 -0.1643  0.1365
16740TIP3    H171635   1.324   3.222   6.117  1.0459  1.0555  0.9711
16740TIP3    H271636   1.297   3.094   6.193 -0.9381  2.3068  2.4676
16741TIP3   OH271637   4.445   0.920  14.699  0.5183  0.6157 -0.4870
16741TIP3    H171638   4.529   0.875  14.687 -0.5595 -1.7795  0.3973
16741TIP3    H271639   4.464   0.991  14.759  1.9777  0.3044 -0.5401
16742TIP3   OH271640   2.684   5.548  14.601  0.1122 -0.2691 -0.2898
16742TIP3    H171641   2.769   5.511  14.577  0.1003 -0.4559 -0.0448
16742TIP3    H271642   2.621   5.478  14.583  0.0342 -0.2032 -0.2757
16743TIP3   OH271643   2.866   0.423   0.885 -0.0829  0.1047  0.2747
16743TIP3    H171644   2.947   0.425   0.834  0.0795 -1.5934  0.3858
16743TIP3    H271645   2.893   0.448   0.973  0.4752 -1.0012  0.4447
16744TIP3   OH271646   2.316   3.389  12.994 -0.3098 -0.2552  0.1958
16744TIP3    H171647   2.405   3.354  12.993 -0.0968  0.2122  1.1095
16744TIP3    H271648   2.284   3.377  12.905  1.3879  1.4297 -0.7262
16745TIP3   OH271649   0.624   3.333  14.058  0.8204  1.2616  0.2391
16745TIP3    H171650   0.554   3.365  14.114  1.2064  1.1169  0.8134
16745TIP3    H271651   0.705   3.356  14.104  1.1118 -0.9703  0.9411
16746TIP3   OH271652   5.895   0.855  16.884  0.6832 -0.2325  0.2520
16746TIP3    H171653   5.944   0.817  16.811 -0.6791 -0.7692 -0.4189
16746TIP3    H271654   5.810   0.811  16.881 -1.0806  2.9056 -0.6723
16747TIP3   OH271655   5.791   3.908  12.389  0.0665 -0.0796  0.1717
16747TIP3    H171656   5.825   3.909  12.478  3.9689 -1.5989 -1.0801
16747TIP3    H271657   5.815   3.993  12.353  1.2240 -0.5486 -0.2243
16748TIP3   OH271658   1.259   4.403   0.179 -0.7138 -0.4011 -0.4935
16748TIP3    H171659   1.263   4.409   0.084 -0.0597  0.2556 -0.4290
16748TIP3    H271660   1.340   4.442   0.210 -1.1080 -0.2207  0.3557
16749TIP3   OH271661   1.224   0.226  14.785  0.3163 -0.2313 -0.0162
16749TIP3    H171662   1.153   0.170  14.753  0.2605 -0.6711  0.8492
16749TIP3    H271663   1.182   0.310  14.805 -0.0475 -0.5944  0.8176
16750TIP3   OH271664   0.562   2.004   3.489  0.2792  0.2981 -0.0752
16750TIP3    H171665   0.501   1.939   3.524 -0.2187  0.5341 -0.4991
16750TIP3    H271666   0.551   2.080   3.547  0.2329  0.3121 -0.1025
16751TIP3   OH271667   6.476   0.530   1.183 -0.0096 -0.1306 -0.2434
16751TIP3    H171668   6.550   0.496   1.133 -1.0858 -2.3250 -0.4267
16751TIP3    H271669   6.419   0.454   1.198 -1.6589  1.2503  0.9121
16752TIP3   OH271670   5.820   0.917  13.162 -0.0758  0.3337 -0.1577
16752TIP3    H171671   5.848   0.849  13.100  0.2826  0.9028 -0.6235
16752TIP3    H271672   5.821   0.998  13.112 -0.4327  0.7024  0.4188
16753TIP3   OH271673   3.297   4.304  13.323 -0.1918  0.5909  0.5331
16753TIP3    H171674   3.381   4.300  13.278 -0.2133 -0.4616  0.5537
16753TIP3    H271675   3.312   4.256  13.405 -1.1868 -0.8550 -0.1004
16754TIP3   OH271676   3.229   5.333  14.399 -0.2191 -0.1382  0.3669
16754TIP3    H171677   3.279   5.407  14.365  1.0347 -1.8681 -1.8630
16754TIP3    H271678   3.268   5.315  14.484 -1.1382  2.2236  1.3561
16755TIP3   OH271679   1.491   6.462   1.168  0.3053 -0.1205  0.5919
16755TIP3    H171680   1.557   6.531   1.165  0.8991 -0.6485 -2.7729
16755TIP3    H271681   1.409   6.507   1.146  0.3394 -0.1287  0.4413
16756TIP3   OH271682   5.866   0.506  11.926  0.5815 -0.2627  0.2873
16756TIP3    H171683   5.833   0.460  11.848  1.3029 -3.0306  1.5063
16756TIP3    H271684   5.961   0.504  11.916  0.6387  0.5037  0.6567
16757TIP3   OH271685   2.076   0.888   0.946  0.3510  0.2926  0.5529
16757TIP3    H171686   2.092   0.929   1.031  0.3828  0.1394  0.6212
16757TIP3    H271687   2.160   0.849   0.923 -0.0384 -0.9332  1.1392
16758TIP3   OH271688   3.153   1.778  12.282 -0.4349  0.4080 -0.0739
16758TIP3    H171689   3.169   1.684  12.286  1.2805  0.6640 -0.1682
16758TIP3    H271690   3.138   1.804  12.373 -0.8619  0.0673 -0.0421
16759TIP3   OH271691   0.153   2.977  15.726 -0.2023 -0.0511 -0.1064
16759TIP3    H171692   0.150   3.041  15.797  2.5022 -2.0688  2.0747
16759TIP3    H271693   0.124   2.895  15.766  1.6459 -1.3023 -1.1443
16760TIP3   OH271694   4.863   5.753   1.996  0.4335 -0.3387 -0.1755
16760TIP3    H171695   4.782   5.803   2.006  0.3125 -0.8064  1.4535
16760TIP3    H271696   4.912   5.769   2.077  3.1889  1.9541 -2.0914
16761TIP3   OH271697   1.253   0.399   5.724  0.0225  0.0540 -0.0778
16761TIP3    H171698   1.326   0.453   5.753  0.1404  0.5382 -1.1947
16761TIP3    H271699   1.184   0.462   5.703 -0.7620 -0.4041  1.0593
16762TIP3   OH271700   3.811   5.557   3.768  0.1158 -0.2189 -0.5233
16762TIP3    H171701   3.878   5.587   3.829  0.5786 -2.3258  0.0848
16762TIP3    H271702   3.854   5.489   3.717 -0.7033  0.4742 -2.2351
16763TIP3   OH271703   1.374   4.872   1.630 -0.2474  0.3316  0.1613
16763TIP3    H171704   1.386   4.886   1.724 -0.6029  0.3126  0.2109
16763TIP3    H271705   1.445   4.920   1.589  0.1549 -0.0036  0.4619
16764TIP3   OH271706   4.124   2.083   3.759 -0.0400  0.1135  0.6756
16764TIP3    H171707   4.034   2.077   3.726  0.4541 -2.4399 -0.4138
16764TIP3    H271708   4.158   2.165   3.722 -1.7086  0.8341  0.6435
16765TIP3   OH271709   5.670   6.544   0.728  0.7516 -0.4054 -0.0355
16765TIP3    H171710   5.728   6.483   0.774  1.5805 -0.5258 -1.1942
16765TIP3    H271711   5.723   6.578   0.656 -0.0649  0.8279 -0.0877
16766TIP3   OH271712   4.919   3.741   5.424 -0.4391  0.1170 -0.1200
16766TIP3    H171713   4.837   3.696   5.402 -1.2190  1.6740 -0.5712
16766TIP3    H271714   4.963   3.752   5.340 -1.1513  1.8097 -0.3100
16767TIP3   OH271715   2.675   6.284  16.042 -0.0282 -0.1005  0.0104
16767TIP3    H171716   2.655   6.204  16.091  0.3034 -0.8583 -1.0349
16767TIP3    H271717   2.704   6.347  16.108 -0.3927 -0.8145  0.8678
16768TIP3   OH271718   5.235   2.840  13.569 -0.6665 -0.5213  0.0910
16768TIP3    H171719   5.239   2.803  13.480 -3.1266 -0.7876  0.0118
16768TIP3    H271720   5.149   2.881  13.574  0.1427  1.1295  1.7855
16769TIP3   OH271721   2.968   1.068   2.068  0.4392  0.0719  0.0135
16769TIP3    H171722   2.928   1.148   2.033  0.4841  0.3842  0.6508
16769TIP3    H271723   2.967   1.081   2.163 -0.2807 -1.0367  0.1736
16770TIP3   OH271724   5.394   2.435   0.097  0.1215 -0.3047  0.3700
16770TIP3    H171725   5.419   2.418   0.006 -0.9044 -1.3960  0.2758
16770TIP3    H271726   5.379   2.349   0.135 -0.8597  0.2010  1.1728
16771TIP3   OH271727   1.774   0.940   0.338  0.0503 -0.4798 -0.2703
16771TIP3    H171728   1.727   0.960   0.419 -1.6452  0.5110 -1.4293
16771TIP3    H271729   1.806   0.851   0.351  0.7720  0.0198  1.8796
16772TIP3   OH271730   2.931   4.611   1.873 -0.1479 -0.0145 -0.6012
16772TIP3    H171731   2.934   4.528   1.825  1.2363 -0.3050 -0.0522
16772TIP3    H271732   2.909   4.676   1.806  0.9446 -0.5288 -1.4887
16773TIP3   OH271733   1.149   2.708  13.082 -0.3225 -0.4024  0.1214
16773TIP3    H171734   1.179   2.765  13.152  0.8843 -1.7118  0.7297
16773TIP3    H271735   1.074   2.753  13.045  0.6256  1.6186  0.4928
16774TIP3   OH271736   2.865   4.251  10.681  0.8146 -0.3029  0.2108
16774TIP3    H171737   2.816   4.306  10.620 -0.3697  1.0424  2.2974
16774TIP3    H271738   2.843   4.161  10.654 -0.3214  0.2498 -0.8267
16775TIP3   OH271739   2.169   2.111  11.823  0.2103  0.0295  0.2367
16775TIP3    H171740   2.118   2.092  11.901 -0.8015 -0.4155 -0.5098
16775TIP3    H271741   2.122   2.183  11.780 -0.2122 -0.8370 -0.8102
16776TIP3   OH271742   4.563   1.388   0.519  0.2877  0.5065  0.6338
16776TIP3    H171743   4.607   1.319   0.470 -0.6738  1.3496 -1.5723
16776TIP3    H271744   4.632   1.430   0.570  1.5256  0.0821 -0.6331
16777TIP3   OH271745   5.244   4.639  12.422 -0.3086 -0.1835 -0.3608
16777TIP3    H171746   5.161   4.599  12.396 -0.7414 -0.4320  1.2906
16777TIP3    H271747   5.232   4.732  12.408 -0.4919 -0.3187 -1.1125
16778TIP3   OH271748   3.851   5.709  11.323 -0.2544 -0.4025  0.3318
16778TIP3    H171749   3.881   5.796  11.297 -0.0638 -0.9768 -1.5105
16778TIP3    H271750   3.919   5.677  11.383  0.9388 -0.1988 -0.8499
16779TIP3   OH271751   3.375   1.796  11.776 -0.3857 -0.5083  0.5909
16779TIP3    H171752   3.287   1.783  11.811 -0.2634 -1.4233  0.5834
16779TIP3    H271753   3.408   1.708  11.759  0.6063 -0.1862  0.7643
16780TIP3   OH271754   5.478   0.965   6.329 -0.1543  0.1219  0.0188
16780TIP3    H171755   5.393   0.942   6.291 -0.1433 -0.2719  0.2295
16780TIP3    H271756   5.520   0.881   6.347  0.8064  0.3002 -1.2557
16781TIP3   OH271757   5.440   3.866   3.779  0.3539  0.3390  0.3306
16781TIP3    H171758   5.372   3.908   3.831 -1.3386 -1.8427  0.0503
16781TIP3    H271759   5.459   3.784   3.826  2.5141  0.6761  0.1600
16782TIP3   OH271760   3.923   3.746   6.237 -0.1713 -0.4576 -0.4703
16782TIP3    H171761   3.846   3.714   6.189 -1.4171  0.2205  0.9558
16782TIP3    H271762   3.921   3.841   6.225 -0.3024 -0.3134  0.5948
16783TIP3   OH271763   1.925   0.057   3.809  0.0361 -0.0818 -0.0363
16783TIP3    H171764   2.018   0.035   3.816 -0.0584 -0.3868  0.2861
16783TIP3    H271765   1.880  -0.027   3.816 -0.3385  0.1973  1.3259
16784TIP3   OH271766   0.162   3.641   5.839  0.3201  0.1386 -0.0125
16784TIP3    H171767   0.187   3.597   5.921  1.7062  1.3460  0.2643
16784TIP3    H271768   0.068   3.655   5.847  0.4163  0.1452  1.3356
16785TIP3   OH271769   5.747   2.093   3.909 -0.3377 -0.6096  0.3382
16785TIP3    H171770   5.829   2.121   3.869 -0.7398 -0.0980 -0.1506
16785TIP3    H271771   5.735   2.003   3.878  0.1389 -0.7600  0.5821
16786TIP3   OH271772   5.036   1.792  16.689  0.0115  0.1522 -0.1880
16786TIP3    H171773   5.004   1.721  16.745 -0.0856 -0.1174 -0.5726
16786TIP3    H271774   5.118   1.820  16.729 -0.4794  0.5337  0.5516
16787TIP3   OH271775   4.160   1.390   1.567 -0.7630 -0.3089 -0.0591
16787TIP3    H171776   4.249   1.377   1.533 -0.0782 -0.4159  1.6494
16787TIP3    H271777   4.132   1.303   1.594 -0.6667 -0.0099  1.0390
16788TIP3   OH271778   0.909   5.658  11.144  0.4135 -0.6943 -0.5310
16788TIP3    H171779   0.967   5.597  11.190  2.9767  1.0402 -1.2390
16788TIP3    H271780   0.857   5.697  11.214 -0.3532 -2.6607  0.0778
16789TIP3   OH271781   2.690   5.287   3.339  0.6572 -0.2412 -0.9679
16789TIP3    H171782   2.684   5.282   3.434  1.5473 -1.2193 -0.9452
16789TIP3    H271783   2.632   5.359   3.315  1.3813  0.8438  0.4045
16790TIP3   OH271784   5.890   3.403   0.067 -0.0951 -0.2917  0.0785
16790TIP3    H171785   5.842   3.321   0.059 -0.8837  0.0247  1.2085
16790TIP3    H271786   5.968   3.381   0.118 -0.8209 -0.1719  1.2750
16791TIP3   OH271787   0.840   2.657  10.570 -0.3849  0.4514  0.2844
16791TIP3    H171788   0.816   2.584  10.514 -0.0593  0.6235 -0.0885
16791TIP3    H271789   0.906   2.705  10.520  0.7062  0.0070  1.2612
16792TIP3   OH271790   3.762   0.195   0.366  0.7408  1.0517  0.7056
16792TIP3    H171791   3.855   0.189   0.385  1.1376  1.3381 -1.0034
16792TIP3    H271792   3.752   0.276   0.316 -0.5299  1.3506  1.4030
16793TIP3   OH271793   4.172   3.831   3.511  0.1277 -0.4989  0.0664
16793TIP3    H171794   4.083   3.864   3.498 -0.2528 -1.7012 -0.4781
16793TIP3    H271795   4.172   3.793   3.598  0.1058 -0.5281  0.0534
16794TIP3   OH271796   6.100   4.313   1.550 -0.3146  0.0300 -0.2077
16794TIP3    H171797   6.089   4.393   1.602 -2.8680 -0.0755 -0.4621
16794TIP3    H271798   6.104   4.345   1.460 -1.5062 -0.1005 -0.3225
16795TIP3   OH271799   0.196   1.142  14.733  0.3391 -0.3748 -0.4473
16795TIP3    H171800   0.156   1.228  14.726  0.9449 -0.1824 -1.8261
16795TIP3    H271801   0.143   1.096  14.798  0.8209  1.4849  1.3759
16796TIP3   OH271802   3.600   3.410  10.911  0.1112  0.6588 -0.0172
16796TIP3    H171803   3.667   3.433  10.976  1.2655  0.4694 -1.1074
16796TIP3    H271804   3.628   3.455  10.831 -0.6432 -0.0584 -0.7011
16797TIP3   OH271805   6.156   4.040  15.398  0.0190 -0.0390 -0.1093
16797TIP3    H171806   6.132   3.948  15.407 -0.4904  0.0014 -0.8846
16797TIP3    H271807   6.244   4.046  15.435 -0.4481 -0.5673  1.1291
16798TIP3   OH271808   0.826   5.640  14.120 -0.8108 -0.1661 -1.0175
16798TIP3    H171809   0.885   5.588  14.175  1.1131  2.5237 -0.3359
16798TIP3    H271810   0.740   5.628  14.159 -0.2089 -1.7131 -0.0766
16799TIP3   OH271811   2.871   0.516   5.496 -0.4456  0.0652  0.1474
16799TIP3    H171812   2.964   0.527   5.479  0.1961 -0.9026  2.6217
16799TIP3    H271813   2.866   0.442   5.556 -2.4138  2.5463  3.3337
16800TIP3   OH271814   3.504   2.905   2.125 -0.1460 -0.0832  0.4269
16800TIP3    H171815   3.590   2.894   2.164  0.0953  0.3626  0.0275
16800TIP3    H271816   3.504   2.994   2.089 -0.7115 -0.1338  0.2837
16801TIP3   OH271817   4.397   5.232   4.299 -0.4641  0.3902  0.3461
16801TIP3    H171818   4.401   5.169   4.371 -0.8045  0.4869  0.4515
16801TIP3    H271819   4.372   5.179   4.223 -3.1979  0.7227  0.8877
16802TIP3   OH271820   4.832   5.820   6.736  0.3323  0.0922  0.3078
16802TIP3    H171821   4.784   5.768   6.800 -1.1169  0.0510 -0.7644
16802TIP3    H271822   4.788   5.804   6.653  0.4061  2.2964 -0.2282
16803TIP3   OH271823   4.821   2.807  14.465  0.6334 -0.4535  0.2906
16803TIP3    H171824   4.859   2.791  14.551 -0.2656  1.9611  1.2437
16803TIP3    H271825   4.863   2.887  14.434 -0.8852  0.1428 -0.3458
16804TIP3   OH271826   3.070   1.980   3.450 -0.6026  0.1594  0.1672
16804TIP3    H171827   2.996   1.965   3.509 -2.0789  3.3653 -0.6694
16804TIP3    H271828   3.031   1.989   3.363  0.8875  0.9548 -0.4597
16805TIP3   OH271829   6.499   5.061  16.484 -0.3546 -0.0253  0.1603
16805TIP3    H171830   6.560   5.132  16.502  1.0717 -1.3093  0.6675
16805TIP3    H271831   6.532   5.021  16.403 -0.2369 -0.9908  0.6630
16806TIP3   OH271832   4.058   0.169  12.191  0.2167 -0.1086  0.1094
16806TIP3    H171833   4.126   0.163  12.123 -0.1517  0.0793 -0.2777
16806TIP3    H271834   4.107   0.169  12.273  0.7476  0.8390 -0.1921
16807TIP3   OH271835   3.674   0.826  14.611  0.8780  0.1827  0.3319
16807TIP3    H171836   3.589   0.862  14.585  1.3945 -0.6296 -2.8346
16807TIP3    H271837   3.652   0.743  14.654  0.0388  0.5723  0.6871
16808TIP3   OH271838   1.204   4.748  14.655  0.4721 -0.1591  0.9174
16808TIP3    H171839   1.203   4.677  14.591  2.5015  0.6104 -0.0624
16808TIP3    H271840   1.114   4.782  14.655 -0.1738 -1.7755  0.3551
16809TIP3   OH271841   0.420   3.285   2.777  0.5662  0.0253  0.3943
16809TIP3    H171842   0.475   3.344   2.829  2.6080 -1.3585 -0.0520
16809TIP3    H271843   0.439   3.198   2.811  1.8109 -0.9191 -2.3875
16810TIP3   OH271844   0.764   3.236   2.557 -0.3100 -0.1012  0.1568
16810TIP3    H171845   0.719   3.202   2.480 -0.9551 -0.6566  0.7636
16810TIP3    H271846   0.735   3.327   2.563 -0.4591 -0.1303 -0.1088
16811TIP3   OH271847   0.486   3.386   6.151  0.2575  0.1887 -0.2333
16811TIP3    H171848   0.488   3.369   6.246  1.4697  1.6069  0.0279
16811TIP3    H271849   0.478   3.299   6.112  1.7133 -0.6053  1.1198
16812TIP3   OH271850   3.763   6.190  15.585 -0.2430 -0.3433 -0.5333
16812TIP3    H171851   3.847   6.150  15.567  1.0280  1.9175  0.0039
16812TIP3    H271852   3.718   6.192  15.500  0.8267 -0.2800 -1.1043
16813TIP3   OH271853   0.023   1.314   2.355  0.3686 -0.6003 -0.0041
16813TIP3    H171854   0.096   1.376   2.356 -0.1498  0.0133  0.7492
16813TIP3    H271855   0.062   1.233   2.322  1.3046 -0.1783  0.0190
16814TIP3   OH271856   0.996   3.798   1.408  0.1609 -0.4018  0.2535
16814TIP3    H171857   1.042   3.715   1.422  0.7891 -0.7191 -2.8054
16814TIP3    H271858   0.909   3.772   1.378  0.0748  0.0441  0.1086
16815TIP3   OH271859   1.168   1.978   2.287 -0.1855 -0.0824  0.5276
16815TIP3    H171860   1.104   2.037   2.328 -2.5339 -0.6457 -2.0448
16815TIP3    H271861   1.115   1.916   2.237  2.3688 -0.5967 -1.7747
16816TIP3   OH271862   0.678   2.994   2.719  0.3356  0.3256 -0.4034
16816TIP3    H171863   0.615   3.018   2.787 -1.7681  1.6721 -2.6648
16816TIP3    H271864   0.723   3.076   2.698  3.4886 -0.7200  1.5999
16817TIP3   OH271865   4.956   1.041   4.079  0.5689 -0.7369 -0.3226
16817TIP3    H171866   4.871   1.066   4.042  1.0478 -0.1663 -1.0624
16817TIP3    H271867   5.000   0.993   4.009  1.1141 -0.4562 -0.1822
16818TIP3   OH271868   5.090   2.484   5.802  1.0232 -0.2014  0.5818
16818TIP3    H171869   5.038   2.423   5.855 -2.0104  1.7707  0.1479
16818TIP3    H271870   5.105   2.559   5.859  1.7190  0.0719  0.0578
16819TIP3   OH271871   2.267   0.946  12.057 -0.3803  0.0448 -0.0342
16819TIP3    H171872   2.350   0.993  12.060 -0.8694  1.0218 -1.0868
16819TIP3    H271873   2.225   0.965  12.140  0.8940 -1.3489  0.9801
16820TIP3   OH271874   6.081   4.718  12.789  0.2572  0.1694  0.1319
16820TIP3    H171875   6.002   4.740  12.839 -0.3604  0.4844 -0.9383
16820TIP3    H271876   6.100   4.798  12.739  3.3579  1.4155  2.9445
16821TIP3   OH271877   3.967   5.305  10.962 -0.0331 -0.4726 -0.0547
16821TIP3    H171878   3.939   5.359  11.036  0.5996  2.5872 -1.8620
16821TIP3    H271879   4.060   5.324  10.953 -0.0622 -0.9242 -1.5047
16822TIP3   OH271880   1.808   3.283   5.890  0.0266 -0.0604 -0.1779
16822TIP3    H171881   1.897   3.259   5.915  0.2235  1.1303  0.3166
16822TIP3    H271882   1.816   3.314   5.800 -0.2070 -1.6150 -0.7722
16823TIP3   OH271883   0.028   3.473   4.329 -0.1074 -0.1145  0.1160
16823TIP3    H171884   0.077   3.501   4.252 -0.8298 -0.7046 -0.5776
16823TIP3    H271885   0.083   3.408   4.372  0.0198 -0.2578 -0.2660
16824TIP3   OH271886   5.667   3.456  14.068  0.4453 -0.2419 -0.8521
16824TIP3    H171887   5.745   3.464  14.014  1.1933 -1.8452 -0.0702
16824TIP3    H271888   5.671   3.367  14.103 -1.6437 -0.3145 -0.6484
16825TIP3   OH271889   4.034   6.721  16.924 -0.1222 -0.9111  0.2767
16825TIP3    H171890   3.941   6.729  16.945  0.4174  3.0217  2.0848
16825TIP3    H271891   4.065   6.647  16.977 -1.9348 -1.4509  0.6448
16826TIP3   OH271892   0.426   5.993  16.101  0.0465  0.2159  0.0612
16826TIP3    H171893   0.508   6.032  16.070  0.2499  0.5616  1.0237
16826TIP3    H271894   0.432   5.901  16.074  0.3066  0.4554 -0.7426
16827TIP3   OH271895   6.113   6.535  11.399 -0.0596 -0.4315 -0.1933
16827TIP3    H171896   6.091   6.444  11.421 -2.6297  0.2726  0.5252
16827TIP3    H271897   6.072   6.549  11.314  1.0756 -0.1554 -0.7134
16828TIP3   OH271898   2.809   6.105   2.089  0.6180 -0.1794 -0.1523
16828TIP3    H171899   2.758   6.116   2.008  2.1674  0.8174 -1.0488
16828TIP3    H271900   2.830   6.012   2.091  0.0827 -0.3166 -0.6085
16829TIP3   OH271901   3.609   5.503  16.557 -0.3930  0.5564 -0.0320
16829TIP3    H171902   3.514   5.510  16.554 -0.4316 -0.1749 -0.8034
16829TIP3    H271903   3.630   5.427  16.503  0.7265  1.5448 -1.0359
16830TIP3   OH271904   2.401   2.726  15.911  0.5356 -0.4150 -0.0817
16830TIP3    H171905   2.311   2.743  15.883  0.0884 -0.8306  1.0463
16830TIP3    H271906   2.441   2.683  15.836 -0.5878 -1.4097 -0.1500
16831TIP3   OH271907   1.190   5.725   3.418  0.1029 -0.2733  0.0351
16831TIP3    H171908   1.170   5.645   3.369  1.2521 -0.4069 -0.2412
16831TIP3    H271909   1.164   5.705   3.508 -1.1725 -0.3511 -0.3331
16832TIP3   OH271910   4.664   5.016   4.795  0.1679  0.2992 -0.3908
16832TIP3    H171911   4.663   5.055   4.708  0.7633 -0.6546 -0.8452
16832TIP3    H271912   4.712   4.934   4.784  0.7074  0.4091  0.9519
16833TIP3   OH271913   6.799   1.594   2.311 -0.4607  0.2504 -0.1021
16833TIP3    H171914   6.755   1.511   2.332 -0.6496  0.2401 -0.5199
16833TIP3    H271915   6.729   1.649   2.275  0.0983 -0.2032 -1.9835
16834TIP3   OH271916   1.162   2.655   2.825  0.6965 -0.6207 -0.4221
16834TIP3    H171917   1.067   2.645   2.820  0.6638 -1.6699  1.2606
16834TIP3    H271918   1.179   2.744   2.793 -1.0265  0.1568  0.6801
16835TIP3   OH271919   5.249   5.929  16.490  0.2461  0.4319  0.1975
16835TIP3    H171920   5.329   5.981  16.482  1.0037 -0.8339 -0.7411
16835TIP3    H271921   5.194   5.958  16.417 -0.2192  1.3689  0.8982
16836TIP3   OH271922   2.239   3.255   1.842  0.1480 -0.2072  0.1298
16836TIP3    H171923   2.227   3.349   1.852  0.3411 -0.2013  0.3171
16836TIP3    H271924   2.150   3.221   1.831  0.1927  0.2024 -1.9424
16837TIP3   OH271925   4.707   1.176   2.340  0.0346 -0.0124 -0.6007
16837TIP3    H171926   4.664   1.199   2.423  1.4932  3.0280 -0.5379
16837TIP3    H271927   4.787   1.132   2.366 -0.7192 -1.3888 -0.5381
16838TIP3   OH271928   2.573   5.015  11.231 -0.4947  0.0957  0.2591
16838TIP3    H171929   2.555   5.014  11.325 -0.5639  1.8189  0.2909
16838TIP3    H271930   2.632   4.941  11.218 -0.6358 -0.2939  1.6243
16839TIP3   OH271931   6.556   5.940  14.787  0.0093  0.0688  0.1735
16839TIP3    H171932   6.640   5.921  14.746 -0.6027 -2.8928  0.0778
16839TIP3    H271933   6.573   5.937  14.881  0.1163 -0.1219  0.1489
16840TIP3   OH271934   2.303   0.199  14.132 -0.5176  0.1423  0.2124
16840TIP3    H171935   2.237   0.235  14.192 -1.6097 -0.1609 -0.7586
16840TIP3    H271936   2.327   0.115  14.170  0.9346  1.1665  1.7027
16841TIP3   OH271937   0.122   3.968  12.502 -0.0051 -0.1640 -0.6266
16841TIP3    H171938   0.098   3.948  12.593 -0.2311  1.3577 -0.3104
16841TIP3    H271939   0.039   3.982  12.458  0.0558  3.3722  0.0439
16842TIP3   OH271940   5.743   3.692  16.438  0.0060 -0.2620 -0.1205
16842TIP3    H171941   5.776   3.721  16.353  0.1376 -1.4671 -0.5004
16842TIP3    H271942   5.673   3.754  16.459  0.0234  0.0976 -1.0721
16843TIP3   OH271943   4.525   0.962   5.334 -0.0522 -0.0758 -0.2732
16843TIP3    H171944   4.495   0.888   5.387 -0.6469 -0.7057 -1.4331
16843TIP3    H271945   4.454   1.026   5.341  0.2314  0.1812  0.3185
16844TIP3   OH271946   2.395   5.321  15.277 -0.0405  0.0533  0.2639
16844TIP3    H171947   2.469   5.302  15.219 -0.7701 -2.1350 -0.0511
16844TIP3    H271948   2.322   5.339  15.217 -0.2293  0.1868  0.5332
16845TIP3   OH271949   0.870   2.540   3.622  0.0025 -0.3525  0.4543
16845TIP3    H171950   0.930   2.615   3.621  0.9657 -1.0129 -2.3874
16845TIP3    H271951   0.872   2.508   3.532 -1.9782 -2.5578  1.1156
16846TIP3   OH271952   3.593   1.322  11.807 -0.5157 -0.2498  0.1163
16846TIP3    H171953   3.561   1.235  11.783  1.8959 -0.4318 -3.1593
16846TIP3    H271954   3.679   1.306  11.845 -0.4136  0.6728  0.2895
16847TIP3   OH271955   2.823   2.471   0.760  0.7302  0.5946  0.2604
16847TIP3    H171956   2.842   2.378   0.762  0.3850  0.5280  0.5147
16847TIP3    H271957   2.902   2.512   0.798  2.2344  0.6612 -2.6706
16848TIP3   OH271958   0.905   3.900  13.094 -0.1251 -0.0250 -0.9939
16848TIP3    H171959   0.881   3.809  13.076  1.0340 -0.4687 -0.3962
16848TIP3    H271960   0.828   3.937  13.135 -0.2346 -1.0557 -0.2253
16849TIP3   OH271961   0.859   6.443  14.679  0.5752 -0.2716  0.1501
16849TIP3    H171962   0.765   6.458  14.691  0.7908  1.2511  0.0552
16849TIP3    H271963   0.863   6.360  14.631 -0.6915 -0.6176  0.5893
16850TIP3   OH271964   4.387   5.827   0.545 -0.0817 -0.3634  0.1354
16850TIP3    H171965   4.475   5.860   0.525 -0.2237 -0.7658 -1.3347
16850TIP3    H271966   4.401   5.734   0.565 -0.3070 -0.8612 -1.7899
16851TIP3   OH271967   6.120   1.116   3.999 -0.3991  0.1266 -0.4370
16851TIP3    H171968   6.141   1.209   3.985 -1.3648  0.7009  1.5111
16851TIP3    H271969   6.169   1.093   4.078 -0.2464 -1.0160 -0.8477
16852TIP3   OH271970   6.586   4.328  13.859  0.2106 -0.0545 -0.0002
16852TIP3    H171971   6.543   4.309  13.942  1.2370 -0.6472  0.4173
16852TIP3    H271972   6.525   4.386  13.813 -1.1170 -0.9936  0.4780
16853TIP3   OH271973   5.927   4.910   0.640 -0.3514  0.2962  0.2644
16853TIP3    H171974   5.952   4.833   0.692 -2.8679  1.0226  2.7852
16853TIP3    H271975   5.981   4.981   0.674  0.4823  0.1027 -0.6127
16854TIP3   OH271976   0.417   3.978  13.735  0.5347  0.0603  0.6102
16854TIP3    H171977   0.371   3.898  13.760 -0.0228 -0.1225 -0.9342
16854TIP3    H271978   0.510   3.955  13.740  0.4454 -0.0952  2.0117
16855TIP3   OH271979   2.450   0.670  11.658 -0.1291  0.5847  0.0978
16855TIP3    H171980   2.532   0.658  11.610  0.3436 -0.8555  1.1895
16855TIP3    H271981   2.447   0.764  11.677 -0.4490  1.2607 -2.8346
16856TIP3   OH271982   3.710   1.678  14.047  0.4768 -0.0722 -0.5870
16856TIP3    H171983   3.708   1.583  14.040 -0.6088 -0.0463 -0.8230
16856TIP3    H271984   3.618   1.704  14.050  0.7490  0.8573  1.2982
16857TIP3   OH271985   4.767   3.883   2.100  0.4254  0.3136 -0.4306
16857TIP3    H171986   4.725   3.796   2.103  0.8167  0.0459 -2.1022
16857TIP3    H271987   4.742   3.924   2.183 -0.2503 -1.1718  0.1375
16858TIP3   OH271988   4.070   6.170  14.462 -0.1432  0.1274 -0.3328
16858TIP3    H171989   4.161   6.158  14.436  0.0906 -0.0810  0.5357
16858TIP3    H271990   4.025   6.092  14.429  0.3589 -0.6620  0.7764
16859TIP3   OH271991   4.557   3.836   0.408 -0.6501 -0.6014  0.2479
16859TIP3    H171992   4.533   3.759   0.357 -0.7636  0.3275 -1.1378
16859TIP3    H271993   4.521   3.819   0.495 -0.6361 -2.1201 -0.0124
16860TIP3   OH271994   1.763   3.699   1.403  0.2162  0.1087  0.3441
16860TIP3    H171995   1.717   3.756   1.464 -0.9207 -0.4556  0.0401
16860TIP3    H271996   1.722   3.717   1.318  0.1289 -0.8534  0.1778
16861TIP3   OH271997   2.486   0.563   4.458  0.0019  0.1415  0.3274
16861TIP3    H171998   2.547   0.635   4.475 -0.8104  0.5081  1.8462
16861TIP3    H271999   2.485   0.512   4.539 -0.1805 -1.0330 -0.3883
16862TIP3   OH272000   3.287   6.111   1.241 -0.1655  0.0226 -0.5722
16862TIP3    H172001   3.369   6.115   1.291 -1.1114 -2.1367  1.4031
16862TIP3    H272002   3.240   6.191   1.265  0.7644  0.5817 -0.5817
16863TIP3   OH272003   2.467   5.262  12.598 -0.3499  0.0940  0.6183
16863TIP3    H172004   2.429   5.262  12.510  1.8412 -0.0665 -0.3945
16863TIP3    H272005   2.413   5.323  12.648 -1.6744  0.1498 -0.8082
16864TIP3   OH272006   6.389   1.966  11.811 -0.4368 -0.4642 -0.5571
16864TIP3    H172007   6.415   1.875  11.825 -0.2018 -0.4386 -0.8176
16864TIP3    H272008   6.377   1.973  11.716  0.0659 -0.0877 -0.5992
16865TIP3   OH272009   0.122   4.247   0.402  0.6580 -0.2392  0.2483
16865TIP3    H172010   0.064   4.256   0.326 -1.4584  1.2573  1.8893
16865TIP3    H272011   0.188   4.315   0.391  1.5314 -1.2936 -1.1659
16866TIP3   OH272012   6.563   6.636   3.596 -0.1835  0.3624 -0.0121
16866TIP3    H172013   6.637   6.597   3.642  0.5485  1.1397 -0.5078
16866TIP3    H272014   6.585   6.729   3.588  0.3124  0.0995 -2.9412
16867TIP3   OH272015   3.248   1.289  15.635  0.1081  0.0833  0.7022
16867TIP3    H172016   3.339   1.273  15.658  0.8773  0.3359 -1.9243
16867TIP3    H272017   3.229   1.228  15.564 -1.9951 -0.4019  1.5944
16868TIP3   OH272018   3.407   2.781   3.792 -0.0348  0.1409  0.5832
16868TIP3    H172019   3.462   2.853   3.762 -0.1287  0.1365  0.4035
16868TIP3    H272020   3.317   2.810   3.775 -0.0367 -0.4458 -0.4339
16869TIP3   OH272021   4.733   6.213   0.163 -0.2902 -0.3924 -0.0477
16869TIP3    H172022   4.823   6.183   0.152  0.1420  0.1599  1.6378
16869TIP3    H272023   4.732   6.301   0.124  0.3197  0.1851  1.1625
16870TIP3   OH272024   6.016   4.843  14.572  0.2005 -0.4630  0.0592
16870TIP3    H172025   6.081   4.846  14.502  0.5178 -0.3041  0.3575
16870TIP3    H272026   5.943   4.897  14.541 -0.7009 -2.2923 -1.1806
16871TIP3   OH272027   0.673   5.269  11.081 -0.0017 -0.3298  0.1544
16871TIP3    H172028   0.590   5.283  11.034  0.3749 -2.4283 -1.2556
16871TIP3    H272029   0.648   5.269  11.173 -1.4485 -0.1241 -0.2098
16872TIP3   OH272030   6.053   5.428  14.526 -0.3589 -0.0936 -0.4684
16872TIP3    H172031   6.112   5.478  14.469 -1.0349  0.6436 -0.5406
16872TIP3    H272032   6.110   5.388  14.591  0.0943  1.7669  0.3243
16873TIP3   OH272033   3.026   0.895  13.274  0.1081  0.0608  0.2395
16873TIP3    H172034   2.952   0.869  13.328  1.3766  2.2189  3.3391
16873TIP3    H272035   3.103   0.859  13.320  1.1855  0.7588 -0.9438
16874TIP3   OH272036   0.592   3.799   2.260 -0.2223  0.5159 -0.6391
16874TIP3    H172037   0.551   3.820   2.176 -2.0907 -2.4369 -0.6364
16874TIP3    H272038   0.522   3.807   2.324  0.1604 -0.9325  0.0057
16875TIP3   OH272039   6.697   5.134   6.020  0.2944 -0.3609  0.2861
16875TIP3    H172040   6.640   5.159   6.092  0.9815  0.2207  0.6405
16875TIP3    H272041   6.681   5.040   6.008 -0.8106 -0.1785  0.2947
16876TIP3   OH272042   2.099   2.429   1.017 -0.5448 -0.5145  0.2525
16876TIP3    H172043   2.019   2.378   1.033 -1.3423  0.9843  1.3151
16876TIP3    H272044   2.165   2.387   1.072 -1.5967  0.4617  2.4396
16877TIP3   OH272045   0.290   3.589   3.063 -0.5848  0.1919  0.1138
16877TIP3    H172046   0.311   3.509   3.111 -1.2874  0.3701  0.7413
16877TIP3    H272047   0.235   3.560   2.990 -0.1765  0.0156 -0.1292
16878TIP3   OH272048   2.098   4.107  13.924 -0.1827 -0.2156 -0.1172
16878TIP3    H172049   2.132   4.191  13.893  1.0088 -0.4241  0.5570
16878TIP3    H272050   2.074   4.060  13.844  0.0452  0.3874 -0.5479
16879TIP3   OH272051   0.227   5.210  16.940  0.3602 -0.2462 -0.1581
16879TIP3    H172052   0.318   5.180  16.928  0.7701  0.8305  0.2004
16879TIP3    H272053   0.185   5.138  16.988  1.2280 -0.4155  0.3725
16880TIP3   OH272054   4.886   3.959  12.805  0.2385  0.2496  0.4324
16880TIP3    H172055   4.928   4.012  12.738 -0.9460  0.6427 -0.0252
16880TIP3    H272056   4.802   4.002  12.821 -0.5511 -1.1935  0.4056
16881TIP3   OH272057   0.249   2.708   3.206  0.0041  0.2584  0.1179
16881TIP3    H172058   0.168   2.718   3.157  0.5160 -0.5587 -0.9329
16881TIP3    H272059   0.238   2.628   3.256 -0.3134  0.8166  0.9671
16882TIP3   OH272060   1.485   1.409  16.898 -0.8588  0.5120 -0.2990
16882TIP3    H172061   1.503   1.326  16.943 -1.1493 -0.0646 -1.2303
16882TIP3    H272062   1.518   1.476  16.959  0.3702 -0.3215  0.0090
16883TIP3   OH272063   1.334   3.747   5.503  0.9018 -0.2703  0.8363
16883TIP3    H172064   1.412   3.754   5.449  1.2522  0.7417  1.4381
16883TIP3    H272065   1.265   3.720   5.443  1.5812 -0.5699  0.1743
16884TIP3   OH272066   2.226   4.692  12.296  0.3386 -0.6594 -0.1218
16884TIP3    H172067   2.220   4.681  12.391  0.5088  2.3908  0.3404
16884TIP3    H272068   2.281   4.619  12.267  1.3678 -0.9537  2.3053
16885TIP3   OH272069   2.562   0.617  12.172 -0.0303  0.4578  0.0634
16885TIP3    H172070   2.518   0.684  12.121  0.9942  1.7837  0.8399
16885TIP3    H272071   2.655   0.629  12.152  0.2033 -0.4666  0.5278
16886TIP3   OH272072   6.119   4.000  11.436  0.2763  0.0782 -0.1729
16886TIP3    H172073   6.163   4.074  11.479 -0.1531  0.2978 -0.1062
16886TIP3    H272074   6.181   3.972  11.369  0.6089  0.2519  0.0556
16887TIP3   OH272075   5.066   1.884  13.515 -0.5307 -0.0735 -0.3386
16887TIP3    H172076   5.063   1.827  13.591  1.0776  0.2888  0.0283
16887TIP3    H272077   5.134   1.847  13.459 -0.0705  0.9768 -0.5073
16888TIP3   OH272078   4.215   4.462  11.436 -0.2784  0.0258 -0.4320
16888TIP3    H172079   4.298   4.443  11.392 -0.7857 -2.0303 -0.5961
16888TIP3    H272080   4.196   4.383  11.486 -1.7000  0.8229  0.3451
16889TIP3   OH272081   2.462   3.464   2.430  0.3741  0.0289  0.6241
16889TIP3    H172082   2.458   3.548   2.384 -0.6942 -0.2655  0.1367
16889TIP3    H272083   2.427   3.482   2.517  2.9384  0.7153  1.6020
16890TIP3   OH272084   6.137   6.505  15.076  0.0110  0.1286  0.1417
16890TIP3    H172085   6.199   6.459  15.020  0.3560  1.9617 -1.0571
16890TIP3    H272086   6.110   6.439  15.140  1.1823 -1.4484 -0.8988
16891TIP3   OH272087   2.101   1.418  14.359 -0.5143  0.6129 -0.0861
16891TIP3    H172088   2.087   1.513  14.357 -0.3310  0.6464  0.0939
16891TIP3    H272089   2.196   1.409  14.370 -0.4462  0.4029 -0.7837
16892TIP3   OH272090   4.003   6.545  16.115 -0.5054  0.4016  0.1943
16892TIP3    H172091   4.042   6.481  16.174  0.4589  0.2669 -0.5606
16892TIP3    H272092   3.923   6.503  16.083 -0.9438  0.4135  1.2535
16893TIP3   OH272093   6.797   1.016   5.892 -0.1551 -0.2040 -0.0913
16893TIP3    H172094   6.789   0.934   5.941 -0.4929  0.2377  0.6200
16893TIP3    H272095   6.778   0.992   5.802 -1.5090 -0.7010  0.2882
16894TIP3   OH272096   5.807   3.520  14.498  0.1533 -0.2029  0.0871
16894TIP3    H172097   5.843   3.560  14.419 -0.1357 -0.2204 -0.0560
16894TIP3    H272098   5.760   3.443  14.466  0.3693 -0.4316  0.3190
16895TIP3   OH272099   3.958   0.869   1.614 -0.1836 -0.1046  0.2234
16895TIP3    H172100   4.041   0.827   1.636  1.1233  1.0718 -2.1853
16895TIP3    H272101   3.899   0.796   1.593  1.2439 -0.8729 -1.2825
16896TIP3   OH272102   2.879   2.840  15.087  0.2213 -0.3199 -0.1139
16896TIP3    H172103   2.894   2.875  15.000  0.5430  2.0595  0.8063
16896TIP3    H272104   2.964   2.807  15.115  0.7762  1.3004  0.2266
16897TIP3   OH272105   2.630   5.257   4.730 -0.2362 -0.4092 -1.2404
16897TIP3    H172106   2.615   5.164   4.719  0.9935 -0.4501 -3.0636
16897TIP3    H272107   2.725   5.267   4.720 -0.4891  1.1742 -2.5234
16898TIP3   OH272108   3.906   5.921   2.301 -0.1308 -0.0568 -0.0041
16898TIP3    H172109   3.921   5.906   2.394 -1.6799 -2.3600 -0.0322
16898TIP3    H272110   3.838   5.988   2.298  1.5835  1.8071  0.3827
16899TIP3   OH272111   1.403   6.236  15.330  0.5015  0.2402 -0.2033
16899TIP3    H172112   1.358   6.234  15.246 -1.7725  3.4964  0.7237
16899TIP3    H272113   1.365   6.163  15.380 -0.6861  0.3877 -0.8677
16900TIP3   OH272114   3.360   1.192  11.701 -0.3975  0.1981  0.2788
16900TIP3    H172115   3.294   1.213  11.766 -2.0613  0.9763 -1.5611
16900TIP3    H272116   3.358   1.265  11.639  0.6912 -0.7627 -0.9837
16901TIP3   OH272117   1.331   3.337   3.971 -0.5805  0.0727  0.1361
16901TIP3    H172118   1.420   3.312   3.997 -0.3007  2.2307  1.5204
16901TIP3    H272119   1.313   3.283   3.894  2.1180 -0.0779 -0.5108
16902TIP3   OH272120   2.928   4.818  12.560 -0.3671 -0.0638  0.4135
16902TIP3    H172121   2.893   4.866  12.635  0.1774 -1.2533  1.4636
16902TIP3    H272122   3.019   4.799  12.585  0.4039  1.0960 -1.3342
16903TIP3   OH272123   6.597   0.103  14.649 -0.3322  0.3679  0.0903
16903TIP3    H172124   6.649   0.023  14.652 -0.6668  0.1501  2.3259
16903TIP3    H272125   6.509   0.073  14.624 -0.8840 -0.3248  2.5466
16904TIP3   OH272126   6.663   1.411  14.529  0.4262  0.5638 -0.4616
16904TIP3    H172127   6.600   1.433  14.461 -0.8596 -0.7147  0.2800
16904TIP3    H272128   6.639   1.466  14.603 -1.4623 -1.6382  0.6715
16905TIP3   OH272129   3.784   3.994  16.197 -0.1133  0.7664  0.3915
16905TIP3    H172130   3.831   3.911  16.205  1.0725  1.2570 -0.9449
16905TIP3    H272131   3.813   4.045  16.272  2.8778  1.6412 -1.1909
16906TIP3   OH272132   5.137   3.360   1.399  0.6563  0.1361 -0.0871
16906TIP3    H172133   5.138   3.455   1.390  2.6861  0.2223  0.6060
16906TIP3    H272134   5.070   3.343   1.465 -0.3784  0.9868 -0.8850
16907TIP3   OH272135   3.286   4.680  11.557  0.0054  0.2288 -0.5087
16907TIP3    H172136   3.346   4.614  11.521  0.8042  1.1880 -0.9896
16907TIP3    H272137   3.287   4.664  11.651  0.7124 -0.0406 -0.5536
16908TIP3   OH272138   5.250   1.604   5.104  0.1926  0.0200  0.1959
16908TIP3    H172139   5.297   1.661   5.165  0.4211  0.0484 -0.0059
16908TIP3    H272140   5.314   1.585   5.034  0.3017 -0.9134  0.5291
16909TIP3   OH272141   4.741   4.202  13.598  0.1093 -0.3172  0.2220
16909TIP3    H172142   4.781   4.260  13.533 -1.2706  1.1943  0.6514
16909TIP3    H272143   4.686   4.143  13.546  1.1772 -0.9777 -0.1829
16910TIP3   OH272144   5.193   6.761  14.042 -0.3520 -0.0167  0.0301
16910TIP3    H172145   5.153   6.682  14.005  0.2704 -1.4776  2.2634
16910TIP3    H272146   5.248   6.795  13.972 -1.0579 -1.2355 -1.1702
16911TIP3   OH272147   5.801   3.765  14.031  0.3190 -0.3358  0.2797
16911TIP3    H172148   5.806   3.677  13.996  0.6511 -0.8221  1.5077
16911TIP3    H272149   5.725   3.804  13.988 -0.4944 -1.5874  0.5494
16912TIP3   OH272150   5.124   2.775  16.571 -0.1076  0.3336  0.6468
16912TIP3    H172151   5.137   2.853  16.517  0.2980  0.4045  0.8486
16912TIP3    H272152   5.029   2.759  16.567  0.1514 -1.0329 -2.0150
16913TIP3   OH272153   3.257   3.623   1.884  0.2302  0.3960  0.5560
16913TIP3    H172154   3.346   3.616   1.918  0.5583  2.3639  0.2115
16913TIP3    H272155   3.245   3.717   1.866 -1.9986  0.2396  0.8565
16914TIP3   OH272156   4.507   1.814   5.338 -0.1706 -0.1315 -0.3584
16914TIP3    H172157   4.602   1.828   5.341 -0.1836 -0.1517  0.2555
16914TIP3    H272158   4.472   1.878   5.400 -0.6858  0.8910 -1.6596
16915TIP3   OH272159   3.763   0.722   4.208 -0.1645  0.3194 -0.2298
16915TIP3    H172160   3.826   0.764   4.266 -0.9204  0.0866  0.7910
16915TIP3    H272161   3.800   0.635   4.191  0.0925  0.4104 -0.1274
16916TIP3   OH272162   2.714   0.970   0.066 -0.4276  0.3582  0.9507
16916TIP3    H172163   2.705   1.034   0.137 -2.6090  0.4585  0.6615
16916TIP3    H272164   2.745   0.890   0.109 -1.5504  0.4642  2.0165
16917TIP3   OH272165   5.960   5.171   5.572  0.3342  0.5855 -0.1047
16917TIP3    H172166   5.997   5.088   5.603 -0.8756  0.8500  2.2934
16917TIP3    H272167   5.992   5.236   5.635  0.3739  1.7786 -1.3153
16918TIP3   OH272168   6.554   5.604   0.767 -0.1995  0.1074 -0.3965
16918TIP3    H172169   6.609   5.559   0.702 -0.6413  0.4727 -1.0304
16918TIP3    H272170   6.615   5.629   0.836 -0.0816 -2.2817  0.4438
16919TIP3   OH272171   6.773   0.456   1.341  0.1207 -0.0955 -0.0876
16919TIP3    H172172   6.793   0.509   1.264 -0.1199  0.2658  0.0934
16919TIP3    H272173   6.692   0.494   1.375  0.8039  0.4576  0.9775
16920TIP3   OH272174   5.986   5.587  14.922 -0.3780 -0.4747 -0.0706
16920TIP3    H172175   5.939   5.579  14.839 -0.2702 -2.0013 -0.0064
16920TIP3    H272176   6.047   5.514  14.923  1.3117  0.8645  0.3292
16921TIP3   OH272177   1.830   3.138   2.357  0.8803 -0.0482 -0.4516
16921TIP3    H172178   1.767   3.199   2.395  2.9909  1.1226  1.4526
16921TIP3    H272179   1.781   3.090   2.291 -1.5470  1.8978 -0.1952
16922TIP3   OH272180   2.109   0.563  12.822  0.1420 -0.1246 -0.0610
16922TIP3    H172181   2.181   0.507  12.792  1.1776  1.1943 -0.1398
16922TIP3    H272182   2.152   0.637  12.864 -1.2147  0.2011  0.8246
16923TIP3   OH272183   5.950   5.132  11.904 -0.3702  0.2685  0.5132
16923TIP3    H172184   6.022   5.116  11.844 -0.5632 -1.7038  0.7388
16923TIP3    H272185   5.975   5.086  11.984 -0.1484  2.7643  1.9813
16924TIP3   OH272186   1.163   0.099   5.709  0.4361 -0.3277  0.3272
16924TIP3    H172187   1.196   0.083   5.621  0.1498 -2.8426  0.5946
16924TIP3    H272188   1.224   0.162   5.747  1.8053 -0.8337 -0.9567
16925TIP3   OH272189   2.504   3.038   4.696  0.2287  0.3398 -0.6115
16925TIP3    H172190   2.435   3.101   4.716  1.4894  1.4629  0.4387
16925TIP3    H272191   2.535   3.063   4.609 -3.3665 -2.7944 -3.1570
16926TIP3   OH272192   3.079   6.430  12.988  0.2011  0.0464 -0.5290
16926TIP3    H172193   3.103   6.505  12.933  0.8857  0.1671 -0.0775
16926TIP3    H272194   3.034   6.468  13.062  0.9790  0.0710 -0.0549
16927TIP3   OH272195   2.841   5.809   2.639  0.7526 -0.6913  0.7061
16927TIP3    H172196   2.836   5.729   2.691  1.9299 -1.0802  0.2497
16927TIP3    H272197   2.928   5.845   2.658  1.1819 -0.7925 -0.8998
16928TIP3   OH272198   0.837   6.228   0.518  0.1850  0.6150 -0.5007
16928TIP3    H172199   0.786   6.149   0.500 -0.2531  0.8468 -0.3025
16928TIP3    H272200   0.820   6.248   0.610  1.4522  0.1278 -0.1433
16929TIP3   OH272201   3.332   1.944  13.985  0.1368 -0.0176  0.4061
16929TIP3    H172202   3.351   1.954  13.891 -0.6838 -0.7828  0.1395
16929TIP3    H272203   3.372   1.860  14.008  1.4484  0.7649  1.0663
16930TIP3   OH272204   3.884   0.682   4.629  0.2748 -0.0101  0.5381
16930TIP3    H172205   3.824   0.756   4.617 -1.2105 -1.2321 -0.0604
16930TIP3    H272206   3.922   0.668   4.542  1.6596  0.9062  0.9691
16931TIP3   OH272207   1.511   6.631   5.247  0.3944 -0.6285  0.2736
16931TIP3    H172208   1.604   6.621   5.226 -0.0491  0.6642 -2.6909
16931TIP3    H272209   1.469   6.553   5.210  0.3532 -1.8846  2.7552
16932TIP3   OH272210   2.491   2.944   4.136 -0.2493  0.1687  0.3744
16932TIP3    H172211   2.474   2.850   4.129  1.8089 -0.4906  2.6903
16932TIP3    H272212   2.405   2.983   4.151 -0.9316 -1.6081  1.3538
16933TIP3   OH272213   0.769   2.072   1.942  0.3601 -0.0548  0.7517
16933TIP3    H172214   0.800   2.145   1.996  0.0810 -0.7152  1.8259
16933TIP3    H272215   0.689   2.042   1.985  1.1059 -1.7573  1.0078
16934TIP3   OH272216   3.790   4.178  13.077 -0.2933 -0.6042  0.3284
16934TIP3    H172217   3.842   4.180  13.157 -0.2407  2.3714  0.3362
16934TIP3    H272218   3.757   4.089  13.072  0.5713 -1.1690  3.0842
16935TIP3   OH272219   6.476   2.514   0.156  0.2369  0.0093  0.7829
16935TIP3    H172220   6.542   2.582   0.148  0.1587  0.0913  0.8370
16935TIP3    H272221   6.396   2.560   0.182 -0.1489  0.0594 -0.4669
16936TIP3   OH272222   0.219   6.328  13.256 -0.2057  0.0571 -0.3014
16936TIP3    H172223   0.250   6.347  13.344  0.7080 -0.8789 -0.4038
16936TIP3    H272224   0.157   6.399  13.237  1.1044  1.4330  0.2984
16937TIP3   OH272225   1.556   4.188  14.782  0.1728 -0.3602 -0.2489
16937TIP3    H172226   1.636   4.181  14.731  0.4021 -0.8595  0.1764
16937TIP3    H272227   1.508   4.107  14.765 -0.4949  0.1615 -0.9134
16938TIP3   OH272228   5.863   1.806  16.559  0.0475 -0.9099 -0.0473
16938TIP3    H172229   5.889   1.746  16.489  1.1597  0.4260 -0.8362
16938TIP3    H272230   5.923   1.881  16.550 -1.1097  0.2043  1.0612
16939TIP3   OH272231   2.397   4.078  11.381 -0.4139  0.1444 -0.3190
16939TIP3    H172232   2.402   4.105  11.290 -1.0751 -0.1599 -0.4513
16939TIP3    H272233   2.445   4.145  11.429 -1.3460  1.1090 -0.7192
16940TIP3   OH272234   6.517   2.232  14.733  0.1719  0.0760 -0.2194
16940TIP3    H172235   6.599   2.183  14.734  0.1087 -0.0227  0.2993
16940TIP3    H272236   6.452   2.169  14.764 -0.1742  0.0299 -1.0157
16941TIP3   OH272237   6.209   3.330   0.573 -0.0755  0.0039 -0.3259
16941TIP3    H172238   6.180   3.365   0.657  0.7755 -1.3926  0.5773
16941TIP3    H272239   6.128   3.319   0.523 -0.4622  2.2620 -0.3078
16942TIP3   OH272240   3.859   6.788  16.185 -0.0968  0.6606 -0.2610
16942TIP3    H172241   3.895   6.700  16.172 -0.6194  0.4921 -0.6207
16942TIP3    H272242   3.886   6.812  16.273  1.7065  0.9352 -0.8394
16943TIP3   OH272243   5.628   5.459   5.882  0.0487  0.5134 -0.4912
16943TIP3    H172244   5.704   5.483   5.828 -0.5329  2.9798 -0.3631
16943TIP3    H272245   5.663   5.452   5.971  0.3833  0.0921 -0.6528
16944TIP3   OH272246   5.794   3.104   4.980  0.1011 -0.1355 -0.2908
16944TIP3    H172247   5.821   3.017   5.011 -0.3214  0.0124  0.5245
16944TIP3    H272248   5.709   3.089   4.939  0.0700 -0.1213 -0.2313
16945TIP3   OH272249   2.964   3.525  16.350  0.3563 -0.1893  0.1663
16945TIP3    H172250   3.026   3.594  16.376 -0.1043  0.4735 -0.4666
16945TIP3    H272251   3.019   3.455  16.315  0.9403 -0.7633  2.1069
16946TIP3   OH272252   2.846   5.284  10.975  0.3764 -0.0793  0.2812
16946TIP3    H172253   2.902   5.234  11.034  1.2831  0.6822  0.0858
16946TIP3    H272254   2.904   5.315  10.906 -0.5163 -0.2796 -0.5929
16947TIP3   OH272255   3.693   5.606  13.697 -0.3351 -0.0921  0.4292
16947TIP3    H172256   3.712   5.536  13.759 -0.6952 -0.5366  0.0427
16947TIP3    H272257   3.723   5.573  13.613  0.9468  0.8555  0.4877
16948TIP3   OH272258   0.538   3.086   0.933 -0.4365  0.3979 -0.2266
16948TIP3    H172259   0.531   3.088   1.028  3.4417  1.0572  0.1790
16948TIP3    H272260   0.492   3.164   0.903 -1.3230  0.4087  1.0904
16949TIP3   OH272261   4.543   4.918   3.462  0.2149 -0.8411  0.5237
16949TIP3    H172262   4.479   4.896   3.530  2.6251 -1.5884  2.6932
16949TIP3    H272263   4.556   4.836   3.414 -0.4585 -0.6674  0.0242
16950TIP3   OH272264   6.047   0.469  13.922 -0.1628 -0.0589 -0.6268
16950TIP3    H172265   5.978   0.518  13.878 -0.2091  0.6718  0.2350
16950TIP3    H272266   6.000   0.399  13.968 -0.4568  0.9149  0.6223
16951TIP3   OH272267   0.465   4.137   3.060  0.0415  0.0341 -0.1825
16951TIP3    H172268   0.475   4.230   3.076  1.3147  0.0094 -0.7303
16951TIP3    H272269   0.381   4.114   3.100 -0.1074  1.3319  0.2716
16952TIP3   OH272270   4.583   5.919  12.098 -0.3876  0.0148  0.3470
16952TIP3    H172271   4.520   5.973  12.145 -0.2225 -0.0653  0.6672
16952TIP3    H272272   4.665   5.929  12.148 -0.1736  0.0341 -0.0013
16953TIP3   OH272273   4.128   5.175  16.032  0.3438  0.0996 -0.8432
16953TIP3    H172274   4.035   5.154  16.034  0.7119 -1.6414 -0.0311
16953TIP3    H272275   4.132   5.269  16.049 -1.2612  0.2549 -1.1641
16954TIP3   OH272276   1.096   3.113   1.532 -0.1680 -0.9191  0.1394
16954TIP3    H172277   1.191   3.114   1.543 -0.1632  1.7139  0.6367
16954TIP3    H272278   1.081   3.060   1.454  1.8421 -0.3416 -0.6994
16955TIP3   OH272279   5.865   6.387   0.831 -0.1584  0.3297  0.0081
16955TIP3    H172280   5.918   6.449   0.879  0.1556 -0.0384  0.1436
16955TIP3    H272281   5.866   6.307   0.884  0.5374 -0.2232 -0.7937
16956TIP3   OH272282   0.076   2.889  13.778  0.6626  0.2997  0.4863
16956TIP3    H172283   0.058   2.902  13.685  1.5960  0.1539  0.2712
16956TIP3    H272284   0.057   2.974  13.818  0.5150  0.4434  0.1162
16957TIP3   OH272285   1.186   0.847   0.294 -0.0988  0.6849 -0.4115
16957TIP3    H172286   1.103   0.883   0.323  0.7340  1.7787  0.7174
16957TIP3    H272287   1.230   0.920   0.249 -0.0019 -0.0610 -1.5865
16958TIP3   OH272288   4.919   6.368  14.114  0.0011 -0.7100 -0.6384
16958TIP3    H172289   4.841   6.368  14.058 -0.2241 -1.4882 -0.3423
16958TIP3    H272290   4.899   6.430  14.184 -0.0281 -0.3103 -0.9964
16959TIP3   OH272291   3.009   4.975   1.389 -0.2152  0.5214  0.1356
16959TIP3    H172292   3.089   4.961   1.337 -1.5894 -1.1775 -1.6651
16959TIP3    H272293   3.002   5.070   1.395  1.5495  0.7257 -0.2935
16960TIP3   OH272294   4.813   4.934  14.114  0.3477  0.2564 -0.1785
16960TIP3    H172295   4.898   4.890  14.123 -0.2165 -1.0427 -0.8788
16960TIP3    H272296   4.777   4.936  14.202  1.0416  0.6944  0.1022
16961TIP3   OH272297   2.483   2.955   5.640  0.4270 -0.5804 -0.0466
16961TIP3    H172298   2.510   2.913   5.722 -0.5438 -2.3542 -0.5899
16961TIP3    H272299   2.388   2.961   5.647  0.5372  2.0516  0.1986
16962TIP3   OH272300   0.347   3.628   6.244 -0.0211  0.4464  0.3675
16962TIP3    H172301   0.259   3.628   6.206 -1.2766 -0.7092  2.9948
16962TIP3    H272302   0.382   3.541   6.222 -0.9649 -0.4393  2.1397
16963TIP3   OH272303   5.938   5.787  15.700  0.5876  0.0881 -0.2702
16963TIP3    H172304   6.012   5.740  15.662 -0.8916 -0.8995 -2.0697
16963TIP3    H272305   5.905   5.841  15.628 -1.9486 -1.4033 -0.3278
16964TIP3   OH272306   3.867   0.484  13.507 -0.4738  0.2254 -0.0389
16964TIP3    H172307   3.928   0.558  13.512 -0.2501 -0.0093  3.1236
16964TIP3    H272308   3.892   0.436  13.428 -0.2215  3.1145 -1.8352
16965TIP3   OH272309   5.495   3.804  16.384  0.3745 -0.1754 -0.1625
16965TIP3    H172310   5.414   3.758  16.360  0.7831 -0.6713 -0.6106
16965TIP3    H272311   5.465   3.879  16.435 -0.3390 -0.6564  0.1553
16966TIP3   OH272312   4.165   6.643   3.693  0.3911  0.0719  0.4002
16966TIP3    H172313   4.188   6.688   3.774 -0.8221  1.7633 -0.1372
16966TIP3    H272314   4.218   6.687   3.626 -0.7666  0.7036 -0.1243
16967TIP3   OH272315   4.532   0.477   4.249  0.1316  0.2088 -0.2257
16967TIP3    H172316   4.492   0.536   4.314  0.1871 -0.5304  0.4931
16967TIP3    H272317   4.595   0.533   4.202  0.1345  0.7448  0.3984
16968TIP3   OH272318   3.308   5.049   2.223  0.4499  0.2920 -0.2988
16968TIP3    H172319   3.301   5.131   2.176  2.1526  0.1421 -0.8709
16968TIP3    H272320   3.340   4.986   2.158  1.4455 -0.2599  0.6936
16969TIP3   OH272321   0.698   3.241  14.710 -0.3852  0.0193 -0.0966
16969TIP3    H172322   0.695   3.171  14.776  2.1146 -1.0805 -1.0334
16969TIP3    H272323   0.685   3.195  14.627  0.0520  0.8514 -0.6331
16970TIP3   OH272324   1.634   2.222   5.690  0.3258  0.5920 -0.1129
16970TIP3    H172325   1.645   2.275   5.611 -1.0101  0.4986 -0.3791
16970TIP3    H272326   1.685   2.142   5.673 -1.3400 -0.2079 -1.6440
16971TIP3   OH272327   5.330   3.291  11.466 -0.4725  0.2244 -0.0750
16971TIP3    H172328   5.313   3.384  11.481 -0.8455 -0.0202  1.1894
16971TIP3    H272329   5.413   3.288  11.420 -0.5952  1.1939 -0.3785
16972TIP3   OH272330   1.836   5.654  11.243 -0.2651 -1.0311  0.5200
16972TIP3    H172331   1.844   5.717  11.315 -0.3594 -0.6400  0.1919
16972TIP3    H272332   1.894   5.688  11.175  0.3790 -1.7868  0.6792
16973TIP3   OH272333   2.634   3.361   3.104 -0.6472 -0.4701 -0.4089
16973TIP3    H172334   2.595   3.441   3.138  0.3342 -0.3802  0.5815
16973TIP3    H272335   2.726   3.383   3.090 -0.9316 -0.6202 -2.8701
16974TIP3   OH272336   3.565   4.289   3.607 -0.5958 -0.8417  0.2818
16974TIP3    H172337   3.574   4.332   3.692  1.6027 -1.2760  0.3313
16974TIP3    H272338   3.487   4.234   3.616 -1.7014  0.8091  1.2150
16975TIP3   OH272339   5.932   4.759  13.235 -0.3137 -0.3324 -0.3911
16975TIP3    H172340   5.854   4.706  13.247  0.1165 -1.1894 -1.1958
16975TIP3    H272341   6.003   4.707  13.274 -0.2678  0.8821  1.2388
16976TIP3   OH272342   6.166   6.145   5.388 -0.2884  0.0934 -0.1394
16976TIP3    H172343   6.254   6.163   5.354 -0.9297 -0.4431 -2.2653
16976TIP3    H272344   6.181   6.091   5.466  1.3010  2.0487  0.9973
16977TIP3   OH272345   0.605   0.454   4.539  0.0515  0.0783  0.5951
16977TIP3    H172346   0.646   0.463   4.453  0.0831 -0.3027  0.5670
16977TIP3    H272347   0.546   0.529   4.545 -0.6366 -0.3774 -0.1534
16978TIP3   OH272348   6.544   5.219   4.310  0.8139 -0.2419  0.3211
16978TIP3    H172349   6.483   5.171   4.366  0.7048  1.2539  1.5627
16978TIP3    H272350   6.488   5.256   4.241  0.2286  1.2936  1.5718
16979TIP3   OH272351   4.668   5.882   1.714  0.0656 -0.1317 -0.0024
16979TIP3    H172352   4.574   5.887   1.701  0.1586  0.0449 -0.6360
16979TIP3    H272353   4.687   5.788   1.723  0.1655 -0.4489 -2.6345
16980TIP3   OH272354   6.662   0.424  10.391 -0.5111  0.3395 -0.0107
16980TIP3    H172355   6.571   0.443  10.413  0.0061  1.8394  1.0008
16980TIP3    H272356   6.664   0.330  10.376 -2.5849  0.5295 -1.9733
16981TIP3   OH272357   4.073   0.845   2.889 -0.5256  0.0890 -0.3011
16981TIP3    H172358   4.011   0.889   2.948  0.6869 -0.4447  1.4612
16981TIP3    H272359   4.041   0.755   2.884  0.1543 -0.2210  0.7195
16982TIP3   OH272360   5.067   5.246   5.106  0.0929 -0.3770  0.4736
16982TIP3    H172361   5.045   5.253   5.199  0.0391  0.6023  0.4010
16982TIP3    H272362   4.993   5.200   5.068 -0.4190  0.2018  0.7426
16983TIP3   OH272363   1.116   5.239  14.426  0.0957 -0.0575 -0.3068
16983TIP3    H172364   1.169   5.296  14.482  0.2745 -1.3857  0.9322
16983TIP3    H272365   1.143   5.261  14.337 -0.0954  2.0188  0.0928
16984TIP3   OH272366   1.776   6.794   3.273  0.2608 -0.1869  0.1025
16984TIP3    H172367   1.726   6.876   3.266  1.0193  0.4420  1.5273
16984TIP3    H272368   1.725   6.740   3.333 -0.4129 -0.9346 -1.0988
16985TIP3   OH272369   1.789   6.740   5.431  0.1252 -0.6473  0.2696
16985TIP3    H172370   1.782   6.673   5.363  2.9608 -1.8642  1.0597
16985TIP3    H272371   1.784   6.691   5.514 -0.9971  0.5428  0.9498
16986TIP3   OH272372   0.128   6.607  13.842 -0.1819 -0.0677 -0.2511
16986TIP3    H172373   0.159   6.658  13.917  0.1881 -0.0915 -0.3825
16986TIP3    H272374   0.183   6.528  13.842 -1.1722 -0.7855  0.3310
16987TIP3   OH272375   2.760   4.217   0.682  0.1389  0.1677  0.0692
16987TIP3    H172376   2.813   4.275   0.628 -1.5570  0.5033 -1.3345
16987TIP3    H272377   2.730   4.149   0.622 -1.7088  0.4918  0.5367
16988TIP3   OH272378   4.243   3.909  14.864  0.0851 -0.0678 -0.4352
16988TIP3    H172379   4.208   3.965  14.794  0.3188 -1.3201 -1.6058
16988TIP3    H272380   4.165   3.866  14.900 -0.2099  1.6381  1.1093
16989TIP3   OH272381   0.399   0.578   6.190  0.3791  0.0122 -0.0105
16989TIP3    H172382   0.391   0.661   6.237 -1.1902 -0.3158  0.3877
16989TIP3    H272383   0.357   0.594   6.106  1.4354  0.0384 -0.5440
16990TIP3   OH272384   6.032   4.281  14.679 -0.1987  0.4392  0.2768
16990TIP3    H172385   5.987   4.244  14.604 -1.2701 -0.3134  1.2502
16990TIP3    H272386   6.104   4.221  14.697  0.3711  0.8959 -0.4440
16991TIP3   OH272387   2.266   2.610   3.474 -0.4679  0.5462 -0.0334
16991TIP3    H172388   2.337   2.546   3.474 -0.8802  0.0243  2.2089
16991TIP3    H272389   2.186   2.558   3.470 -0.7733  1.0059 -0.0314
16992TIP3   OH272390   6.159   3.686   1.812  0.0653 -0.2073  0.4966
16992TIP3    H172391   6.225   3.732   1.761 -1.3530  0.2837 -1.0004
16992TIP3    H272392   6.123   3.753   1.870  2.3353 -0.9774  2.9864
16993TIP3   OH272393   6.760   4.643  14.698 -0.0643 -0.4155  0.2665
16993TIP3    H172394   6.789   4.565  14.745  2.1305  0.3673  0.2996
16993TIP3    H272395   6.664   4.636  14.698  0.0473 -2.9123  0.5614
16994TIP3   OH272396   5.162   3.459   6.718  0.1913 -0.4311  0.7112
16994TIP3    H172397   5.257   3.443   6.717  0.0247 -1.6383  1.3611
16994TIP3    H272398   5.141   3.486   6.629  1.0729 -0.7057  0.4086
16995TIP3   OH272399   3.076   0.852  14.240 -0.3883  0.4995 -0.6558
16995TIP3    H172400   3.159   0.819  14.274 -0.8782 -1.4591 -1.2449
16995TIP3    H272401   3.098   0.936  14.200  1.2295  0.1823 -0.5017
16996TIP3   OH272402   5.279   6.043  14.750  0.0099  0.4509 -0.1164
16996TIP3    H172403   5.184   6.043  14.739 -0.0726  1.3776  0.4963
16996TIP3    H272404   5.308   6.123  14.705  0.3617  0.8099  0.7375
16997TIP3   OH272405   6.501   1.090   4.401 -0.2792 -0.5264 -0.0474
16997TIP3    H172406   6.486   1.131   4.486  2.3812  1.3110 -0.3283
16997TIP3    H272407   6.535   1.003   4.423 -1.0866 -0.6691  0.7032
16998TIP3   OH272408   3.866   1.351  12.705 -0.3786 -0.0960 -0.0427
16998TIP3    H172409   3.927   1.418  12.673 -0.3956  0.0298  0.1842
16998TIP3    H272410   3.922   1.289  12.753 -0.5709  0.6890  1.2603
16999TIP3   OH272411   5.043   4.250  15.007 -0.5225 -0.4409  0.6661
16999TIP3    H172412   4.955   4.279  15.029 -0.3276  1.3313 -0.7058
16999TIP3    H272413   5.082   4.226  15.091 -1.1037  2.2857  1.8151
17000TIP3   OH272414   0.494   2.076   5.926 -0.0134 -0.1269 -0.0366
17000TIP3    H172415   0.492   2.163   5.886 -0.9567 -0.7335 -1.3634
17000TIP3    H272416   0.562   2.083   5.994 -0.1208  1.6492 -0.0605
17001TIP3   OH272417   6.415   2.253   4.428 -0.5593 -0.2906 -0.3999
17001TIP3    H172418   6.475   2.179   4.437 -1.4166 -0.8500  1.0608
17001TIP3    H272419   6.354   2.225   4.359  0.2805 -0.0880 -1.2553
17002TIP3   OH272420   3.697   3.701   3.445  0.3106  0.5432 -0.3124
17002TIP3    H172421   3.640   3.687   3.369 -0.8236  1.4375  0.3426
17002TIP3    H272422   3.637   3.701   3.519  1.2233  1.1305  0.4396
17003TIP3   OH272423   5.270   6.198   1.675  0.0603 -0.2115  0.1706
17003TIP3    H172424   5.244   6.164   1.590  1.5612  1.5708 -1.0711
17003TIP3    H272425   5.331   6.269   1.656  2.3413 -1.2574  2.7714
17004TIP3   OH272426   2.649   2.949   1.742  0.3997  0.1986  0.6397
17004TIP3    H172427   2.709   3.022   1.757 -2.2594  3.3804 -2.4812
17004TIP3    H272428   2.587   2.954   1.815  0.2947  1.0587  0.5026
17005TIP3   OH272429   4.400   2.067  14.090  0.2350  0.1921 -0.0657
17005TIP3    H172430   4.440   2.124  14.025 -0.9019  2.1000  0.8382
17005TIP3    H272431   4.310   2.098  14.098  0.7070  1.0929  3.4841
17006TIP3   OH272432   3.102   1.249   4.556 -0.6007 -0.3565 -0.1476
17006TIP3    H172433   3.152   1.327   4.536 -0.3295 -0.4053  0.3264
17006TIP3    H272434   3.012   1.271   4.533 -0.0524 -1.1027 -3.4028
17007TIP3   OH272435   4.602   5.528  15.461 -0.0765 -0.3618  0.0761
17007TIP3    H172436   4.696   5.545  15.453 -0.1539  0.3411  0.6268
17007TIP3    H272437   4.596   5.454  15.522  0.1089 -0.2947  0.1757
17008TIP3   OH272438   4.564   1.978  14.848  0.0311 -0.4214 -1.0634
17008TIP3    H172439   4.477   1.979  14.888  0.7153 -0.0845  0.4861
17008TIP3    H272440   4.623   2.003  14.919  1.4229 -0.8636 -2.0295
17009TIP3   OH272441   5.669   3.421   2.620  0.3080 -0.2127 -0.3064
17009TIP3    H172442   5.638   3.495   2.569  0.2911  0.3255  0.4719
17009TIP3    H272443   5.658   3.345   2.562  0.4874  0.4083 -1.1637
17010TIP3   OH272444   1.114   6.742  11.138  0.1410 -0.0807 -0.2439
17010TIP3    H172445   1.079   6.688  11.068 -2.3057 -1.2409  1.7153
17010TIP3    H272446   1.045   6.806  11.157 -0.6835 -1.6663  2.9495
17011TIP3   OH272447   2.687   0.253  13.533 -0.0949  0.0295 -0.2538
17011TIP3    H172448   2.654   0.178  13.484  0.0827 -0.2233  0.0126
17011TIP3    H272449   2.726   0.310  13.467  2.2284 -1.3814 -0.1793
17012TIP3   OH272450   3.680   4.515   2.726  0.9035 -0.0477  0.2913
17012TIP3    H172451   3.721   4.512   2.813  0.0000  0.5922  0.7602
17012TIP3    H272452   3.607   4.577   2.736  1.6363  1.1488 -1.2801
17013TIP3   OH272453   3.945   4.573  16.119 -0.0772 -0.0517 -0.1606
17013TIP3    H172454   3.968   4.506  16.054  0.6274  0.5657 -0.5581
17013TIP3    H272455   4.005   4.558  16.192 -1.6943 -1.5525  0.9413
17014TIP3   OH272456   2.988   1.034   3.528  0.4086  0.3364  0.7104
17014TIP3    H172457   2.983   1.068   3.438  1.6913 -0.8034  0.1843
17014TIP3    H272458   3.069   1.071   3.563  0.1708  0.3661  1.2302
17015TIP3   OH272459   0.742   0.826   2.947  0.6068 -0.0564 -0.1307
17015TIP3    H172460   0.713   0.768   3.018 -0.2075  0.7271  0.1878
17015TIP3    H272461   0.724   0.777   2.867 -0.0679 -0.2465  0.1357
17016TIP3   OH272462   1.830   3.868   2.960  0.4348  0.1805 -0.1421
17016TIP3    H172463   1.823   3.773   2.952  1.9857 -0.2142  2.2838
17016TIP3    H272464   1.785   3.902   2.883  0.7577 -2.5285 -1.6282
17017TIP3   OH272465   2.130   1.093  11.428  0.2054 -0.0132 -0.0587
17017TIP3    H172466   2.190   1.156  11.469  2.1783 -0.8557 -1.4678
17017TIP3    H272467   2.127   1.119  11.336 -0.4461 -0.8521 -0.2846
17018TIP3   OH272468   5.266   0.665   1.236 -0.4283  0.0549  0.6627
17018TIP3    H172469   5.338   0.711   1.279 -0.7956  1.9723 -0.6719
17018TIP3    H272470   5.308   0.607   1.173 -0.0032 -0.3336  1.2936
17019TIP3   OH272471   6.666   2.611   4.584  0.5169 -0.6958  0.4342
17019TIP3    H172472   6.689   2.524   4.552  2.8373  0.4498 -1.2918
17019TIP3    H272473   6.702   2.616   4.672  0.0267 -1.5714  0.6941
17020TIP3   OH272474   2.991   6.561  13.457 -0.8392  0.4086  0.1320
17020TIP3    H172475   3.086   6.568  13.456 -0.7128  0.6088 -3.9075
17020TIP3    H272476   2.960   6.651  13.457 -1.0938  0.3441  1.5699
17021TIP3   OH272477   3.964   5.647   6.036 -0.0302 -0.3938  0.0821
17021TIP3    H172478   4.014   5.619   5.959 -1.7452  0.8660 -1.5967
17021TIP3    H272479   3.896   5.580   6.046 -0.9910  0.4099 -0.7633
17022TIP3   OH272480   2.134   5.712  13.735 -0.0055  0.1250  0.7879
17022TIP3    H172481   2.112   5.646  13.669 -0.2099  1.1474 -0.1961
17022TIP3    H272482   2.131   5.664  13.818 -1.9341 -0.7094  0.3058
17023TIP3   OH272483   0.301   5.029   0.228  0.5031 -0.1449 -0.4920
17023TIP3    H172484   0.386   4.990   0.246 -0.1090 -1.0303  0.6330
17023TIP3    H272485   0.320   5.120   0.205  1.6712  0.0176  1.0023
17024TIP3   OH272486   4.029   0.994  13.808  0.2029 -0.3155  0.2943
17024TIP3    H172487   4.107   0.999  13.864 -0.1141 -0.2261  0.7383
17024TIP3    H272488   4.058   0.948  13.730  0.9602  0.5974  0.0128
17025TIP3   OH272489   4.946   0.795  13.159 -0.6471  0.3027 -0.3799
17025TIP3    H172490   4.856   0.802  13.189 -0.2867 -2.8053  1.8763
17025TIP3    H272491   4.998   0.835  13.229 -0.1779  0.2456 -0.6909
17026TIP3   OH272492   3.455   5.600  15.086  0.0408  0.0399  0.1760
17026TIP3    H172493   3.389   5.541  15.123 -2.0125  0.6806 -2.1834
17026TIP3    H272494   3.408   5.682  15.070  1.2777  0.3966 -1.9654
17027TIP3   OH272495   2.238   1.957  12.573  0.0424 -0.4168  0.6717
17027TIP3    H172496   2.231   2.037  12.625 -0.9436 -0.4088  0.5500
17027TIP3    H272497   2.310   1.908  12.613  2.3200  1.5706 -0.7187
17028TIP3   OH272498   0.282   5.790   4.874  0.1377 -0.1060  0.2933
17028TIP3    H172499   0.339   5.713   4.883  0.4806  0.3496  2.6390
17028TIP3    H272500   0.257   5.812   4.964 -1.0467  1.7253 -0.4325
17029TIP3   OH272501   0.052   6.465  12.635 -0.5262  0.3890 -0.1946
17029TIP3    H172502  -0.028   6.465  12.687  0.1011  1.4271  0.8333
17029TIP3    H272503   0.024   6.493  12.548 -1.2921  0.7102  0.1410
17030TIP3   OH272504   1.084   3.391  17.053  0.8259 -0.3177  0.1270
17030TIP3    H172505   1.039   3.344  16.983  0.3094 -1.1159  0.9536
17030TIP3    H272506   1.173   3.356  17.052  1.2110  0.6618 -0.9874
17031TIP3   OH272507   1.789   2.637   6.358 -0.2237  0.2104 -0.3220
17031TIP3    H172508   1.876   2.674   6.342  0.5963 -2.3024 -2.2659
17031TIP3    H272509   1.735   2.670   6.286 -1.1069  2.0998  1.1016
17032TIP3   OH272510   4.396   2.080  12.959 -0.0377 -0.9686  0.1893
17032TIP3    H172511   4.452   2.121  12.894  0.0476 -0.9113  0.2982
17032TIP3    H272512   4.403   2.138  13.036 -1.1585 -0.3065 -0.1747
17033TIP3   OH272513   3.284   6.142   5.331  0.4657 -0.1358 -0.0695
17033TIP3    H172514   3.373   6.176   5.324  0.0459  0.9781 -0.1721
17033TIP3    H272515   3.248   6.185   5.409  0.3129 -1.2935  0.5183
17034TIP3   OH272516   4.517   5.416   2.973 -0.1172  0.7881 -0.2731
17034TIP3    H172517   4.608   5.391   2.991 -0.6025 -1.5441 -0.6507
17034TIP3    H272518   4.465   5.348   3.017 -1.6473  1.5629 -0.8261
17035TIP3   OH272519   4.858   3.349  16.568 -0.0447  0.4022  0.0750
17035TIP3    H172520   4.794   3.287  16.602  0.1214  0.3525  0.2997
17035TIP3    H272521   4.833   3.433  16.608  0.9171  0.1076  1.3508
17036TIP3   OH272522   0.587   1.986   4.078 -0.4852  0.3685  1.1297
17036TIP3    H172523   0.499   2.024   4.083 -0.8779 -0.6449  2.9038
17036TIP3    H272524   0.574   1.894   4.101  0.9496  0.0424  0.6990
17037TIP3   OH272525   2.431   5.725   1.191  0.4964  0.7858  0.0690
17037TIP3    H172526   2.375   5.726   1.270  1.1901  1.3949  0.5718
17037TIP3    H272527   2.412   5.809   1.149  0.9688  0.9597  0.2010
17038TIP3   OH272528   6.708   0.533  10.932 -0.1980 -0.3376  0.4828
17038TIP3    H172529   6.645   0.565  10.997  1.2146  0.8480  1.3295
17038TIP3    H272530   6.654   0.499  10.861 -1.8167  1.5124  0.7419
17039TIP3   OH272531   4.734   1.883   4.455 -0.0593 -0.0632 -0.5490
17039TIP3    H172532   4.688   1.822   4.397 -1.1124 -0.3403  0.5405
17039TIP3    H272533   4.672   1.955   4.467  0.2548  0.1171  0.0229
17040TIP3   OH272534   4.056   0.156   2.514 -0.0272  0.6835  0.0760
17040TIP3    H172535   3.981   0.168   2.571 -0.0822  1.0962 -0.0826
17040TIP3    H272536   4.128   0.133   2.573 -0.6674 -1.5262  0.0861
17041TIP3   OH272537   5.624   5.680   4.767 -0.6176 -0.8638 -0.1208
17041TIP3    H172538   5.719   5.682   4.759 -0.6734  1.7115 -1.2149
17041TIP3    H272539   5.592   5.678   4.677 -1.5371  1.0736  0.1127
17042TIP3   OH272540   4.620   1.196   2.620 -0.7271 -0.4679 -0.0948
17042TIP3    H172541   4.553   1.259   2.644 -1.0300  0.1409 -2.3454
17042TIP3    H272542   4.677   1.191   2.697 -1.8283  1.0230  0.8592
17043TIP3   OH272543   4.646   1.858   5.774 -0.3843 -0.1104  0.0881
17043TIP3    H172544   4.697   1.778   5.790 -1.0528 -0.5360  0.0978
17043TIP3    H272545   4.694   1.927   5.820 -0.0722 -0.5930  0.4857
17044TIP3   OH272546   5.523   6.061  13.685  0.2492 -0.8331  0.2968
17044TIP3    H172547   5.551   6.147  13.718 -0.6189 -0.1216 -0.7520
17044TIP3    H272548   5.430   6.057  13.705  0.2380 -1.4383  0.1333
17045TIP3   OH272549   0.797   3.229   0.885 -0.2163  0.3535  0.3920
17045TIP3    H172550   0.705   3.255   0.876  0.4045  2.0130 -2.0289
17045TIP3    H272551   0.838   3.256   0.803  2.5275 -0.0156  1.5328
17046TIP3   OH272552   3.106   1.092  11.446  0.0670 -0.2216  0.0811
17046TIP3    H172553   3.091   1.180  11.411 -0.4012 -0.0200  0.7813
17046TIP3    H272554   3.081   1.098  11.538  4.0304  0.0712  1.3200
17047TIP3   OH272555   1.026   5.819   0.669  0.0010  0.0173  0.1517
17047TIP3    H172556   1.078   5.884   0.622  1.4404 -0.6381  0.7849
17047TIP3    H272557   1.056   5.824   0.760 -2.5215  1.0631  1.0293
17048TIP3   OH272558   1.119   5.390   2.355  0.1940 -0.1190  0.1362
17048TIP3    H172559   1.086   5.389   2.265  1.3450  0.5993 -0.3237
17048TIP3    H272560   1.115   5.482   2.381  2.4370  0.1121 -0.1968
17049TIP3   OH272561   5.141   4.293   3.418  0.2633 -0.2239 -0.0849
17049TIP3    H172562   5.114   4.312   3.508 -0.3773  0.6126 -0.4488
17049TIP3    H272563   5.236   4.291   3.422  0.2366 -0.4742  0.6647
17050TIP3   OH272564   1.201   4.013  12.634  0.3811  0.0449  0.2132
17050TIP3    H172565   1.272   3.957  12.602 -1.1123 -0.8072 -1.8853
17050TIP3    H272566   1.134   4.007  12.566 -1.3452  1.5223  1.6808
17051TIP3   OH272567   6.808   4.414  11.544 -0.2832 -0.2702 -0.3632
17051TIP3    H172568   6.716   4.393  11.558 -0.3796 -0.6372 -1.4483
17051TIP3    H272569   6.856   4.341  11.582 -0.4883 -0.6656 -0.8564
17052TIP3   OH272570   0.079   2.855  13.240 -0.0420 -0.1350  0.4602
17052TIP3    H172571   0.089   2.918  13.311 -0.1233 -0.4863  0.7872
17052TIP3    H272572   0.088   2.769  13.282 -1.2525 -0.3867  0.2662
17053TIP3   OH272573   2.101   5.338  10.330 -0.3261  0.0295  0.1802
17053TIP3    H172574   2.126   5.355  10.239 -1.9757  1.0698 -0.1318
17053TIP3    H272575   2.183   5.345  10.379  0.1211  2.9531 -0.7807
17054TIP3   OH272576   3.052   6.184   2.000 -0.4252  0.1685  0.3817
17054TIP3    H172577   3.099   6.102   2.020 -0.5975  0.0363  0.2451
17054TIP3    H272578   2.962   6.166   2.025 -0.6160  0.0530 -0.3689
17055TIP3   OH272579   4.177   2.828  14.527 -0.0842  0.0904  0.3677
17055TIP3    H172580   4.235   2.752  14.533 -1.4677 -0.9753  0.7384
17055TIP3    H272581   4.220   2.895  14.580  1.4933 -0.1740 -0.5064
17056TIP3   OH272582   5.332   6.551  14.439  0.3204  0.0264 -0.0253
17056TIP3    H172583   5.370   6.584  14.520  0.8678 -0.7933  0.0581
17056TIP3    H272584   5.285   6.471  14.464  0.1446 -0.0091 -0.4476
17057TIP3   OH272585   3.182   4.834  14.084 -0.1437 -0.1797 -0.7466
17057TIP3    H172586   3.277   4.837  14.076 -0.1415  0.8082 -0.4650
17057TIP3    H272587   3.164   4.859  14.175 -0.5816 -2.7249 -0.0395
17058TIP3   OH272588   2.662   4.025   0.469 -0.4235  0.2067  0.1991
17058TIP3    H172589   2.611   3.960   0.516 -0.5196 -0.1500 -0.3842
17058TIP3    H272590   2.616   4.037   0.386  1.9942 -2.4446 -1.7491
17059TIP3   OH272591   0.985   4.723  16.255 -0.0546  0.3018 -0.2734
17059TIP3    H172592   1.054   4.786  16.232  0.2086  0.0958 -0.0458
17059TIP3    H272593   1.003   4.647  16.201 -0.5552  0.5277 -0.7749
17060TIP3   OH272594   0.614   3.102   2.388  0.0131  0.3994 -0.5351
17060TIP3    H172595   0.630   3.008   2.397  0.6421  0.5428 -0.1488
17060TIP3    H272596   0.522   3.108   2.360 -1.0496 -0.2338  2.4273
17061TIP3   OH272597   1.482   5.996   3.027  0.2915 -0.1427 -0.2898
17061TIP3    H172598   1.553   5.984   3.090  1.3791  0.2084 -1.3911
17061TIP3    H272599   1.527   6.012   2.944 -1.0786  1.0968 -0.8440
17062TIP3   OH272600   6.499   4.099  13.166  0.2040 -0.5041 -0.2904
17062TIP3    H172601   6.437   4.171  13.161  0.8884  0.0522 -1.3311
17062TIP3    H272602   6.458   4.027  13.117  0.2153 -0.2525 -0.6774
17063TIP3   OH272603   6.782   6.577   1.734 -0.3697 -0.4960 -0.5269
17063TIP3    H172604   6.830   6.606   1.656  1.4550  0.3847  0.8442
17063TIP3    H272605   6.705   6.532   1.699  0.3953 -0.1734 -2.8285
17064TIP3   OH272606   5.390   2.631  16.654 -0.2353  0.1257 -0.0576
17064TIP3    H172607   5.336   2.676  16.718  0.1222 -0.0573  0.3769
17064TIP3    H272608   5.328   2.579  16.602 -0.5199  0.2253  0.1809
17065TIP3   OH272609   2.696   6.791  14.492  0.2540 -0.0435  0.5266
17065TIP3    H172610   2.643   6.791  14.571 -0.3109 -1.0111  0.1563
17065TIP3    H272611   2.721   6.883  14.481  1.0090  0.0086  2.2493
17066TIP3   OH272612   1.147   2.577   4.326  0.2058 -0.3618  0.7142
17066TIP3    H172613   1.196   2.496   4.343 -1.4565 -0.8430  4.2132
17066TIP3    H272614   1.061   2.547   4.299  0.4975  0.4144 -1.2761
17067TIP3   OH272615   1.517   4.981   4.368  1.0660 -0.1214 -0.5860
17067TIP3    H172616   1.521   5.062   4.318  2.4085 -0.4201 -1.0149
17067TIP3    H272617   1.579   4.993   4.440 -0.0035 -0.1346  0.3751
17068TIP3   OH272618   5.154   6.527   4.718 -0.6305  0.0799  0.1476
17068TIP3    H172619   5.201   6.453   4.680 -0.7675  1.0201 -2.0183
17068TIP3    H272620   5.204   6.550   4.796  1.5037 -0.0543 -1.1200
17069TIP3   OH272621   1.992   2.611   0.592  0.0640  0.9645  0.1148
17069TIP3    H172622   2.044   2.634   0.669  1.2575 -1.0486 -0.0300
17069TIP3    H272623   1.994   2.516   0.590 -2.5561  0.8613 -0.6811
17070TIP3   OH272624   3.299   2.131   3.397 -0.1531  0.0522  0.3261
17070TIP3    H172625   3.263   2.219   3.398  0.1132  0.1774 -0.3633
17070TIP3    H272626   3.225   2.074   3.420  0.1502  0.5784  2.9141
17071TIP3   OH272627   2.619   1.159   2.094 -0.1986  0.3963 -0.6297
17071TIP3    H172628   2.597   1.067   2.078  1.2960  0.2801 -2.4234
17071TIP3    H272629   2.614   1.169   2.189 -1.3976 -1.2496 -0.4714
17072TIP3   OH272630   2.752   4.822  15.173  0.5522 -0.1024 -0.2560
17072TIP3    H172631   2.806   4.785  15.103  0.2603  0.7613 -0.9410
17072TIP3    H272632   2.810   4.882  15.219  0.6321 -0.3879  0.0275
17073TIP3   OH272633   3.721   4.882  15.354 -0.2708 -0.2602  0.0858
17073TIP3    H172634   3.692   4.857  15.267 -0.2192 -0.8893  0.2420
17073TIP3    H272635   3.681   4.968  15.370  0.9468  0.5779 -1.1513
17074TIP3   OH272636   1.582   4.913   3.586  0.0556  0.8237  0.1163
17074TIP3    H172637   1.604   4.948   3.672  1.3769 -1.5948  0.8469
17074TIP3    H272638   1.661   4.868   3.557 -0.4428  1.3343 -2.2846
17075TIP3   OH272639   6.339   5.759   0.750 -0.4138  0.2729  0.1926
17075TIP3    H172640   6.414   5.702   0.767  0.4505  1.2785 -0.1313
17075TIP3    H272641   6.267   5.719   0.798  0.3092 -0.7651  0.4446
17076TIP3   OH272642   1.755   1.929  12.177 -0.3441  0.2495 -0.1844
17076TIP3    H172643   1.723   1.839  12.174  0.9020 -0.1786 -1.9212
17076TIP3    H272644   1.699   1.977  12.117 -1.5356  0.8737  1.3465
17077TIP3   OH272645   3.280   4.121  16.463  0.0360  0.0625 -0.4585
17077TIP3    H172646   3.322   4.195  16.508 -0.8423 -0.0182  0.5337
17077TIP3    H272647   3.353   4.070  16.428  0.8937 -0.6261  2.1053
17078TIP3   OH272648   4.635   1.230  14.311  0.1507  0.1079 -0.7255
17078TIP3    H172649   4.630   1.160  14.376  0.7668  0.6924 -0.0294
17078TIP3    H272650   4.628   1.185  14.227 -2.1776 -0.5266 -0.2712
17079TIP3   OH272651   0.959   4.072  13.978  0.0932 -0.5915  0.2476
17079TIP3    H172652   0.865   4.090  13.983  0.0906 -0.6674  0.4986
17079TIP3    H272653   0.964   3.981  13.950  0.0865 -0.6927  0.5704
17080TIP3   OH272654   2.076   6.735   1.473  0.0851  0.3321 -0.5748
17080TIP3    H172655   2.160   6.780   1.481 -0.7147  1.5925  1.4686
17080TIP3    H272656   2.086   6.679   1.396  2.0374  2.0501 -1.6554
17081TIP3   OH272657   5.026   6.599  11.177 -0.3915 -0.4572  0.3884
17081TIP3    H172658   4.966   6.573  11.247 -0.6477  0.2892  0.4591
17081TIP3    H272659   5.112   6.575  11.209 -0.5072 -0.1105  0.9709
17082TIP3   OH272660   1.293   0.545  12.214 -0.0388  0.1753 -0.1420
17082TIP3    H172661   1.301   0.620  12.155 -0.6082  0.0494 -0.3851
17082TIP3    H272662   1.205   0.511  12.197  0.4870 -1.0131 -0.5893
17083TIP3   OH272663   6.006   1.203   1.669  0.2690  0.4701  0.2216
17083TIP3    H172664   6.009   1.143   1.595  1.2395  0.5186  0.2104
17083TIP3    H272665   5.976   1.150   1.742 -0.2979  0.3264 -0.1074
17084TIP3   OH272666   3.097   6.125  14.579 -0.6138  0.6157 -0.2042
17084TIP3    H172667   3.119   6.076  14.500 -1.2767 -1.2405  0.7162
17084TIP3    H272668   3.179   6.168  14.603  0.7015 -1.9432  0.2375
17085TIP3   OH272669   4.022   2.213  14.589 -0.0836  0.5671 -0.1323
17085TIP3    H172670   3.988   2.143  14.645  0.8558  0.0061 -0.2493
17085TIP3    H272671   3.958   2.284  14.598 -0.5455  0.0544  0.7439
17086TIP3   OH272672   0.187   1.375  15.477  0.2171 -0.0084  0.4289
17086TIP3    H172673   0.178   1.452  15.533  0.0006  0.1868  0.1282
17086TIP3    H272674   0.099   1.358  15.446  0.4903  0.4995 -0.6664
17087TIP3   OH272675   3.295   1.348  15.104 -0.0128 -0.2999  1.2662
17087TIP3    H172676   3.240   1.334  15.027 -0.1019  3.0390  0.5496
17087TIP3    H272677   3.235   1.381  15.171  0.2275 -2.2790  2.5486
17088TIP3   OH272678   1.004   1.371  11.042  0.3166 -0.3235 -0.2178
17088TIP3    H172679   1.037   1.423  10.968  1.0627 -2.0959 -1.1883
17088TIP3    H272680   0.982   1.286  11.004  3.9902 -2.5514  2.0156
17089TIP3   OH272681   0.652   3.840  16.299 -0.2766 -0.3516 -0.1175
17089TIP3    H172682   0.660   3.744  16.305  0.1701 -0.2318  2.0060
17089TIP3    H272683   0.598   3.864  16.374 -0.8620  1.0293 -0.9592
17090TIP3   OH272684   5.875   3.951  15.385 -0.3089  0.3504  0.4830
17090TIP3    H172685   5.917   4.018  15.332  1.2471 -0.0510  1.1605
17090TIP3    H272686   5.868   3.875  15.328  3.4113 -0.8477  1.3126
17091TIP3   OH272687   1.060   0.660  16.003  0.3928 -0.1279  0.1160
17091TIP3    H172688   0.971   0.637  15.975 -0.0161  0.6130  0.7756
17091TIP3    H272689   1.078   0.603  16.077 -0.1089  0.6998  0.9026
17092TIP3   OH272690   2.196   5.466   0.908 -0.4776  0.0357 -0.3842
17092TIP3    H172691   2.178   5.546   0.859  0.7776 -1.1111 -2.8931
17092TIP3    H272692   2.172   5.487   0.999 -0.0638  3.2547 -0.9186
17093TIP3   OH272693   2.790   4.218   3.306 -0.8994 -0.3451  0.2174
17093TIP3    H172694   2.815   4.131   3.276  0.7135 -0.1327  0.8868
17093TIP3    H272695   2.852   4.277   3.263 -1.5365  0.4147  0.3181
17094TIP3   OH272696   3.443   0.586   2.784 -0.0412  0.3689 -0.3416
17094TIP3    H172697   3.439   0.494   2.761  2.5240  0.4348 -1.4313
17094TIP3    H272698   3.446   0.586   2.880  0.3203 -0.7311 -0.3354
17095TIP3   OH272699   5.779   6.078   3.804 -0.0416 -0.5410  0.1194
17095TIP3    H172700   5.755   6.169   3.787  0.4039 -0.0288  2.0067
17095TIP3    H272701   5.806   6.077   3.896 -0.8488 -2.7443  0.3979
17096TIP3   OH272702   3.326   1.188   3.921  0.2129  0.3136 -0.0016
17096TIP3    H172703   3.306   1.187   4.015  1.5125  0.7634  0.2958
17096TIP3    H272704   3.420   1.206   3.916 -0.0899  1.7421 -1.4266
17097TIP3   OH272705   4.875   5.518   6.253  0.0369 -0.1189  0.2227
17097TIP3    H172706   4.887   5.484   6.164  0.3774  0.9596 -0.1588
17097TIP3    H272707   4.919   5.454   6.309  0.2298 -0.5665 -0.4264
17098TIP3   OH272708   4.184   3.798   5.100  0.2063  0.1692  0.4576
17098TIP3    H172709   4.165   3.798   5.193 -0.7696 -1.4057  0.2911
17098TIP3    H272710   4.120   3.858   5.062 -0.7140 -0.7036  0.5889
17099TIP3   OH272711   1.498   6.798  15.796 -0.1543 -0.6459 -0.0555
17099TIP3    H172712   1.490   6.893  15.802 -2.2741 -0.7299 -0.7852
17099TIP3    H272713   1.559   6.775  15.866 -0.9419  1.0802  1.2810
17100TIP3   OH272714   6.258   2.563   3.431 -0.1154  0.5861 -0.1847
17100TIP3    H172715   6.200   2.497   3.392  0.9068  0.6353 -1.8601
17100TIP3    H272716   6.330   2.571   3.370  1.1087  1.3792  1.2965
17101TIP3   OH272717   4.624   1.323  11.808 -0.1841 -0.4495 -1.2270
17101TIP3    H172718   4.574   1.242  11.799  0.7371 -1.2238  0.1962
17101TIP3    H272719   4.700   1.298  11.861 -1.4592  1.9594  2.1334
17102TIP3   OH272720   2.994   5.914  14.404  0.4110  0.0533  0.1951
17102TIP3    H172721   2.982   5.985  14.341 -0.5602  0.1130  0.4251
17102TIP3    H272722   2.919   5.922  14.463  0.8286 -0.5512  0.8250
17103TIP3   OH272723   5.309   5.135   5.071  0.1079  0.6318 -0.1702
17103TIP3    H172724   5.223   5.177   5.066 -2.4181 -3.9474 -0.1146
17103TIP3    H272725   5.310   5.093   5.157  1.3353 -1.3931 -1.1165
17104TIP3   OH272726   5.070   5.094  10.447 -0.2135  0.1348 -0.2331
17104TIP3    H172727   5.138   5.135  10.501 -2.5976  2.2711  1.3679
17104TIP3    H272728   5.062   5.005  10.483  2.1425 -0.4367 -0.9481
17105TIP3   OH272729   6.142   1.994  12.320  0.2923 -0.2169 -0.5422
17105TIP3    H172730   6.128   2.077  12.273  0.4739 -0.0214 -0.2579
17105TIP3    H272731   6.183   1.937  12.256  0.6393  0.0856 -0.5973
17106TIP3   OH272732   0.362   5.819  12.693  0.5584  0.1889 -0.0723
17106TIP3    H172733   0.421   5.851  12.761  0.3955  2.8033 -1.0762
17106TIP3    H272734   0.409   5.834  12.611 -0.5627  0.1537 -0.7372
17107TIP3   OH272735   0.377   1.972  11.785 -1.0648 -0.0427 -0.4153
17107TIP3    H172736   0.392   2.067  11.784 -0.0836 -0.1816  0.2639
17107TIP3    H272737   0.371   1.948  11.692  0.5689  0.4132 -0.6681
17108TIP3   OH272738   6.049   2.021  13.641  0.7687  0.8064  0.1512
17108TIP3    H172739   5.997   1.980  13.572 -2.5412 -2.2118  3.9209
17108TIP3    H272740   6.041   2.115  13.626 -1.4850  0.3138 -2.3849
17109TIP3   OH272741   2.446   1.170   4.583  0.0679  0.5893  0.0906
17109TIP3    H172742   2.490   1.227   4.647  0.7144 -0.5731  0.7112
17109TIP3    H272743   2.396   1.231   4.528  1.1708  1.8133  0.3748
17110TIP3   OH272744   3.426   3.385  14.418  0.0871  0.6127 -0.6805
17110TIP3    H172745   3.505   3.391  14.363  1.0292 -0.5805  0.4688
17110TIP3    H272746   3.361   3.343  14.362  1.1273 -0.8902 -0.8474
17111TIP3   OH272747   0.665   4.990   0.853 -0.4081 -0.1977 -0.5829
17111TIP3    H172748   0.681   5.057   0.920 -3.6831 -0.0218  0.1774
17111TIP3    H272749   0.618   4.921   0.899 -2.2241 -0.3537 -2.5178
17112TIP3   OH272750   1.335   4.645   1.216 -0.0345  0.0698  0.2430
17112TIP3    H172751   1.295   4.579   1.159 -0.9600  1.1766 -0.4416
17112TIP3    H272752   1.343   4.603   1.301 -1.0673 -0.7575 -0.0537
17113TIP3   OH272753   6.370   0.002  14.550 -0.2569  0.6816  0.0127
17113TIP3    H172754   6.427  -0.071  14.526 -0.1399  1.0230 -0.7867
17113TIP3    H272755   6.285  -0.037  14.566 -0.0364  0.2905  0.2304
17114TIP3   OH272756   4.080   5.392   2.280  0.5961 -0.2927  0.3453
17114TIP3    H172757   4.129   5.473   2.294 -0.9808  0.5008  1.6151
17114TIP3    H272758   4.135   5.324   2.319  2.0370  0.0977 -0.9077
17115TIP3   OH272759   0.288   6.164  14.957  0.0424  0.1797 -0.3937
17115TIP3    H172760   0.376   6.169  14.995 -0.4759 -1.7902  1.2614
17115TIP3    H272761   0.269   6.070  14.953 -2.1982  0.5704 -0.1260
17116TIP3   OH272762   6.470   4.822   1.422  0.0859  0.7038 -0.2683
17116TIP3    H172763   6.524   4.766   1.478  1.2284 -0.3331 -2.2874
17116TIP3    H272764   6.399   4.766   1.392  1.1022  0.3174 -2.1119
17117TIP3   OH272765   6.271   5.998   3.333 -0.1534 -0.1273  0.1027
17117TIP3    H172766   6.259   5.914   3.290  2.4315 -0.6634  0.2834
17117TIP3    H272767   6.311   6.054   3.266 -2.9226  1.4282 -0.4047
17118TIP3   OH272768   1.554   5.569   1.419 -0.5064  0.0049  0.2979
17118TIP3    H172769   1.512   5.484   1.431 -0.2601 -0.4328 -1.5463
17118TIP3    H272770   1.629   5.551   1.362 -1.8691  1.7382 -2.2835
17119TIP3   OH272771   3.454   1.246  15.935 -0.2639  0.1079  0.2056
17119TIP3    H172772   3.458   1.279  15.845 -3.8347 -1.8194 -0.8530
17119TIP3    H272773   3.492   1.158  15.930 -1.2101 -0.3195  0.3486
17120TIP3   OH272774   2.454   1.603   1.366  0.4735 -0.6047  0.2387
17120TIP3    H172775   2.483   1.532   1.424  0.1674 -0.4715  0.5593
17120TIP3    H272776   2.366   1.624   1.396  1.1004  0.9396  1.1654
17121TIP3   OH272777   5.043   0.132  12.740  0.0321  0.0262 -0.3779
17121TIP3    H172778   5.070   0.215  12.702 -0.6204  0.6641  0.5073
17121TIP3    H272779   5.122   0.097  12.782  0.4425 -0.0781 -1.2241
17122TIP3   OH272780   1.573   3.231   4.072 -0.4509  0.1128 -0.1837
17122TIP3    H172781   1.589   3.144   4.108  0.2977  1.0501  1.8993
17122TIP3    H272782   1.655   3.255   4.029  0.3518  0.8107  1.6103
17123TIP3   OH272783   0.374   3.105  13.380 -0.1186  0.1812  0.9775
17123TIP3    H172784   0.440   3.160  13.422  0.1357  1.2475 -0.6959
17123TIP3    H272785   0.423   3.056  13.314 -1.2209  2.9799 -2.2052
17124TIP3   OH272786   5.779   2.855   4.685 -0.1603  0.1636 -0.6493
17124TIP3    H172787   5.743   2.820   4.767 -0.3817  2.4520  0.2941
17124TIP3    H272788   5.773   2.781   4.623 -2.5516 -0.8306  0.6202
17125TIP3   OH272789   6.139   0.940  13.712  0.2244  0.1849  0.6537
17125TIP3    H172790   6.145   0.921  13.806 -0.7611  0.6301  0.8155
17125TIP3    H272791   6.048   0.965  13.698  0.3029 -0.1036 -0.4759
17126TIP3   OH272792   0.893   0.560  12.921 -0.4673 -0.3727 -0.3176
17126TIP3    H172793   0.813   0.547  12.870 -0.6326 -1.0543  0.0914
17126TIP3    H272794   0.913   0.472  12.955 -0.8583  0.1929  1.4798
17127TIP3   OH272795   4.638   4.550   0.591  0.2101  0.2194  0.3125
17127TIP3    H172796   4.727   4.531   0.622 -0.3115 -0.4681  1.4795
17127TIP3    H272797   4.647   4.629   0.537  1.6932 -0.5004 -0.5415
17128TIP3   OH272798   1.848   2.680   3.920  0.0770  0.2041 -0.0491
17128TIP3    H172799   1.821   2.597   3.960  1.2576 -0.4667 -0.5895
17128TIP3    H272800   1.766   2.724   3.897 -0.6249  0.0021  1.8271
17129TIP3   OH272801   0.803   2.081  11.565  0.2112 -0.5787 -0.0463
17129TIP3    H172802   0.787   2.036  11.648  3.2234 -0.7048  0.5593
17129TIP3    H272803   0.754   2.163  11.572  0.8717 -0.3033  2.1381
17130TIP3   OH272804   2.443   0.602   1.345  0.0015  0.6801  0.1295
17130TIP3    H172805   2.403   0.611   1.259 -0.5180  0.6630  0.3641
17130TIP3    H272806   2.373   0.624   1.407 -0.1507 -0.9860  0.6040
17131TIP3   OH272807   6.464   4.902  14.417  0.0189  0.3266  0.1323
17131TIP3    H172808   6.384   4.850  14.430 -0.3017  0.5439 -0.8471
17131TIP3    H272809   6.498   4.916  14.505  0.8815 -2.7009  0.3861
17132TIP3   OH272810   5.759   6.231   1.872  0.3314 -0.6660  0.0092
17132TIP3    H172811   5.780   6.153   1.922  0.4987  0.5524  1.9309
17132TIP3    H272812   5.842   6.259   1.835  0.8229  0.1301  1.6440
17133TIP3   OH272813   0.589   1.359   2.313 -0.1349 -0.0415  0.2392
17133TIP3    H172814   0.590   1.378   2.406 -1.4906 -1.1839  0.5244
17133TIP3    H272815   0.555   1.438   2.272  1.7572  0.9778  0.5336
17134TIP3   OH272816   2.280   1.975  17.007 -0.2593  0.0344 -0.2044
17134TIP3    H172817   2.291   1.938  17.094 -3.1615  0.5001  0.4422
17134TIP3    H272818   2.312   2.065  17.014  0.6259 -0.2870  0.0161
17135TIP3   OH272819   5.615   6.098  11.916 -0.2066  0.6602 -0.1568
17135TIP3    H172820   5.577   6.173  11.962  0.0532  1.9720 -1.9493
17135TIP3    H272821   5.551   6.028  11.926 -1.1237  1.5562  0.3716
17136TIP3   OH272822   3.102   4.962   2.391  0.4008  0.0930  0.1098
17136TIP3    H172823   3.161   5.000   2.327  2.9404 -0.2371  2.1113
17136TIP3    H272824   3.093   5.029   2.459  0.5556 -0.8096  1.0478
17137TIP3   OH272825   2.438   1.741  12.588 -0.1615  0.4052  0.0567
17137TIP3    H172826   2.439   1.681  12.663  1.8143  0.4076  0.0882
17137TIP3    H272827   2.530   1.762  12.574 -0.3752 -0.2002 -2.8746
17138TIP3   OH272828   4.596   2.457  11.959 -0.7750  0.0705 -0.1525
17138TIP3    H172829   4.660   2.526  11.944  0.5376 -1.2512 -0.8618
17138TIP3    H272830   4.623   2.417  12.041 -0.6795 -0.5141 -0.4691
17139TIP3   OH272831   5.464   1.070   1.446 -0.3881  0.2692 -0.1236
17139TIP3    H172832   5.494   1.096   1.533  0.1999  1.3679 -0.6400
17139TIP3    H272833   5.457   1.152   1.397  1.1760 -0.4738 -1.7121
17140TIP3   OH272834   0.697   2.955  11.924 -0.6132 -0.5000 -0.2976
17140TIP3    H172835   0.674   2.937  11.833 -0.6287 -3.1199  0.1507
17140TIP3    H272836   0.615   2.942  11.972 -0.3544 -0.2524  0.2234
17141TIP3   OH272837   0.510   5.664   6.450  0.6344 -0.1949 -0.0006
17141TIP3    H172838   0.520   5.571   6.430  0.5818 -0.2157  0.0704
17141TIP3    H272839   0.441   5.694   6.390 -0.0161 -0.4132  0.6264
17142TIP3   OH272840   4.186   1.401   0.824  0.2848 -0.4252  0.7042
17142TIP3    H172841   4.126   1.409   0.898  1.4141  0.9380  1.5171
17142TIP3    H272842   4.272   1.391   0.864  1.0653  1.4518 -0.3622
17143TIP3   OH272843   3.966   3.103  16.314 -0.0841  0.2199  0.5079
17143TIP3    H172844   3.982   3.039  16.245 -0.6812  0.1660  0.4224
17143TIP3    H272845   3.872   3.098  16.332 -0.0668  0.7717  0.7937
17144TIP3   OH272846   5.108   1.096  15.552 -0.0297  0.2502 -0.2213
17144TIP3    H172847   5.202   1.089  15.536  0.0947  1.4244 -0.0967
17144TIP3    H272848   5.071   1.015  15.517  0.7390  0.8182 -2.4760
17145TIP3   OH272849   4.978   3.507  14.235 -0.1035 -0.1316  0.1447
17145TIP3    H172850   4.908   3.568  14.213 -0.5213 -1.1519 -1.5629
17145TIP3    H272851   5.027   3.551  14.305 -0.4231  2.1267 -0.9501
17146TIP3   OH272852   6.627   0.485   2.829 -0.0272  0.7882  0.1021
17146TIP3    H172853   6.535   0.495   2.854 -0.5493 -0.7373 -1.0813
17146TIP3    H272854   6.652   0.572   2.796 -1.4069  0.9214 -0.6684
17147TIP3   OH272855   5.279   2.213   0.445  0.0739  0.3469 -0.0329
17147TIP3    H172856   5.350   2.197   0.383  0.6652 -0.0046  0.7286
17147TIP3    H272857   5.204   2.168   0.407  0.6999 -0.7690  0.0317
17148TIP3   OH272858   4.624   4.177   3.998 -0.2249 -0.1963 -0.3353
17148TIP3    H172859   4.694   4.164   4.062  0.6689 -0.1362 -1.2715
17148TIP3    H272860   4.652   4.253   3.948  0.1353 -1.4404 -2.1095
17149TIP3   OH272861   6.205   3.082   1.718 -0.1231 -0.1023  0.1592
17149TIP3    H172862   6.132   3.020   1.714 -0.5574  0.4137 -0.0010
17149TIP3    H272863   6.271   3.037   1.771  0.2538 -1.3863 -1.3349
17150TIP3   OH272864   2.651   6.030  15.641  0.1176  0.1809  0.2475
17150TIP3    H172865   2.581   5.969  15.662 -0.7686  0.4231 -1.7628
17150TIP3    H272866   2.696   6.045  15.724  0.8104 -3.6580  0.7415
17151TIP3   OH272867   4.617   0.628   2.921 -0.1522  0.9878 -0.1604
17151TIP3    H172868   4.582   0.542   2.895  0.6723  0.6083 -0.0503
17151TIP3    H272869   4.579   0.644   3.007 -0.2189  0.6745 -0.1277
17152TIP3   OH272870   5.349   1.281   1.251  0.0599  0.0902  0.0985
17152TIP3    H172871   5.373   1.271   1.159 -0.5876  0.8951 -0.1708
17152TIP3    H272872   5.327   1.373   1.261  2.0208  0.4830  1.5361
17153TIP3   OH272873   5.953   6.270   1.512  0.3912  0.1406 -0.1795
17153TIP3    H172874   5.912   6.185   1.499 -1.7452  1.1122 -0.1479
17153TIP3    H272875   6.007   6.283   1.434  0.2208 -0.9358 -0.4963
17154TIP3   OH272876   3.539   2.791   3.460 -0.4660 -0.2775 -0.5010
17154TIP3    H172877   3.588   2.817   3.538  1.2037 -0.7119 -1.3541
17154TIP3    H272878   3.450   2.776   3.492  0.3084 -1.1003  1.4578
17155TIP3   OH272879   0.560   4.569   0.204 -0.7671 -0.2309 -0.2070
17155TIP3    H172880   0.544   4.529   0.289  1.7225 -0.1759  0.3653
17155TIP3    H272881   0.520   4.508   0.141  0.1612 -2.0103  0.8254
17156TIP3   OH272882   1.933   4.455  14.953 -0.1419 -0.3130  0.2409
17156TIP3    H172883   2.017   4.414  14.977  0.1649 -0.0578 -0.3726
17156TIP3    H272884   1.898   4.487  15.036 -0.1183 -1.3158  0.6565
17157TIP3   OH272885   6.093   5.757   2.970 -0.3648  0.1678  0.4743
17157TIP3    H172886   6.082   5.716   3.055  2.2676 -0.5713  0.5585
17157TIP3    H272887   6.153   5.699   2.923 -0.7597  1.2050 -1.4113
17158TIP3   OH272888   4.987   1.362   5.967  0.4507  0.0592  0.0231
17158TIP3    H172889   5.049   1.339   6.036  1.1518 -0.3458 -0.7188
17158TIP3    H272890   5.036   1.350   5.886 -0.0548  1.4805 -0.5199
17159TIP3   OH272891   1.404   0.872   1.262 -0.5158  0.2420  0.8469
17159TIP3    H172892   1.421   0.781   1.285  0.7861  0.2857  0.1776
17159TIP3    H272893   1.447   0.884   1.177 -3.3173  0.6438 -0.6393
17160TIP3   OH272894   6.211   1.314  15.380 -0.0301 -0.4488  0.1597
17160TIP3    H172895   6.244   1.226  15.361  1.1551 -0.3789  1.6646
17160TIP3    H272896   6.248   1.368  15.310  1.7481 -0.6768  0.8593
17161TIP3   OH272897   6.373   1.421  16.530 -0.5899  0.4009 -0.1066
17161TIP3    H172898   6.352   1.329  16.550 -2.0700  0.9895  1.2823
17161TIP3    H272899   6.430   1.416  16.454 -1.3160 -1.6420 -0.6014
17162TIP3   OH272900   0.229   2.130   5.813 -0.0298  0.0287  0.7430
17162TIP3    H172901   0.287   2.131   5.889  0.8171 -2.5475  0.2430
17162TIP3    H272902   0.288   2.136   5.738 -0.8112  1.8970  0.2115
17163TIP3   OH272903   5.152   5.583  13.831  0.4864 -0.3843  0.0435
17163TIP3    H172904   5.164   5.641  13.756 -1.2072  0.0295  0.0484
17163TIP3    H272905   5.059   5.591  13.853  0.8680 -0.7628  1.9776
17164TIP3   OH272906   3.677   3.746   5.695  0.2795 -0.2369  0.3643
17164TIP3    H172907   3.621   3.700   5.757  2.2110 -0.5888  1.9707
17164TIP3    H272908   3.709   3.822   5.743  1.9716 -0.6153 -0.0630
17165TIP3   OH272909   2.105   0.751  11.878  0.1870  0.0268  0.1222
17165TIP3    H172910   2.174   0.816  11.897 -0.5066  0.5825  0.7848
17165TIP3    H272911   2.105   0.745  11.782  0.8554  0.3463  0.0911
17166TIP3   OH272912   0.176   6.673   0.276 -0.0224  0.1969  0.4496
17166TIP3    H172913   0.264   6.655   0.244 -0.8714 -0.0296 -1.9441
17166TIP3    H272914   0.150   6.753   0.232 -1.8910 -1.0403 -0.8171
17167TIP3   OH272915   3.592   0.051   5.880  0.0820  0.2301  0.3579
17167TIP3    H172916   3.639  -0.020   5.836 -0.1800  0.4707 -0.3219
17167TIP3    H272917   3.580   0.117   5.813 -1.6160 -0.0050  0.3889
17168TIP3   OH272918   6.489   1.796   4.313 -0.0557  0.1099 -0.1513
17168TIP3    H172919   6.515   1.863   4.377  0.8101 -0.0245 -0.3413
17168TIP3    H272920   6.403   1.767   4.343  0.1913  0.2769  0.7827
17169TIP3   OH272921   0.703   2.219   4.162 -0.7295 -0.2819  0.5255
17169TIP3    H172922   0.618   2.263   4.169 -0.0998  0.9760  0.4078
17169TIP3    H272923   0.680   2.129   4.135 -1.9987  0.1362  0.1025
17170TIP3   OH272924   1.793   3.372   5.645 -0.0301 -0.3331 -0.2698
17170TIP3    H172925   1.706   3.354   5.610 -0.1026  0.0652 -0.2990
17170TIP3    H272926   1.852   3.357   5.571 -0.2898  1.6734 -0.9307
17171TIP3   OH272927   2.135   6.580  13.039 -0.2158 -0.4056 -0.6787
17171TIP3    H172928   2.042   6.558  13.037 -0.3153 -0.6726  2.7155
17171TIP3    H272929   2.160   6.576  13.131  2.5778  2.1835 -1.1398
17172TIP3   OH272930   2.401   4.730  13.358 -0.0107  0.0707 -0.0426
17172TIP3    H172931   2.361   4.714  13.273  0.2542 -1.5541  0.1110
17172TIP3    H272932   2.443   4.647  13.381  2.1698  1.2585  0.4843
17173TIP3   OH272933   1.623   3.513   2.882 -0.1401 -0.2393  0.0708
17173TIP3    H172934   1.704   3.510   2.932  0.2847  0.0324 -0.5926
17173TIP3    H272935   1.597   3.422   2.871 -0.3645 -0.2922  0.9796
17174TIP3   OH272936   3.841   3.920   5.870  0.2135  0.2501  0.1906
17174TIP3    H172937   3.867   3.953   5.956  0.1734  0.3721  0.1546
17174TIP3    H272938   3.922   3.885   5.833  0.8314  2.6372 -0.8637
17175TIP3   OH272939   1.886   4.391  11.539 -0.5226  0.0222  0.1340
17175TIP3    H172940   1.918   4.445  11.467 -1.1253  0.2631  0.0398
17175TIP3    H272941   1.832   4.325  11.496  0.5515 -0.9341  0.2067
17176TIP3   OH272942   6.282   0.701  14.586  0.0817  0.4893  0.0185
17176TIP3    H172943   6.337   0.681  14.661  1.3872 -0.2620 -1.0855
17176TIP3    H272944   6.289   0.796  14.574 -0.1252  0.6068  0.8101
17177TIP3   OH272945   6.801   3.348  10.831 -0.0688 -0.3950  0.8447
17177TIP3    H172946   6.813   3.411  10.903  0.6444 -1.2573  1.5045
17177TIP3    H272947   6.865   3.373  10.766 -0.1477 -0.1174  0.8721
17178TIP3   OH272948   3.503   6.538   0.977 -0.2603 -0.1178  0.1700
17178TIP3    H172949   3.464   6.624   0.995  0.3478  0.1608  0.1727
17178TIP3    H272950   3.440   6.495   0.918 -0.6086  0.2953  0.2358
17179TIP3   OH272951   4.630   6.278   5.322 -0.9853  0.2370  0.0861
17179TIP3    H172952   4.658   6.323   5.242  1.0468  0.2532  0.7418
17179TIP3    H272953   4.589   6.346   5.375  1.5506  1.3380  0.8221
17180TIP3   OH272954   5.933   6.333   0.380 -0.0576 -0.2428 -0.4753
17180TIP3    H172955   6.009   6.321   0.322 -0.8387 -1.9994 -1.1985
17180TIP3    H272956   5.957   6.289   0.461 -0.1832 -0.5170 -0.5878
17181TIP3   OH272957   0.039   5.806  11.468  0.0150  0.2196  0.4991
17181TIP3    H172958  -0.049   5.786  11.437  0.0676  0.3781  0.2461
17181TIP3    H272959   0.050   5.900  11.451  0.5973  0.0019 -0.3684
17182TIP3   OH272960   4.821   1.222  14.583 -0.5463 -0.4285  0.0205
17182TIP3    H172961   4.844   1.150  14.524 -2.1266 -0.5479 -0.4987
17182TIP3    H272962   4.905   1.253  14.618  0.2459 -1.7282 -0.6764
17183TIP3   OH272963   3.740   3.741   6.648 -0.2545  0.2999 -0.2100
17183TIP3    H172964   3.739   3.787   6.732 -3.4405 -0.1900  0.1059
17183TIP3    H272965   3.803   3.791   6.595  2.3368  0.2723  2.5407
17184TIP3   OH272966   6.169   4.151  14.286  0.0891 -0.4065 -1.0047
17184TIP3    H172967   6.182   4.077  14.345  0.4054  1.3437  1.2485
17184TIP3    H272968   6.257   4.180  14.263 -0.0172  0.1006 -0.7797
17185TIP3   OH272969   0.807   0.657  11.307  0.3135 -0.4142  0.2647
17185TIP3    H172970   0.842   0.666  11.219 -2.1932  1.1561 -0.6941
17185TIP3    H272971   0.812   0.745  11.344 -2.9053  0.0723 -0.1626
17186TIP3   OH272972   6.259   5.495  10.733  0.7496  0.0792  0.4404
17186TIP3    H172973   6.182   5.524  10.683  2.3144 -1.0794 -2.9425
17186TIP3    H272974   6.252   5.542  10.816 -1.8451  2.6257 -1.0084
17187TIP3   OH272975   5.569   1.066  16.377 -0.6482  0.0441 -0.2594
17187TIP3    H172976   5.575   1.025  16.291 -0.2546 -1.5058  0.4683
17187TIP3    H272977   5.615   1.007  16.435 -0.6776  1.1944  0.9916
17188TIP3   OH272978   6.682   3.343  13.802 -0.4210  0.1859 -0.0125
17188TIP3    H172979   6.711   3.255  13.827 -1.3879 -0.1748 -0.1115
17188TIP3    H272980   6.742   3.368  13.731 -0.8917 -0.9080 -0.8260
17189TIP3   OH272981   5.669   5.582   2.943 -0.5054 -0.1432 -0.0454
17189TIP3    H172982   5.720   5.600   2.864  1.5138 -0.9954  0.9891
17189TIP3    H272983   5.679   5.660   2.997 -0.8512 -0.0599 -0.0969
17190TIP3   OH272984   1.650   3.590   3.361  0.1875  0.2870 -0.2559
17190TIP3    H172985   1.565   3.608   3.321  0.6239  0.0623 -1.3408
17190TIP3    H272986   1.632   3.525   3.429 -0.3827 -0.5617 -1.1807
17191TIP3   OH272987   4.344   5.214   5.744  0.5200 -0.5992  0.7852
17191TIP3    H172988   4.278   5.145   5.748  0.9783 -1.1321 -0.4777
17191TIP3    H272989   4.395   5.202   5.825  1.1472 -2.3285  0.1793
17192TIP3   OH272990   4.708   5.238   0.406 -0.4654  0.0143  0.1151
17192TIP3    H172991   4.697   5.144   0.388 -0.5394  0.0558 -0.0519
17192TIP3    H272992   4.748   5.273   0.327 -1.8444  0.4109 -0.4239
17193TIP3   OH272993   3.177   4.937  13.175 -0.4687  0.0019 -0.2836
17193TIP3    H172994   3.223   4.990  13.109 -0.2626 -4.1473 -3.8787
17193TIP3    H272995   3.247   4.902  13.230 -0.4970  2.0866  1.2100
17194TIP3   OH272996   2.603   1.796  13.650 -0.1597  0.3496 -0.1545
17194TIP3    H172997   2.666   1.823  13.717 -0.6629  0.5258  0.2501
17194TIP3    H272998   2.614   1.859  13.580 -0.5885  0.9900  0.3421
17195TIP3   OH272999   5.284   1.491  11.633 -0.0717 -0.7376  0.3383
17195TIP3    H173000   5.211   1.455  11.685 -0.6875  1.9849  1.5162
17195TIP3    H273001   5.313   1.567  11.683  2.1214 -0.4377 -1.2740
17196TIP3   OH273002   3.242   4.630  14.876  0.0965 -0.0907  0.1746
17196TIP3    H173003   3.155   4.615  14.840  0.9258  0.3255 -2.1597
17196TIP3    H273004   3.302   4.605  14.806  1.8092  1.2726  1.0689
17197TIP3   OH273005   0.311   0.040   5.099  0.2692 -0.1346 -0.4594
17197TIP3    H173006   0.393   0.062   5.055  2.3374 -3.1754  1.4937
17197TIP3    H273007   0.304  -0.056   5.092 -0.6051 -0.5289  3.3696
17198TIP3   OH273008   6.178   3.769  15.442 -0.1503 -0.0872  0.1025
17198TIP3    H173009   6.152   3.680  15.466  1.3412 -1.0296 -1.5135
17198TIP3    H273010   6.174   3.770  15.346  1.5001  1.0221  0.0029
17199TIP3   OH273011   2.296   0.752   4.458  0.4753 -0.3398 -0.0004
17199TIP3    H173012   2.256   0.743   4.544 -0.9674 -2.0027 -0.7738
17199TIP3    H273013   2.369   0.691   4.459  0.1914 -0.6835 -0.0911
17200TIP3   OH273014   3.820   2.756   0.475  0.4065 -0.6033  0.2277
17200TIP3    H173015   3.852   2.673   0.439  1.0539 -0.6043  0.7968
17200TIP3    H273016   3.893   2.789   0.528 -0.6401 -0.7575  1.8159
17201TIP3   OH273017   3.270   6.728   3.949  0.3610  0.5055 -0.3585
17201TIP3    H173018   3.335   6.691   4.008  2.0966  0.7924 -2.0221
17201TIP3    H273019   3.186   6.694   3.981  1.4322 -0.8847  1.0695
17202TIP3   OH273020   1.651   2.780  15.570 -0.2850  0.0800  0.2411
17202TIP3    H173021   1.556   2.793  15.575 -0.7669 -2.4049 -0.6359
17202TIP3    H273022   1.671   2.790  15.477  0.7076  2.5361  0.6689
17203TIP3   OH273023   0.336   2.400  14.235  0.2910 -0.4989 -0.7416
17203TIP3    H173024   0.366   2.380  14.146  2.5033  0.3797 -0.2595
17203TIP3    H273025   0.406   2.366  14.292 -0.9218 -0.7453  0.6554
17204TIP3   OH273026   6.135   2.356  11.204 -0.3696 -0.0371 -0.0333
17204TIP3    H173027   6.230   2.362  11.189 -0.0085  0.9255  2.1919
17204TIP3    H273028   6.097   2.410  11.134  0.6585 -0.8446 -1.2639
17205TIP3   OH273029   4.913   1.440  12.460  0.0788 -0.2794  0.0098
17205TIP3    H173030   4.915   1.528  12.497  0.4204 -0.5429  0.6484
17205TIP3    H273031   4.834   1.437  12.407  0.2907  0.5425 -0.3640
17206TIP3   OH273032   1.232   5.585   1.599  0.6781  0.0559  0.2824
17206TIP3    H173033   1.254   5.494   1.582  3.0239  0.5346  0.3323
17206TIP3    H273034   1.169   5.582   1.671 -1.7220 -1.5887 -1.7127
17207TIP3   OH273035   2.505   1.757  16.911 -0.1009  0.3612 -0.4257
17207TIP3    H173036   2.457   1.820  16.965 -0.7729  0.6597 -1.3399
17207TIP3    H273037   2.520   1.803  16.828 -0.1841 -0.5184 -0.9445
17208TIP3   OH273038   4.807   6.077  12.778  0.2774  0.6859  0.3678
17208TIP3    H173039   4.802   6.126  12.696  0.3410 -0.0046 -0.0571
17208TIP3    H273040   4.814   5.986  12.751  2.1188  0.5602  1.0957
17209TIP3   OH273041   4.136   0.459   5.049 -0.7790  0.3207  0.1613
17209TIP3    H173042   4.194   0.500   5.113  1.5432 -1.4432 -0.6987
17209TIP3    H273043   4.083   0.398   5.100  2.0594 -2.1536  0.3711
17210TIP3   OH273044   5.274   4.358  16.778 -0.2853  0.0531 -0.2644
17210TIP3    H173045   5.255   4.400  16.862  2.0683 -1.7665  1.3001
17210TIP3    H273046   5.222   4.278  16.778  0.9935 -0.8104  0.3031
17211TIP3   OH273047   5.936   2.163   6.070 -0.2028  0.0875 -0.0605
17211TIP3    H173048   5.979   2.129   6.149 -1.5420 -1.1284  0.1704
17211TIP3    H273049   5.843   2.151   6.086 -0.5047 -0.1646 -1.8237
17212TIP3   OH273050   6.140   0.457   1.503 -0.8200  0.2361 -0.0667
17212TIP3    H173051   6.123   0.551   1.509 -0.5089  0.3117 -0.3573
17212TIP3    H273052   6.109   0.422   1.586  1.2975  0.9380  1.0737
17213TIP3   OH273053   4.204   0.282   1.604 -0.2885  0.1437 -0.1978
17213TIP3    H173054   4.275   0.281   1.540 -0.9020  0.8716 -0.9177
17213TIP3    H273055   4.159   0.199   1.590 -1.1305  0.7884 -1.5784
17214TIP3   OH273056   1.151   4.674   3.291  0.2305 -0.2212  0.1409
17214TIP3    H173057   1.118   4.706   3.375 -1.0813  0.6680 -0.6821
17214TIP3    H273058   1.184   4.586   3.311  0.8744  0.3482  1.7762
17215TIP3   OH273059   0.929   5.176   1.905 -0.6085  0.8867 -0.1375
17215TIP3    H173060   0.936   5.175   1.810  0.8681  0.0115 -0.0614
17215TIP3    H273061   0.919   5.084   1.930  1.0510  0.8630  0.6234
17216TIP3   OH273062   4.301   2.935  11.026  0.0600 -0.0435  0.1253
17216TIP3    H173063   4.269   2.848  11.047  0.6662 -0.0960  0.8407
17216TIP3    H273064   4.374   2.920  10.966  1.5781 -0.1679  1.9306
17217TIP3   OH273065   0.056   2.259  13.932  0.0487 -0.0807 -0.3740
17217TIP3    H173066   0.136   2.270  13.882  1.0473 -0.7616  1.0037
17217TIP3    H273067   0.012   2.184  13.891  2.1482 -2.3658  1.2500
17218TIP3   OH273068   3.400   2.232  15.816 -0.3127 -0.3190  0.8285
17218TIP3    H173069   3.407   2.201  15.906 -0.6950 -0.7500  0.7153
17218TIP3    H273070   3.490   2.254  15.791 -0.0407 -1.2373  0.9570
17219TIP3   OH273071   3.729   3.951  15.158  0.2074 -0.5038 -0.3800
17219TIP3    H173072   3.650   3.912  15.120  0.3710  0.5311 -1.8936
17219TIP3    H273073   3.752   3.893  15.231 -1.6759 -1.0807 -0.1828
17220TIP3   OH273074   1.850   5.506  15.137  0.4258  0.0341  0.3667
17220TIP3    H173075   1.836   5.447  15.211 -0.0220  1.1260  1.1811
17220TIP3    H273076   1.934   5.549  15.156 -0.1141  0.9621  0.7082
17221TIP3   OH273077   2.298   6.025   5.319 -0.0270 -0.1346 -0.7403
17221TIP3    H173078   2.319   5.995   5.407 -1.1236  1.8536  0.2845
17221TIP3    H273079   2.350   5.970   5.261  0.3905 -1.7952  1.1136
17222TIP3   OH273080   0.411   3.681  16.396  0.3291 -0.3946  0.4407
17222TIP3    H173081   0.320   3.692  16.423  0.0320 -1.0743 -0.2460
17222TIP3    H273082   0.406   3.630  16.315  1.3552 -1.2032  0.8570
17223TIP3   OH273083   2.589   4.522  11.610 -0.0025 -0.5309  0.5236
17223TIP3    H173084   2.574   4.522  11.704 -2.1973 -1.0197  0.2190
17223TIP3    H273085   2.506   4.551  11.572  1.1035  0.5524 -1.2445
17224TIP3   OH273086   5.169   0.712  13.851  0.4802 -0.2474  0.0469
17224TIP3    H173087   5.075   0.718  13.831  0.6616 -1.3480 -1.2553
17224TIP3    H273088   5.177   0.635  13.907  0.4481  0.6990  1.3992
17225TIP3   OH273089   6.718   6.294   3.484  0.0552  0.0128 -0.1702
17225TIP3    H173090   6.656   6.228   3.455  0.6461 -0.3212 -0.6968
17225TIP3    H273091   6.748   6.336   3.403  1.7139 -0.9193 -0.0871
17226TIP3   OH273092   4.414   5.378  14.659 -0.5932 -0.0359  0.3030
17226TIP3    H173093   4.410   5.312  14.729  0.9329 -0.4688  0.0194
17226TIP3    H273094   4.505   5.377  14.631 -0.8124  1.3794 -0.5219
17227TIP3   OH273095   4.794   0.126  16.692 -0.0125  0.5072 -0.1243
17227TIP3    H173096   4.766   0.130  16.784  0.2287  1.4544 -0.0797
17227TIP3    H273097   4.874   0.073  16.694  0.3153  1.0129  0.3000
17228TIP3   OH273098   4.893   0.832  16.781  0.1877 -0.2271 -0.3173
17228TIP3    H173099   4.973   0.806  16.735  1.1090 -0.4377  1.3200
17228TIP3    H273100   4.921   0.902  16.840 -0.4738 -1.3935  1.4358
17229TIP3   OH273101   0.818   0.759  14.243 -0.1478  0.1985 -0.2040
17229TIP3    H173102   0.804   0.779  14.336  1.3851 -1.3172  0.4039
17229TIP3    H273103   0.731   0.734  14.211 -0.8308  1.4096  0.6234
17230TIP3   OH273104   2.375   6.353  11.554 -0.0002 -0.1418 -0.5476
17230TIP3    H173105   2.303   6.290  11.549  1.8461 -2.6416  1.4726
17230TIP3    H273106   2.438   6.324  11.489 -0.2553  1.3468 -1.5093
17231TIP3   OH273107   2.220   4.974  13.339  0.0015 -0.2749 -0.3845
17231TIP3    H173108   2.243   4.974  13.432  1.5494 -0.6988 -0.7458
17231TIP3    H273109   2.160   4.899  13.329 -1.8102  0.9606  0.6050
17232TIP3   OH273110   3.350   5.700   4.189 -0.0256  0.0581 -0.2537
17232TIP3    H173111   3.361   5.610   4.217 -2.8392 -0.7947 -1.5268
17232TIP3    H273112   3.361   5.697   4.094 -0.8551  0.9034 -0.3943
17233TIP3   OH273113   2.166   2.270   4.356 -0.2072 -0.3805  0.4938
17233TIP3    H173114   2.143   2.303   4.443 -0.9513 -0.3144  0.2772
17233TIP3    H273115   2.260   2.284   4.350 -0.0963 -0.6304  1.3953
17234TIP3   OH273116   2.596   1.010   2.900 -0.2222  0.3080  0.0626
17234TIP3    H173117   2.687   1.028   2.874 -0.4442  0.1432 -0.8800
17234TIP3    H273118   2.553   1.096   2.894  0.0486  0.5404  1.3052
17235TIP3   OH273119   0.892   4.009   4.292 -0.6155 -0.3145 -0.1734
17235TIP3    H173120   0.978   4.042   4.318 -0.9903  0.5078  0.0586
17235TIP3    H273121   0.901   3.914   4.296 -0.0014 -0.2331  0.7747
17236TIP3   OH273122   1.529   2.957   6.024 -0.2184 -0.4692 -0.0556
17236TIP3    H173123   1.469   2.897   5.982 -0.1543 -0.4499 -0.1741
17236TIP3    H273124   1.473   3.018   6.072 -0.2792 -0.6904  0.1554
17237TIP3   OH273125   3.081   2.518  14.815  0.1207 -0.3667 -0.1285
17237TIP3    H173126   3.158   2.530  14.870  1.4108 -1.3731 -1.6135
17237TIP3    H273127   3.051   2.429  14.834  0.0876 -0.4269 -0.4503
17238TIP3   OH273128   1.827   4.760   3.541  0.4223  0.3691  0.8525
17238TIP3    H173129   1.878   4.814   3.480  0.5791 -1.0723 -0.3514
17238TIP3    H273130   1.887   4.742   3.613  0.7994  0.7044  0.6286
17239TIP3   OH273131   5.554   0.600  11.946  0.0751 -0.2622  0.2752
17239TIP3    H173132   5.633   0.631  11.901  0.1566  0.9778  1.2268
17239TIP3    H273133   5.587   0.561  12.027 -0.3240  0.8178  0.9667
17240TIP3   OH273134   0.237   6.490  13.482 -0.5275  0.0508 -0.3152
17240TIP3    H173135   0.206   6.536  13.560  0.9165 -0.2439  0.4638
17240TIP3    H273136   0.262   6.560  13.422 -0.3694  0.2902  0.0238
17241TIP3   OH273137   1.584   5.612   5.341  0.2316  0.5094 -0.1290
17241TIP3    H173138   1.645   5.620   5.415  0.7133 -2.4319 -0.0677
17241TIP3    H273139   1.615   5.677   5.278  1.5225  1.2059  1.1379
17242TIP3   OH273140   1.790   6.187   2.957 -0.1506  0.6334 -0.1715
17242TIP3    H173141   1.714   6.163   2.903 -0.4011 -1.1268  0.8931
17242TIP3    H273142   1.865   6.149   2.910 -0.2976 -0.3536  0.3778
17243TIP3   OH273143   4.767   4.248   1.683 -0.1728 -0.0110 -0.2985
17243TIP3    H173144   4.765   4.278   1.773  0.1477 -0.4536 -0.1386
17243TIP3    H273145   4.790   4.325   1.632  2.7479 -0.3610  0.2953
17244TIP3   OH273146   0.776   5.542   3.891 -0.1139  0.0414  0.2574
17244TIP3    H173147   0.820   5.462   3.919  2.3763  1.2591  0.0548
17244TIP3    H273148   0.780   5.540   3.795  0.7939  0.8143  0.2649
17245TIP3   OH273149   6.404   3.058  16.090  0.0137  0.6314  0.0776
17245TIP3    H173150   6.491   3.088  16.061  0.7545 -0.7201  0.7724
17245TIP3    H273151   6.380   2.991  16.026 -1.2715  2.0703 -1.0188
17246TIP3   OH273152   0.730   2.789   0.604  0.0984 -0.7559 -0.3617
17246TIP3    H173153   0.765   2.704   0.576  0.5303 -0.7952  0.2658
17246TIP3    H273154   0.738   2.845   0.526  2.4277 -0.5186 -0.0241
17247TIP3   OH273155   0.813   0.808  11.003  0.3038  0.0760 -0.2127
17247TIP3    H173156   0.763   0.885  10.978 -0.0558  0.5179  1.7128
17247TIP3    H273157   0.904   0.835  10.994  0.1941  1.0510  1.2275
17248TIP3   OH273158   1.577   1.311   0.706 -0.5266 -0.3440  0.0250
17248TIP3    H173159   1.545   1.258   0.778  0.4659 -0.0574  0.6964
17248TIP3    H273160   1.500   1.361   0.677 -1.2252 -1.3857  0.0410
17249TIP3   OH273161   1.936   2.437  13.713  0.0352  0.1428 -0.4379
17249TIP3    H173162   1.930   2.501  13.642 -2.6975 -0.1523 -0.5855
17249TIP3    H273163   1.963   2.488  13.790  2.6497  0.5279 -1.5162
17250TIP3   OH273164   2.295   5.059  11.181 -0.2207  0.0707  0.3822
17250TIP3    H173165   2.271   4.999  11.110 -1.0394 -0.4478  1.0665
17250TIP3    H273166   2.389   5.046  11.193  0.1871  1.0838 -1.4254
17251TIP3   OH273167   3.144   2.842  10.671 -0.2577 -0.6514  0.0076
17251TIP3    H173168   3.111   2.768  10.620 -0.2461  0.1862 -1.2495
17251TIP3    H273169   3.144   2.810  10.762 -1.6179 -1.6990 -0.3243
17252TIP3   OH273170   5.741   1.284   5.020 -0.6438 -0.0008  0.3117
17252TIP3    H173171   5.811   1.253   5.077 -2.3941 -1.0743  1.9856
17252TIP3    H273172   5.747   1.229   4.942  0.6269  0.2383  0.2229
17253TIP3   OH273173   1.392   0.953   2.555  0.2440  0.1874  0.3594
17253TIP3    H173174   1.312   1.000   2.579  0.8638  0.7034  1.4930
17253TIP3    H273175   1.420   0.910   2.636  1.2849  0.2856  0.0667
17254TIP3   OH273176   1.775   1.868  12.999  0.1547  0.4396  0.0760
17254TIP3    H173177   1.702   1.869  12.937  0.2403 -1.3373 -0.1203
17254TIP3    H273178   1.850   1.837  12.948  0.3358 -0.6009  0.9134
17255TIP3   OH273179   3.534   4.392  13.987 -0.6994 -0.1665  0.9135
17255TIP3    H173180   3.587   4.437  14.053  0.1050 -0.1375  0.2681
17255TIP3    H273181   3.469   4.343  14.038 -0.1621 -0.0680  1.7211
17256TIP3   OH273182   0.030   6.212   2.066 -0.2289 -0.2519 -0.0938
17256TIP3    H173183   0.079   6.283   2.024  1.3498 -0.9938  0.4004
17256TIP3    H273184  -0.007   6.252   2.145 -0.4302  0.3244 -0.4726
17257TIP3   OH273185   6.152   3.508  13.863 -0.0688  0.4991  0.5995
17257TIP3    H173186   6.181   3.505  13.772  1.6501  1.0024  1.1103
17257TIP3    H273187   6.148   3.416  13.889 -0.6765  0.3461 -0.0004
17258TIP3   OH273188   6.595   3.174  13.090  0.3915 -0.0637 -0.9712
17258TIP3    H173189   6.632   3.147  13.006  0.1437 -1.4466 -0.6607
17258TIP3    H273190   6.594   3.094  13.142 -0.9309  0.4356 -0.1874
17259TIP3   OH273191   6.021   4.673   6.217 -0.4517  0.3819 -0.6237
17259TIP3    H173192   6.061   4.708   6.297 -0.1902  0.6552 -0.8695
17259TIP3    H273193   5.928   4.664   6.238 -0.2026 -0.6594  0.0907
17260TIP3   OH273194   3.978   5.780  13.240 -0.5414 -0.0623 -0.4349
17260TIP3    H173195   4.022   5.847  13.292  0.3563 -0.8443 -0.1560
17260TIP3    H273196   3.929   5.728  13.305 -0.4380 -0.2785 -0.5309
17261TIP3   OH273197   6.362   5.258   5.577  0.2673 -0.5114 -0.2582
17261TIP3    H173198   6.436   5.268   5.636  0.2148  1.0606 -0.4035
17261TIP3    H273199   6.381   5.318   5.505 -1.1235 -0.0646 -0.2895
17262TIP3   OH273200   5.543   3.512  16.472  0.0045  0.3165 -0.4739
17262TIP3    H173201   5.606   3.440  16.472 -0.4318 -0.0783  0.2746
17262TIP3    H273202   5.594   3.589  16.448  0.7371 -0.0248 -0.0459
17263TIP3   OH273203   1.852   5.296  13.483 -0.3163  0.0186 -0.0989
17263TIP3    H173204   1.825   5.209  13.454  0.5155  0.1842 -1.4357
17263TIP3    H273205   1.943   5.286  13.508  0.4308  0.8874 -2.2358
17264TIP3   OH273206   1.899   6.065   2.174  0.3566 -1.2149  0.2991
17264TIP3    H173207   1.921   6.138   2.233 -1.5783 -2.2586  2.4710
17264TIP3    H273208   1.860   6.107   2.097 -2.6734  0.1329  2.3566
17265TIP3   OH273209   3.331   2.810  10.293 -0.6461  0.1413 -1.0916
17265TIP3    H173210   3.425   2.814  10.274 -0.7078  1.4080 -1.2222
17265TIP3    H273211   3.298   2.742  10.234  0.0213  0.4224 -1.8161
17266TIP3   OH273212   0.666   0.681   0.441 -0.0938  0.2398  0.1391
17266TIP3    H173213   0.630   0.736   0.372 -0.7159 -1.5520 -1.0368
17266TIP3    H273214   0.591   0.655   0.494  0.2891  1.0587  1.1166
17267TIP3   OH273215   6.039   5.946  13.045 -0.2414 -0.6913  0.3021
17267TIP3    H173216   6.069   5.942  12.954 -1.7975 -1.5553 -0.2251
17267TIP3    H273217   6.099   5.889  13.092  0.2723 -0.6451 -0.2818
17268TIP3   OH273218   1.618   4.754   3.999 -0.2385  0.1829 -0.4636
17268TIP3    H173219   1.708   4.784   4.012 -0.9538  2.6285 -0.7505
17268TIP3    H273220   1.627   4.660   3.979  2.4299  0.7450 -2.5179
17269TIP3   OH273221   3.225   4.758   2.545 -0.1043 -0.8771  0.1494
17269TIP3    H173222   3.172   4.806   2.481  0.3243  0.3313  0.6526
17269TIP3    H273223   3.258   4.682   2.497 -0.9733 -0.7858 -0.6301
17270TIP3   OH273224   2.999   1.174  12.531 -0.3459  0.3214 -0.3971
17270TIP3    H173225   2.907   1.154  12.546 -0.1505 -1.6719 -1.5320
17270TIP3    H273226   3.000   1.214  12.444 -0.1820  0.7886 -0.1824
17271TIP3   OH273227   3.975   2.855   5.418 -0.5304 -0.2419  0.4069
17271TIP3    H173228   4.064   2.841   5.384 -1.2132 -0.7487 -1.2506
17271TIP3    H273229   3.974   2.948   5.443  0.8497 -0.5322  1.7131
17272TIP3   OH273230   5.747   5.522   1.066 -0.0230 -0.6117 -0.3702
17272TIP3    H173231   5.721   5.442   1.113  2.0880 -1.3786 -0.3939
17272TIP3    H273232   5.729   5.502   0.974 -1.2674 -0.2999 -0.2115
17273TIP3   OH273233   4.788   5.016  16.114 -0.0037  0.4154  0.9064
17273TIP3    H173234   4.868   5.038  16.162 -0.1770  0.4611  1.1809
17273TIP3    H273235   4.727   5.087  16.135 -0.1978  0.2519  0.9057
17274TIP3   OH273236   1.260   0.687   6.340  0.6648 -0.2935 -0.2728
17274TIP3    H173237   1.166   0.678   6.352  0.2845  2.2633 -0.8252
17274TIP3    H273238   1.270   0.734   6.257  2.3986  0.0704  0.0940
17275TIP3   OH273239   1.994   4.190  10.473  0.2708 -0.5042  0.0042
17275TIP3    H173240   1.930   4.199  10.543  1.1212  0.8094  0.6415
17275TIP3    H273241   1.974   4.261  10.412 -1.7320 -2.7720 -2.2232
17276TIP3   OH273242   2.486   3.869  16.182  1.0874  0.2626  0.1152
17276TIP3    H173243   2.578   3.847  16.200  1.6036  1.5264 -0.8177
17276TIP3    H273244   2.448   3.885  16.268  1.8363  0.0711  0.4938
17277TIP3   OH273245   6.473   5.662   2.701 -0.1929 -0.1948  0.4601
17277TIP3    H173246   6.399   5.662   2.761 -1.1147  1.3137 -0.6031
17277TIP3    H273247   6.433   5.666   2.614  1.0982 -2.4812 -0.3259
17278TIP3   OH273248   0.609   0.646   5.388 -0.6595  0.9957  0.4642
17278TIP3    H173249   0.617   0.575   5.324 -0.2867  0.3104  1.2547
17278TIP3    H273250   0.623   0.726   5.336 -1.0598  0.5083 -0.4322
17279TIP3   OH273251   6.723   2.200  13.609 -0.1762 -0.1042 -0.6788
17279TIP3    H173252   6.776   2.191  13.530  0.2642  0.5844 -0.4795
17279TIP3    H273253   6.747   2.125  13.663  0.0191 -0.2178 -0.9218
17280TIP3   OH273254   2.891   1.314   3.081 -0.2987 -0.3567  0.0164
17280TIP3    H173255   2.966   1.306   3.021  0.9988  1.0342  1.3499
17280TIP3    H273256   2.828   1.367   3.034 -0.3318 -1.2644 -1.0060
17281TIP3   OH273257   6.538   2.761   0.393 -0.3890  0.3809 -0.3417
17281TIP3    H173258   6.596   2.696   0.432 -1.3059 -1.6891 -2.1831
17281TIP3    H273259   6.592   2.839   0.384  1.3610 -0.6973  0.2494
17282TIP3   OH273260   3.917   3.723   3.825  0.5694  0.3703  0.2305
17282TIP3    H173261   3.933   3.705   3.732  0.6062  0.4765  0.2150
17282TIP3    H273262   3.906   3.818   3.829 -1.1455  0.1972  0.0874
17283TIP3   OH273263   6.136   4.106   0.550  0.2297  0.2224  0.1079
17283TIP3    H173264   6.069   4.080   0.614  0.6368 -1.8945 -0.2206
17283TIP3    H273265   6.219   4.078   0.590  0.5864 -0.1950 -0.8821
17284TIP3   OH273266   4.562   0.056   3.179  0.2709  0.1274 -0.6270
17284TIP3    H173267   4.641   0.101   3.149 -0.2215  0.3293 -1.6773
17284TIP3    H273268   4.539  -0.003   3.107 -1.3199  1.0952 -0.9765
17285TIP3   OH273269   5.943   3.599  16.597  0.1254  0.3416  0.5009
17285TIP3    H173270   5.883   3.625  16.527  1.9230 -1.2764 -1.8237
17285TIP3    H273271   5.918   3.509  16.617  1.3961 -0.1647 -0.1198
17286TIP3   OH273272   2.048   4.445  14.210 -0.1892  0.2310 -0.0427
17286TIP3    H173273   2.047   4.529  14.255 -0.4911  0.9319 -1.2914
17286TIP3    H273274   2.070   4.467  14.119 -2.5591 -0.7451 -0.9385
17287TIP3   OH273275   6.030   3.438   1.841 -0.4679  0.5137 -0.0879
17287TIP3    H173276   6.087   3.362   1.838 -0.6714  0.3468  0.3083
17287TIP3    H273277   6.090   3.513   1.839 -0.2658  0.3487 -0.3743
17288TIP3   OH273278   2.114   1.361  15.205  0.2931 -0.0804  0.2741
17288TIP3    H173279   2.083   1.354  15.115  1.5623  1.7047 -0.3558
17288TIP3    H273280   2.208   1.341  15.199  0.3128 -0.3467  1.2768
17289TIP3   OH273281   0.801   3.707  15.324  0.2880 -0.4219 -0.2872
17289TIP3    H173282   0.871   3.683  15.263  0.0546  0.1153 -0.7752
17289TIP3    H273283   0.722   3.671  15.286  0.2046 -0.4748 -0.0673
17290TIP3   OH273284   0.588   1.773   4.705  0.1382 -0.4589 -0.6779
17290TIP3    H173285   0.595   1.846   4.767  1.6138 -0.3479 -0.9575
17290TIP3    H273286   0.605   1.812   4.620 -0.9575 -0.7943 -1.0711
17291TIP3   OH273287   3.196   2.373  11.531 -0.2132 -0.4562  0.3402
17291TIP3    H173288   3.223   2.321  11.456 -0.4323 -2.7479  1.7585
17291TIP3    H273289   3.263   2.357  11.597 -0.5723  0.6796  1.0167
17292TIP3   OH273290   0.155   4.295  16.375  0.6622  0.0418  0.2696
17292TIP3    H173291   0.160   4.213  16.326  2.3749 -0.0972  0.6077
17292TIP3    H273292   0.092   4.348  16.326 -0.8618 -1.6186  0.3098
17293TIP3   OH273293   3.143   2.049   2.215 -0.2920  0.0577 -0.0192
17293TIP3    H173294   3.081   2.007   2.275 -1.8043  1.0877 -0.8037
17293TIP3    H273295   3.116   2.020   2.128 -1.9618  3.1614 -0.6902
17294TIP3   OH273296   2.029   2.156   3.680  0.1080  0.2589  0.2619
17294TIP3    H173297   2.003   2.095   3.611  0.1679  1.8352 -1.1987
17294TIP3    H273298   2.094   2.108   3.731 -0.2650 -1.1019 -0.5011
17295TIP3   OH273299   4.571   4.300   1.036  0.1379  0.6367  0.2299
17295TIP3    H173300   4.654   4.281   0.992 -0.5601 -0.0523 -0.8216
17295TIP3    H273301   4.529   4.365   0.979 -1.1772 -0.9290 -0.6702
17296TIP3   OH273302   6.442   2.152   1.993  0.2770 -0.5449  0.3188
17296TIP3    H173303   6.480   2.215   1.931  1.3277 -0.9122  0.5681
17296TIP3    H273304   6.385   2.205   2.049 -0.5591 -0.1792 -0.8369
17297TIP3   OH273305   5.765   4.160   1.042 -0.2836  0.0265  0.1447
17297TIP3    H173306   5.817   4.115   1.108 -1.0272 -1.4819 -0.2517
17297TIP3    H273307   5.689   4.194   1.089  0.7803  1.8319  0.6378
17298TIP3   OH273308   4.199   4.299   1.271  0.8196 -0.6099 -0.2496
17298TIP3    H173309   4.160   4.223   1.315 -0.7886 -0.0926 -0.7328
17298TIP3    H273310   4.293   4.284   1.277  0.5781 -1.7779  1.1984
17299TIP3   OH273311   1.477   0.294  13.754 -0.1857  0.2522  0.7576
17299TIP3    H173312   1.563   0.276  13.790  0.3791  0.4437 -0.4551
17299TIP3    H273313   1.490   0.368  13.694 -1.2743  0.5900  0.9005
17300TIP3   OH273314   2.333   2.375   3.703 -0.1945  0.6514 -0.4803
17300TIP3    H173315   2.386   2.327   3.767 -0.0418  1.3424 -0.0773
17300TIP3    H273316   2.276   2.431   3.756 -2.0860 -0.7955 -0.8509
17301TIP3   OH273317   2.973   4.575  11.587  0.0292  0.5528  0.0780
17301TIP3    H173318   2.915   4.507  11.552  0.4930 -0.9579  2.0719
17301TIP3    H273319   3.057   4.561  11.544 -0.1437  0.4930 -0.2375
17302TIP3   OH273320   0.223   4.795  15.573 -0.6183  0.5185 -0.4039
17302TIP3    H173321   0.136   4.784  15.536 -0.5060  0.8694 -0.7775
17302TIP3    H273322   0.211   4.858  15.645 -0.2366  2.7494 -2.1900
17303TIP3   OH273323   1.690   1.629   3.103  0.3496 -0.4987  0.4592
17303TIP3    H173324   1.761   1.671   3.055  1.5842 -2.1059  0.7943
17303TIP3    H273325   1.617   1.689   3.095  2.0147  1.7200  0.9372
17304TIP3   OH273326   3.114   2.322   6.176  0.2665 -0.2240  0.6106
17304TIP3    H173327   3.042   2.261   6.157 -0.6638  1.1142 -0.3549
17304TIP3    H273328   3.071   2.397   6.218  1.2114  0.2715  0.7038
17305TIP3   OH273329   0.594   0.149  16.140 -0.7669 -0.0190 -0.1978
17305TIP3    H173330   0.622   0.213  16.206 -0.9206  0.6272 -0.7438
17305TIP3    H273331   0.505   0.177  16.116 -0.9665 -0.6442 -0.1978
17306TIP3   OH273332   1.337   1.348  13.884 -0.4914 -0.1068  0.4611
17306TIP3    H173333   1.397   1.408  13.840 -1.0925 -0.6024 -1.1267
17306TIP3    H273334   1.384   1.320  13.962  0.8632  0.4061 -0.1305
17307TIP3   OH273335   2.659   3.179   3.449 -0.3423  0.4586 -0.1103
17307TIP3    H173336   2.605   3.257   3.435  0.9909  1.2453 -1.1403
17307TIP3    H273337   2.674   3.144   3.361 -0.6447 -0.7736  0.3151
17308TIP3   OH273338   1.749   2.619   4.228  0.4189 -0.0745 -0.3812
17308TIP3    H173339   1.655   2.636   4.232  0.8336  2.2688  1.9106
17308TIP3    H273340   1.771   2.578   4.311  1.8000  2.0248  0.3642
17309TIP3   OH273341   4.158   6.030  14.051  0.5053 -0.3424 -0.3500
17309TIP3    H173342   4.138   6.116  14.013 -0.2384 -0.4821 -0.3039
17309TIP3    H273343   4.243   6.007  14.016  0.7522  0.4566 -0.2910
17310TIP3   OH273344   0.364   5.187  13.432  0.1726  0.3181  0.0762
17310TIP3    H173345   0.432   5.200  13.366  0.7983  0.0018  0.6545
17310TIP3    H273346   0.323   5.273  13.442 -0.7618  0.1175 -1.6091
17311TIP3   OH273347   5.791   0.947  15.489 -0.1119  0.0016 -0.4244
17311TIP3    H173348   5.793   1.026  15.435  1.3695 -0.8427 -1.7032
17311TIP3    H273349   5.861   0.960  15.553  0.6973 -0.5789 -1.1599
17312TIP3   OH273350   6.074   5.048  12.966  0.6603  0.1457 -0.0844
17312TIP3    H173351   6.021   4.970  12.954 -0.5259  0.8414  0.4568
17312TIP3    H273352   6.072   5.065  13.060  2.4423 -0.1997  0.0581
17313TIP3   OH273353   1.245   0.714   2.823  0.0740 -0.4410  1.0019
17313TIP3    H173354   1.153   0.730   2.806  0.6718  2.1048 -0.4037
17313TIP3    H273355   1.267   0.639   2.769 -1.0676 -0.7708  0.9793
17314TIP3   OH273356   4.564   3.075   1.010  0.2260  0.2100 -0.3522
17314TIP3    H173357   4.613   3.102   0.932 -0.5663  0.5684 -0.7370
17314TIP3    H273358   4.557   3.155   1.062 -1.1134  0.4989 -0.9425
17315TIP3   OH273359   5.163   6.429  10.724  0.3880  0.1387 -0.1293
17315TIP3    H173360   5.144   6.384  10.806 -1.4821  1.4485  0.2140
17315TIP3    H273361   5.150   6.362  10.657 -0.7429 -0.2726  0.4771
17316TIP3   OH273362   5.348   5.093   1.476 -0.6621  0.2038  0.1914
17316TIP3    H173363   5.285   5.026   1.503 -0.3275 -1.2424 -2.3364
17316TIP3    H273364   5.297   5.174   1.472 -1.3916 -0.1149  1.9382
17317TIP3   OH273365   0.160   2.661  13.417  0.3322 -0.4981  0.5822
17317TIP3    H173366   0.225   2.591  13.410  0.4685 -0.2206 -1.4073
17317TIP3    H273367   0.205   2.731  13.463  1.4254 -0.3818 -0.6050
17318TIP3   OH273368   0.582   0.446   3.694 -0.6232  0.6487 -0.6858
17318TIP3    H173369   0.641   0.507   3.738  0.7809  0.3004 -1.9632
17318TIP3    H273370   0.587   0.366   3.747  0.2372  0.5696 -0.8551
17319TIP3   OH273371   1.243   5.219   3.482 -0.8967  0.4192 -0.1646
17319TIP3    H173372   1.173   5.155   3.465  0.6313 -0.7065 -2.8756
17319TIP3    H273373   1.323   5.173   3.456  0.4076  2.9845 -0.9412
17320TIP3   OH273374   2.647   5.907   4.885  0.3068  0.1403  0.3080
17320TIP3    H173375   2.638   5.813   4.868  1.1645  0.4214 -1.9913
17320TIP3    H273376   2.740   5.924   4.876 -0.1077  1.6025 -1.8116
17321TIP3   OH273377   0.491   6.423   4.587  0.9267 -0.2773  0.3821
17321TIP3    H173378   0.405   6.431   4.546  1.0229  2.5968  0.5870
17321TIP3    H273379   0.547   6.482   4.537  2.3303 -0.6480  1.4439
17322TIP3   OH273380   6.130   1.031   4.613  0.3451 -0.0791 -0.1135
17322TIP3    H173381   6.198   0.982   4.660  1.3857 -0.9835 -2.3628
17322TIP3    H273382   6.048   0.994   4.644  0.9982 -0.9795  0.6149
17323TIP3   OH273383   1.797   4.983   1.289 -0.4763 -0.0076  0.3477
17323TIP3    H173384   1.820   5.076   1.283 -4.1390  1.0415  0.0675
17323TIP3    H273385   1.761   4.961   1.204 -0.8057 -1.3380  0.7995
17324TIP3   OH273386   4.252   4.276  15.649 -0.4014  0.6030 -0.2601
17324TIP3    H173387   4.225   4.260  15.558 -1.4210 -1.6561  0.3772
17324TIP3    H273388   4.220   4.365  15.668 -0.8708  0.8083 -1.8546
17325TIP3   OH273389   5.806   3.599  12.405  0.2444  0.1256  0.1118
17325TIP3    H173390   5.788   3.693  12.398 -1.6419 -0.2604 -0.6447
17325TIP3    H273391   5.794   3.579  12.498 -0.2236  0.4578  0.1225
17326TIP3   OH273392   5.788   1.459  11.033  0.3042 -0.3331 -0.1256
17326TIP3    H173393   5.867   1.481  11.082  0.7021 -3.1510  0.6820
17326TIP3    H273394   5.819   1.446  10.943  0.4296  0.2181 -0.1653
17327TIP3   OH273395   1.166   4.099  14.160  0.2305 -0.3373 -0.7054
17327TIP3    H173396   1.158   4.040  14.236  2.5610 -2.1715 -1.7413
17327TIP3    H273397   1.095   4.072  14.102 -0.7439  0.1638  0.2135
17328TIP3   OH273398   3.921   1.038   2.742  0.1171 -0.2685 -0.5857
17328TIP3    H173399   3.961   1.107   2.688 -1.6672 -0.6262 -2.5066
17328TIP3    H273400   3.992   1.007   2.798  0.8450  3.6162  0.9643
17329TIP3   OH273401   0.146   0.159  12.991  0.0153  0.0553  0.0163
17329TIP3    H173402   0.126   0.227  12.927  2.8085  1.5580  0.5565
17329TIP3    H273403   0.064   0.147  13.039 -1.2145  1.3288 -1.6279
17330TIP3   OH273404   6.232   0.069   2.925  0.2684  0.0134  0.0418
17330TIP3    H173405   6.192  -0.014   2.950  0.4462  0.2032  0.9886
17330TIP3    H273406   6.196   0.087   2.838  1.8113 -2.0496 -1.1022
17331TIP3   OH273407   0.113   0.002  14.529 -0.2446 -0.0175  0.1161
17331TIP3    H173408   0.090   0.054  14.453 -0.2388  0.4190  0.4101
17331TIP3    H273409   0.145  -0.081  14.493 -2.8412 -0.9325 -0.3086
17332TIP3   OH273410   6.405   2.594  14.129 -0.2286 -0.4606 -0.0380
17332TIP3    H173411   6.339   2.578  14.062  0.2179  1.2516 -0.9673
17332TIP3    H273412   6.363   2.655  14.190 -0.0889 -0.7239  0.3237
17333TIP3   OH273413   3.467   0.398  13.014  0.7206  0.5643 -0.1113
17333TIP3    H173414   3.427   0.415  12.928 -0.8649  1.0310  0.6794
17333TIP3    H273415   3.516   0.317  13.002  0.0072  0.2885 -1.2991
17334TIP3   OH273416   1.678   6.251   4.953 -0.3850  0.4268 -0.2880
17334TIP3    H173417   1.667   6.156   4.943 -0.5745  0.4050  0.1178
17334TIP3    H273418   1.710   6.262   5.042 -0.1311  0.7306 -0.4153
17335TIP3   OH273419   2.573   6.575  11.872  0.5061 -0.3003  0.8408
17335TIP3    H173420   2.514   6.501  11.889  0.0425 -0.0770  0.2350
17335TIP3    H273421   2.602   6.563  11.781  0.4565  0.2429  0.7495
17336TIP3   OH273422   2.903   6.165   0.622  0.3919  0.3105  0.4536
17336TIP3    H173423   2.863   6.114   0.551 -1.7241  1.7447  0.5127
17336TIP3    H273424   2.990   6.187   0.590 -0.2276  0.2491 -1.3723
17337TIP3   OH273425   0.926   2.991   4.118  0.5225 -0.5351  0.1720
17337TIP3    H173426   0.975   3.072   4.107 -1.5802  0.9577  1.1657
17337TIP3    H273427   0.993   2.926   4.140  2.2035  1.0314 -0.0461
17338TIP3   OH273428   1.106   2.420   5.286  0.2134 -0.0466  0.0927
17338TIP3    H173429   1.040   2.398   5.220 -0.5389  0.2391  0.7364
17338TIP3    H273430   1.064   2.399   5.369  0.6490  0.8476  0.5520
17339TIP3   OH273431   2.184   4.019   1.889 -0.0719  0.6418 -0.1032
17339TIP3    H173432   2.202   4.107   1.923  1.5414  0.9171 -1.5113
17339TIP3    H273433   2.271   3.982   1.872 -0.7138 -1.3743  0.7832
17340TIP3   OH273434   4.694   4.116   6.033  0.2277  0.3340 -0.1068
17340TIP3    H173435   4.618   4.082   5.986  0.5391 -1.5903  0.6952
17340TIP3    H273436   4.662   4.129   6.123  0.5282  0.6990 -0.0530
17341TIP3   OH273437   1.772   3.762  10.754 -0.1006 -0.0244  0.2624
17341TIP3    H173438   1.734   3.846  10.777 -1.5779 -0.6744  0.2794
17341TIP3    H273439   1.858   3.783  10.718  0.3448  1.3490  2.0273
17342TIP3   OH273440   4.398   6.695  15.215  0.0145 -0.5256  0.0554
17342TIP3    H173441   4.319   6.743  15.189  1.7325  1.6522 -1.4346
17342TIP3    H273442   4.419   6.729  15.302  0.4066  0.3703 -0.3818
17343TIP3   OH273443   5.488   0.691  13.962  0.4484  0.0187 -0.3027
17343TIP3    H173444   5.430   0.618  13.939 -0.5151  0.2684  1.1491
17343TIP3    H273445   5.439   0.769  13.935  1.2117  0.1582 -1.3075
17344TIP3   OH273446   5.395   1.957  17.076 -1.1177 -0.4793  0.2588
17344TIP3    H173447   5.465   2.017  17.049 -1.3153  0.4690  1.7083
17344TIP3    H273448   5.438   1.872  17.081 -0.8883 -0.5577 -2.0876
17345TIP3   OH273449   4.748   6.197  13.730 -0.5594 -0.0446  0.4848
17345TIP3    H173450   4.822   6.139  13.748 -0.3798 -0.6618 -1.8975
17345TIP3    H273451   4.785   6.266  13.676 -1.2006  1.2157  1.6060
17346TIP3   OH273452   5.071   2.640  16.168  0.5150  0.0656 -0.3301
17346TIP3    H173453   5.019   2.696  16.225  1.4560  0.6944 -0.0648
17346TIP3    H273454   5.025   2.556  16.169  0.2867  0.1771  1.0462
17347TIP3   OH273455   0.060   4.205   1.448  0.4202  0.2273  0.4891
17347TIP3    H173456   0.122   4.229   1.379  0.3481 -0.1429  0.2944
17347TIP3    H273457   0.116   4.191   1.525  0.4133  1.5277  0.7500
17348TIP3   OH273458   4.804   0.973   6.606  0.2949  0.7751  0.1556
17348TIP3    H173459   4.782   1.063   6.582 -2.1834  0.6755  1.7298
17348TIP3    H273460   4.854   0.981   6.687 -0.7993  0.7608  0.8607
17349TIP3   OH273461   4.984   3.552  12.874 -0.3347  0.5892 -0.2534
17349TIP3    H173462   4.970   3.539  12.967 -1.2563  1.2290 -0.2899
17349TIP3    H273463   5.075   3.526  12.859 -0.9564 -2.2025  0.3090
17350TIP3   OH273464   3.953   4.123   0.249  0.8262  0.4247  0.3572
17350TIP3    H173465   3.873   4.071   0.239  1.1510  0.1904 -1.2777
17350TIP3    H273466   3.989   4.096   0.334 -0.8127  0.5537  1.1331
17351TIP3   OH273467   0.415   3.953  12.554  0.2477  0.3195 -0.1338
17351TIP3    H173468   0.327   3.934  12.522  0.5856  1.3636 -1.7690
17351TIP3    H273469   0.402   3.981  12.645 -1.3217  2.0432 -0.8234
17352TIP3   OH273470   3.436   1.334  12.454 -0.5679 -0.1231 -0.3402
17352TIP3    H173471   3.464   1.374  12.371 -3.6750  0.3522 -1.3112
17352TIP3    H273472   3.423   1.408  12.513 -0.5299 -0.2481 -0.1759
17353TIP3   OH273473   1.984   2.148  16.085 -0.5823  0.3615  0.2848
17353TIP3    H173474   2.016   2.073  16.036 -1.7062  1.3713 -2.1207
17353TIP3    H273475   2.045   2.156  16.159  0.3684 -2.0289 -0.1635
17354TIP3   OH273476   4.770   4.783   2.361  0.2618  0.2205 -0.4269
17354TIP3    H173477   4.779   4.796   2.455  0.7764 -0.6951 -0.3446
17354TIP3    H273478   4.750   4.871   2.327 -1.2677  0.3271  0.6693
17355TIP3   OH273479   1.328   0.831  12.586  0.2435  0.1596  0.1338
17355TIP3    H173480   1.415   0.871  12.577 -0.1545  0.6431 -2.0088
17355TIP3    H273481   1.339   0.743  12.551 -0.2044  0.3338 -0.4457
17356TIP3   OH273482   2.464   1.164  13.415 -0.0853 -0.5700 -0.4662
17356TIP3    H173483   2.534   1.129  13.361  0.3775 -0.6666  0.1908
17356TIP3    H273484   2.461   1.106  13.491 -0.4841 -0.2183 -0.2107
17357TIP3   OH273485   0.794   4.240  11.265  0.4292  0.3483  0.5897
17357TIP3    H173486   0.852   4.252  11.340  0.4116  1.3772  0.4552
17357TIP3    H273487   0.710   4.216  11.303  0.7393 -0.3947  0.8248
17358TIP3   OH273488   4.695   0.395  14.955 -0.3250  0.0575  0.0057
17358TIP3    H173489   4.647   0.396  15.038  0.4108  0.0225  0.4358
17358TIP3    H273490   4.709   0.302  14.937 -0.8697  0.0438 -0.3965
17359TIP3   OH273491   0.881   0.264  15.061  0.5656 -0.1366  0.2157
17359TIP3    H173492   0.967   0.308  15.067  0.1841  0.5492  0.8109
17359TIP3    H273493   0.877   0.234  14.970  1.4283 -0.1579  0.1699
17360TIP3   OH273494   5.591   2.266   5.397 -0.0344 -0.4868 -0.3526
17360TIP3    H173495   5.628   2.347   5.362 -1.6689 -0.6720 -2.7603
17360TIP3    H273496   5.631   2.257   5.484  0.5442  2.6142 -0.1744
17361TIP3   OH273497   4.284   1.361   2.185  0.5711  0.3076  0.0708
17361TIP3    H173498   4.258   1.376   2.095  1.8532 -0.1792 -0.4114
17361TIP3    H273499   4.374   1.329   2.179 -0.0059 -1.8182  1.3771
17362TIP3   OH273500   6.295   1.147   2.581  0.1098 -0.1742  0.2176
17362TIP3    H173501   6.229   1.203   2.622 -1.2619  0.2159 -2.3583
17362TIP3    H273502   6.305   1.074   2.641 -0.8333  0.9645  1.8433
17363TIP3   OH273503   0.298   5.713  16.194 -0.0166 -0.4948  0.4095
17363TIP3    H173504   0.311   5.625  16.228  1.6414 -0.3572  0.2163
17363TIP3    H273505   0.287   5.767  16.273  3.5994 -0.2075  0.9144
17364TIP3   OH273506   4.648   2.277   5.010  0.7521 -0.3124 -0.4050
17364TIP3    H173507   4.712   2.230   5.062  0.5760 -1.0587 -0.8511
17364TIP3    H273508   4.564   2.257   5.051  0.7827  0.6732  0.1861
17365TIP3   OH273509   4.187   4.058  14.455  0.1722 -0.2336  0.1343
17365TIP3    H173510   4.122   3.988  14.446  0.6958 -0.4658 -2.7451
17365TIP3    H273511   4.136   4.139  14.445 -0.0448 -0.3101  0.6195
17366TIP3   OH273512   6.628   3.787   5.135  0.4093  0.1183  0.3840
17366TIP3    H173513   6.590   3.844   5.202 -0.2279  0.0279  0.1068
17366TIP3    H273514   6.589   3.818   5.053  0.9814  0.0574  0.0855
17367TIP3   OH273515   4.936   1.379   2.555 -0.0897  0.9436  0.3435
17367TIP3    H173516   4.859   1.425   2.590 -0.0511 -0.0328  1.8306
17367TIP3    H273517   4.986   1.447   2.510 -2.4117  1.3679 -1.8231
17368TIP3   OH273518   6.752   1.637  12.377 -0.4474  0.1005 -0.2418
17368TIP3    H173519   6.709   1.696  12.439  0.8084  0.9464 -0.1475
17368TIP3    H273520   6.794   1.695  12.313  0.1788 -0.7046 -0.5835
17369TIP3   OH273521   6.031   1.251   2.622 -0.1113 -0.4315  0.6903
17369TIP3    H173522   5.988   1.238   2.538 -2.0538 -0.8015  1.6932
17369TIP3    H273523   6.019   1.345   2.641  0.9811 -0.1870  0.2330
17370TIP3   OH273524   0.942   5.644   1.306 -0.4139 -0.0086  0.3256
17370TIP3    H173525   0.930   5.557   1.267 -0.3909 -0.2898  0.9396
17370TIP3    H273526   0.868   5.654   1.366 -0.7402  0.6420 -0.1794
17371TIP3   OH273527   1.191   3.617  14.279  0.1637 -0.1033  0.0734
17371TIP3    H173528   1.227   3.618  14.367  0.6467  1.2552 -0.1135
17371TIP3    H273529   1.155   3.705  14.266  0.4264 -0.1575 -1.1964
17372TIP3   OH273530   4.503   4.297   2.653  0.2506 -0.1654 -0.1413
17372TIP3    H173531   4.451   4.303   2.733 -0.6972 -0.1186 -0.7471
17372TIP3    H273532   4.574   4.361   2.665 -0.0158  0.0029  0.5599
17373TIP3   OH273533   3.526   3.325  13.392 -0.5418 -0.1255 -0.2578
17373TIP3    H173534   3.532   3.232  13.414  2.0131 -0.4280 -1.7757
17373TIP3    H273535   3.445   3.332  13.340 -1.4647 -1.2016  0.9656
17374TIP3   OH273536   3.896   0.838   5.096 -0.3107 -0.1372 -0.2031
17374TIP3    H173537   3.929   0.780   5.027 -0.4852 -0.9948  0.4077
17374TIP3    H273538   3.869   0.778   5.166  0.9767  0.7343  1.1027
17375TIP3   OH273539   5.391   3.275   0.133 -0.3836  0.4923 -0.9396
17375TIP3    H173540   5.315   3.327   0.105 -2.1363 -0.0933  2.2393
17375TIP3    H273541   5.412   3.221   0.056 -3.4449  0.4344 -1.9099
17376TIP3   OH273542   4.621   6.252   3.030 -0.1484  0.0233  0.0840
17376TIP3    H173543   4.632   6.315   2.959  0.3081 -0.9341 -0.7360
17376TIP3    H273544   4.662   6.172   2.996 -0.9572 -0.7854  0.9798
17377TIP3   OH273545   6.397   0.907  16.303  0.4314  0.1873 -0.3572
17377TIP3    H173546   6.476   0.918  16.356 -0.0503 -1.3103  0.7521
17377TIP3    H273547   6.373   0.996  16.277  1.5948  0.8084  0.5924
17378TIP3   OH273548   5.645   1.652  11.743 -0.2896 -0.2509  0.2608
17378TIP3    H173549   5.561   1.660  11.698  0.9101  0.7002 -1.9583
17378TIP3    H273550   5.689   1.578  11.700  0.8232  0.5742 -0.0680
17379TIP3   OH273551   5.825   5.872   4.205 -0.4279  0.5366  0.2270
17379TIP3    H173552   5.732   5.885   4.223 -0.3134  0.5604  0.8021
17379TIP3    H273553   5.869   5.937   4.260 -0.1641  2.0837 -1.6893
17380TIP3   OH273554   4.158   4.068   2.016 -0.3890  0.3898  0.8008
17380TIP3    H173555   4.105   4.067   2.095 -1.0383  0.3686  0.3731
17380TIP3    H273556   4.168   4.161   1.995  1.0917  0.4808  1.7526
17381TIP3   OH273557   0.370   3.244   2.206 -0.0602 -0.2185  0.3918
17381TIP3    H173558   0.398   3.267   2.118 -0.3077  0.0085  0.3727
17381TIP3    H273559   0.311   3.170   2.194  1.2747 -1.3529  0.5044
17382TIP3   OH273560   2.295   3.559   0.513 -0.3306 -0.2973 -0.3370
17382TIP3    H173561   2.242   3.547   0.591 -2.4952 -0.5736 -1.7792
17382TIP3    H273562   2.260   3.638   0.471  1.5005  0.4805 -0.5181
17383TIP3   OH273563   0.788   1.787   2.128 -0.4819  0.4097 -0.3984
17383TIP3    H173564   0.834   1.726   2.069 -1.1940 -0.4207 -0.1269
17383TIP3    H273565   0.812   1.758   2.216  0.4266  1.5286 -0.2643
17384TIP3   OH273566   4.786   6.368   1.054  0.9618  0.6126 -0.0431
17384TIP3    H173567   4.741   6.285   1.035 -0.2723  1.0035  0.9782
17384TIP3    H273568   4.879   6.345   1.057  0.6615 -0.6999  0.0192
17385TIP3   OH273569   3.089   6.189  13.879  0.3928  0.2829 -0.2547
17385TIP3    H173570   3.121   6.117  13.933  1.8478  1.0198 -0.0995
17385TIP3    H273571   3.026   6.235  13.935 -1.7025 -1.6870 -0.8659
17386TIP3   OH273572   3.643   1.584   4.447 -0.2808  0.1224  0.4893
17386TIP3    H173573   3.569   1.596   4.506 -0.5451 -2.8527  0.8804
17386TIP3    H273574   3.689   1.668   4.451 -2.8464  1.6169  1.2476
17387TIP3   OH273575   0.674   6.110   4.787  0.4649  0.1578 -0.0752
17387TIP3    H173576   0.634   6.103   4.874 -1.0966 -0.1498 -0.7960
17387TIP3    H273577   0.617   6.060   4.730  0.1649  2.2207 -1.7179
17388TIP3   OH273578   4.301   2.559   2.190  0.1407 -0.0574 -0.0966
17388TIP3    H173579   4.228   2.617   2.170  0.4056 -0.2713 -1.8175
17388TIP3    H273580   4.291   2.485   2.130 -0.1464 -1.8122  1.9861
17389TIP3   OH273581   4.892   0.744  14.880  0.2121 -0.0809 -0.6513
17389TIP3    H173582   4.887   0.673  14.817  0.1554 -0.0232 -0.7130
17389TIP3    H273583   4.886   0.701  14.965 -0.7974 -0.0819 -0.7020
17390TIP3   OH273584   3.515   5.948  14.300  0.2652 -0.0155 -0.8283
17390TIP3    H173585   3.491   5.903  14.218 -0.6502  0.6384 -0.9394
17390TIP3    H273586   3.579   6.014  14.273  0.4100 -0.1930 -0.9212
17391TIP3   OH273587   6.329   3.545   4.300 -0.1603  0.1164 -0.9495
17391TIP3    H173588   6.295   3.550   4.389  1.7910  1.6551 -0.2113
17391TIP3    H273589   6.294   3.463   4.265 -1.4967 -0.2027  0.9830
17392TIP3   OH273590   2.403   4.594   4.265 -0.1226 -0.1263 -0.3906
17392TIP3    H173591   2.456   4.644   4.327 -0.3142 -0.2983 -0.0815
17392TIP3    H273592   2.313   4.613   4.291 -0.2019 -0.3223 -0.5212
17393TIP3   OH273593   5.401   3.719  14.247 -0.1074 -0.1002  0.0017
17393TIP3    H173594   5.443   3.660  14.184  1.8093  0.8202  0.3609
17393TIP3    H273595   5.367   3.791  14.194  0.0160 -0.1489 -0.1437
17394TIP3   OH273596   4.315   2.238   2.425  0.2721 -0.4505 -0.4756
17394TIP3    H173597   4.321   2.288   2.343 -2.3964 -0.7289 -0.9293
17394TIP3    H273598   4.223   2.213   2.431  1.0932 -3.6584  0.7372
17395TIP3   OH273599   5.898   0.581   0.310  0.0964 -0.1198  0.5677
17395TIP3    H173600   5.822   0.636   0.288  0.9128  0.1255 -1.9280
17395TIP3    H273601   5.931   0.617   0.392 -3.4861 -1.3600  2.7961
17396TIP3   OH273602   1.723   6.753  14.165 -0.0692  0.0377 -0.2284
17396TIP3    H173603   1.672   6.829  14.136 -0.1374 -0.3029 -1.0278
17396TIP3    H273604   1.774   6.785  14.239 -0.9394  0.5636  0.1628
17397TIP3   OH273605   4.723   0.384  16.132 -0.4023  0.3411 -0.4019
17397TIP3    H173606   4.634   0.352  16.149 -0.4213  0.9493  0.7748
17397TIP3    H273607   4.711   0.464  16.082 -0.5026  0.2490 -0.5260
17398TIP3   OH273608   3.303   1.194   1.002 -0.7362  0.3307 -0.0302
17398TIP3    H173609   3.331   1.156   0.919 -1.2055  1.4579 -0.7337
17398TIP3    H273610   3.306   1.121   1.064 -0.6900 -0.6102 -1.1007
17399TIP3   OH273611   3.350   3.027   3.667  0.2674 -0.0919  0.7939
17399TIP3    H173612   3.273   3.082   3.655 -0.7531 -1.2903  1.5428
17399TIP3    H273613   3.415   3.085   3.707 -1.3524  0.2186  3.1764
17400TIP3   OH273614   1.366   2.977   5.154  0.4079  0.3533  0.2807
17400TIP3    H173615   1.291   2.962   5.096 -0.1264  0.6068  0.8879
17400TIP3    H273616   1.329   2.969   5.242  0.9754  1.0768  0.5882
17401TIP3   OH273617   3.667   0.421  11.926  0.0849  0.4276 -0.2805
17401TIP3    H173618   3.697   0.434  11.836 -0.7513 -0.5982 -0.7262
17401TIP3    H273619   3.731   0.469  11.980  0.7594  0.8106 -1.3914
17402TIP3   OH273620   5.456   3.853  11.844 -0.4586  0.2547 -0.2560
17402TIP3    H173621   5.379   3.866  11.788 -0.8876 -2.5764 -0.4810
17402TIP3    H273622   5.420   3.853  11.933 -0.7361 -0.8289 -0.3485
17403TIP3   OH273623   5.218   6.104  12.754 -0.1850  0.3806 -0.0541
17403TIP3    H173624   5.261   6.135  12.675 -0.8770 -0.3626 -0.7409
17403TIP3    H273625   5.137   6.064  12.723 -0.2450 -0.3431  0.9838
17404TIP3   OH273626   1.967   3.958   2.149 -0.5296 -0.9530 -0.0154
17404TIP3    H173627   1.948   4.051   2.153 -0.3275 -0.8466 -1.2065
17404TIP3    H273628   1.961   3.928   2.240 -0.1403  0.3065  0.4387
17405TIP3   OH273629   0.822   1.639   4.752 -0.0664 -0.2592  0.1939
17405TIP3    H173630   0.850   1.693   4.827  1.2005 -0.5496 -0.0443
17405TIP3    H273631   0.735   1.672   4.730 -0.6131 -0.4085  2.0135
17406TIP3   OH273632   5.908   3.002  14.739 -0.0048 -0.1285  0.2167
17406TIP3    H173633   5.931   3.088  14.774  1.8027 -0.9016  1.0276
17406TIP3    H273634   5.955   2.997  14.655 -0.1689 -0.2846  0.1332
17407TIP3   OH273635   2.042   3.664   1.401  0.0899 -0.8447  0.2774
17407TIP3    H173636   2.080   3.590   1.448  0.9585 -1.5158 -1.4056
17407TIP3    H273637   1.947   3.652   1.409  0.1476 -3.3582 -1.6711
17408TIP3   OH273638   5.690   5.403   0.831 -0.1939 -0.5364 -0.1838
17408TIP3    H173639   5.755   5.333   0.838 -2.3164 -2.5697  0.7496
17408TIP3    H273640   5.647   5.386   0.747  0.5928  0.9666 -0.9312
17409TIP3   OH273641   5.021   1.367  17.009 -0.0895 -0.9599 -0.3820
17409TIP3    H173642   4.956   1.342  17.075 -0.0711  1.9417  0.8901
17409TIP3    H273643   5.106   1.353  17.052 -0.0800  1.0870  0.3812
17410TIP3   OH273644   6.095   0.140  15.095  0.1475 -0.6784 -0.1663
17410TIP3    H173645   6.068   0.070  15.154  0.7888  0.2156  1.2231
17410TIP3    H273646   6.174   0.107  15.053  0.5232 -0.7509  0.5864
17411TIP3   OH273647   3.639   4.958  13.799  0.2534 -0.2342  0.6660
17411TIP3    H173648   3.572   4.891  13.812 -0.6645  0.1085 -1.7789
17411TIP3    H273649   3.625   4.989  13.710  2.7681  0.9060  0.5844
17412TIP3   OH273650   2.535   3.563  16.051  0.2852 -0.6045 -0.0498
17412TIP3    H173651   2.597   3.491  16.056  0.4164 -0.5384 -0.6249
17412TIP3    H273652   2.450   3.524  16.071  0.5560 -0.6236  1.0916
17413TIP3   OH273653   0.404   5.659  14.798  0.2582 -0.0722 -0.3750
17413TIP3    H173654   0.376   5.573  14.831  0.4576  0.2464  0.6362
17413TIP3    H273655   0.477   5.684  14.855 -0.9791  1.6104  0.5411
17414TIP3   OH273656   4.486   3.163  16.401 -0.0588 -0.3648  0.2548
17414TIP3    H173657   4.443   3.249  16.397 -0.0755 -0.2708  1.8089
17414TIP3    H273658   4.544   3.162  16.325 -1.2508  0.3588 -0.7048
17415TIP3   OH273659   1.144   4.812   5.833 -0.3820 -0.4532  0.3929
17415TIP3    H173660   1.181   4.892   5.870 -0.8524 -0.0667  0.0353
17415TIP3    H273661   1.190   4.742   5.879 -1.3798 -0.0030  2.2114
17416TIP3   OH273662   6.390   1.871   1.963  0.5004 -0.4181 -0.5183
17416TIP3    H173663   6.296   1.857   1.979  0.1184  0.5029 -1.7612
17416TIP3    H273664   6.399   1.966   1.960  1.7520 -0.4622  0.9846
17417TIP3   OH273665   5.483   0.012   0.728 -0.3657  0.2364 -0.7139
17417TIP3    H173666   5.446  -0.036   0.653 -1.3743  1.7533 -1.2328
17417TIP3    H273667   5.482   0.103   0.701  1.2658  0.6170  0.3586
17418TIP3   OH273668   1.992   0.927  15.157 -0.5777 -0.0842  1.3797
17418TIP3    H173669   1.971   0.837  15.132 -0.5777  0.1222  0.6057
17418TIP3    H273670   1.924   0.980  15.115 -1.9592  0.1223  3.6940
17419TIP3   OH273671   1.777   3.235  14.673  0.1797  0.4856 -0.0278
17419TIP3    H173672   1.817   3.305  14.724  1.8740  0.3650 -1.0850
17419TIP3    H273673   1.684   3.242  14.691  0.5720  1.3534  1.8982
17420TIP3   OH273674   0.285   5.862   3.325  0.0678  0.3587 -0.0292
17420TIP3    H173675   0.213   5.920   3.347 -2.6535 -2.6925 -0.2080
17420TIP3    H273676   0.309   5.820   3.407 -0.0512 -0.4323 -0.3921
17421TIP3   OH273677   3.919   1.945  11.308 -0.3464 -0.3566  0.0697
17421TIP3    H173678   3.903   1.860  11.350 -0.1825 -0.1050  0.6486
17421TIP3    H273679   3.854   2.003  11.348 -1.9010 -0.6629 -1.8480
17422TIP3   OH273680   0.203   0.281  16.798 -0.0089 -0.1410  0.7838
17422TIP3    H173681   0.162   0.344  16.739  0.5414  0.5958  1.1678
17422TIP3    H273682   0.206   0.326  16.883 -1.3795 -1.4146  1.5582
17423TIP3   OH273683   6.694   4.167   4.194 -0.2824 -0.0092 -0.4222
17423TIP3    H173684   6.675   4.095   4.254  0.9554 -1.9379 -2.1766
17423TIP3    H273685   6.712   4.242   4.251 -0.6745 -1.3216  1.5294
17424TIP3   OH273686   5.687   3.329   5.089  0.7620  0.9076 -0.1594
17424TIP3    H173687   5.739   3.363   5.161  2.3124  1.5088 -1.4848
17424TIP3    H273688   5.738   3.256   5.054 -0.2129  0.2808 -0.3394
17425TIP3   OH273689   3.074   4.163  13.269  0.0437  0.3791 -0.1631
17425TIP3    H173690   3.168   4.177  13.264  0.1495 -0.2794 -0.1552
17425TIP3    H273691   3.045   4.217  13.343  0.6125 -0.3738  0.6188
17426TIP3   OH273692   4.526   1.385  14.063  0.4486  0.1064  0.6374
17426TIP3    H173693   4.621   1.398  14.061  0.6466 -1.2050 -0.3606
17426TIP3    H273694   4.515   1.290  14.055 -0.9371  0.1073  2.0637
17427TIP3   OH273695   1.783   4.009  13.980 -0.2272  0.4237 -0.0047
17427TIP3    H173696   1.753   4.097  13.957 -0.1265  0.3730 -0.3470
17427TIP3    H273697   1.853   4.022  14.043 -0.5303  0.5693  0.3080
17428TIP3   OH273698   5.003   0.668  11.893  0.6819 -0.0066 -0.3454
17428TIP3    H173699   4.966   0.583  11.870  2.3871 -0.8124 -0.3084
17428TIP3    H273700   5.080   0.677  11.836  1.0515  1.0863  0.2897
17429TIP3   OH273701   4.502   0.110  12.300  0.3451 -0.1917 -0.0455
17429TIP3    H173702   4.563   0.037  12.305 -0.2052 -0.7805 -1.2987
17429TIP3    H273703   4.557   0.186  12.282  0.7960 -0.5420 -0.1630
17430TIP3   OH273704   2.518   1.834   2.452  0.2135  0.0536  0.0549
17430TIP3    H173705   2.452   1.768   2.474 -0.1532 -0.3642 -2.1203
17430TIP3    H273706   2.468   1.905   2.412  0.9980 -0.0110 -1.0755
17431TIP3   OH273707   3.078   5.146   4.284 -0.4870  0.3523 -0.0069
17431TIP3    H173708   3.064   5.229   4.240 -0.0680 -0.6638 -2.1525
17431TIP3    H273709   3.140   5.166   4.355  1.9534  1.3980 -2.2753
17432TIP3   OH273710   4.705   5.639   4.245 -0.5317 -0.5824 -0.4954
17432TIP3    H173711   4.662   5.556   4.225 -1.0770 -0.6531  0.8916
17432TIP3    H273712   4.746   5.626   4.330 -0.1106  0.3751 -0.5332
17433TIP3   OH273713   0.012   0.096  15.964  0.0854  0.3293 -0.4873
17433TIP3    H173714   0.037   0.021  15.912 -1.1271  0.1270 -0.8171
17433TIP3    H273715  -0.045   0.060  16.032 -1.0283  1.0160 -1.0310
17434TIP3   OH273716   6.383   5.745  13.308  0.4810  0.3381  0.2379
17434TIP3    H173717   6.373   5.801  13.230  0.9227 -1.4103 -1.1513
17434TIP3    H273718   6.315   5.679  13.298 -0.4486  0.9407  2.1899
17435TIP3   OH273719   0.720   2.226  16.656  0.3142 -0.0190  0.3104
17435TIP3    H173720   0.796   2.264  16.612  0.3393  0.5650  0.8360
17435TIP3    H273721   0.749   2.138  16.682  1.4895  0.8435  2.1350
17436TIP3   OH273722   2.599   0.530  14.724 -0.0217  0.0602 -0.0934
17436TIP3    H173723   2.685   0.572  14.724 -0.0676  0.1580  0.2745
17436TIP3    H273724   2.562   0.549  14.637  0.7188 -0.7984 -0.6117
17437TIP3   OH273725   2.047   2.956   0.552 -0.3635  0.2994  0.1001
17437TIP3    H173726   2.116   2.911   0.601 -0.4562  1.2555  1.1579
17437TIP3    H273727   1.966   2.912   0.578 -0.2400 -0.2611 -0.4689
17438TIP3   OH273728   1.229   0.609  11.915  0.7532 -0.0171 -0.1106
17438TIP3    H173729   1.241   0.696  11.954 -0.7047  0.5294 -0.8154
17438TIP3    H273730   1.141   0.584  11.941  1.1213 -1.2536 -0.0192
17439TIP3   OH273731   3.856   3.167  14.590  0.0415  0.2054  0.2676
17439TIP3    H173732   3.879   3.154  14.682 -0.6141  1.3492  0.6114
17439TIP3    H273733   3.908   3.244  14.563  0.5479 -0.3744 -0.4465
17440TIP3   OH273734   6.212   4.966  11.443 -0.4245  0.3176 -0.0633
17440TIP3    H173735   6.208   4.879  11.402  0.2929  0.7211 -1.0078
17440TIP3    H273736   6.122   4.982  11.471 -0.9108 -0.0742 -1.3049
17441TIP3   OH273737   1.385   2.876   1.051 -0.2832 -0.8270  0.5189
17441TIP3    H173738   1.362   2.967   1.034  0.7635 -0.5117  0.7648
17441TIP3    H273739   1.344   2.857   1.136 -2.5299 -1.3466 -0.5870
17442TIP3   OH273740   0.143   1.699   2.118 -0.7317 -0.3086 -0.2757
17442TIP3    H173741   0.124   1.658   2.202 -0.1104  0.6358  0.3458
17442TIP3    H273742   0.133   1.793   2.134  1.5218  0.0641 -0.6454
17443TIP3   OH273743   5.883   5.699  16.950 -0.2704  0.2946  0.4058
17443TIP3    H173744   5.805   5.670  16.997  1.3706 -1.6766  2.0884
17443TIP3    H273745   5.925   5.618  16.920  1.4310  1.2664  0.0397
17444TIP3   OH273746   2.052   1.424  15.687 -0.5724  0.6958  0.2343
17444TIP3    H173747   1.965   1.402  15.653 -0.5734  0.7264  0.2166
17444TIP3    H273748   2.049   1.398  15.779 -0.7337  1.0508  0.3327
17445TIP3   OH273749   0.300   1.300   4.823  0.1831 -0.0362 -0.2759
17445TIP3    H173750   0.346   1.281   4.905  2.0352  0.4231 -1.1710
17445TIP3    H273751   0.310   1.394   4.810  0.1196 -0.1417 -1.1555
17446TIP3   OH273752   4.791   3.703  12.753  0.5461 -0.0155 -0.4700
17446TIP3    H173753   4.799   3.794  12.781  0.6617  0.2240 -1.2399
17446TIP3    H273754   4.868   3.659  12.790  0.9217  0.3866 -0.7613
17447TIP3   OH273755   4.880   3.786  14.248  0.6378  0.7155  0.0436
17447TIP3    H173756   4.861   3.760  14.338  0.5174  0.6247 -0.0068
17447TIP3    H273757   4.972   3.764  14.235  0.5738  0.4533  0.0473
17448TIP3   OH273758   5.287   0.838   3.520  0.6598 -0.2542 -0.0875
17448TIP3    H173759   5.292   0.933   3.516 -0.5395 -0.1590  0.1256
17448TIP3    H273760   5.320   0.808   3.435  1.6079  0.3082  0.0730
17449TIP3   OH273761   5.317   0.062   4.926  0.6996 -0.5355 -0.0923
17449TIP3    H173762   5.278   0.048   4.840 -0.4388  3.4141 -0.4496
17449TIP3    H273763   5.398   0.109   4.908 -0.6867  2.4755  0.8775
17450TIP3   OH273764   6.620   4.896   3.362  0.0106  0.3537 -0.3698
17450TIP3    H173765   6.616   4.956   3.288  1.1213 -2.0147 -2.4980
17450TIP3    H273766   6.589   4.812   3.328  1.5181 -1.0962  1.5298
17451TIP3   OH273767   1.467   5.740   2.025  0.0755 -0.9973 -0.2729
17451TIP3    H173768   1.429   5.656   2.051  0.5714 -1.0350  0.3842
17451TIP3    H273769   1.506   5.774   2.106  2.2988 -1.4318 -1.0772
17452TIP3   OH273770   0.225   3.973  11.141  0.3619  0.0529  0.1197
17452TIP3    H173771   0.317   4.000  11.137  0.6387 -0.9010 -0.4378
17452TIP3    H273772   0.176   4.051  11.115  1.0308  0.5068  0.1958
17453TIP3   OH273773   4.772   6.618   1.124 -0.2140  0.2103  0.2826
17453TIP3    H173774   4.769   6.524   1.106 -1.1464  0.0464  1.2183
17453TIP3    H273775   4.689   6.652   1.091  0.2728  0.7870 -0.3926
17454TIP3   OH273776   1.720   1.271   0.022 -0.3564 -0.4133  0.1874
17454TIP3    H173777   1.758   1.250   0.108 -1.9497  1.8042  1.5396
17454TIP3    H273778   1.782   1.331  -0.018 -0.4048 -0.1191  0.5466
17455TIP3   OH273779   6.251   2.170   3.553 -0.1064 -0.2055  0.1301
17455TIP3    H173780   6.180   2.201   3.497 -0.2085 -2.2487 -0.9658
17455TIP3    H273781   6.323   2.150   3.494  0.8636  0.3665  1.0703
17456TIP3   OH273782   1.727   3.236  12.423 -0.3951  0.2820  0.0135
17456TIP3    H173783   1.771   3.236  12.337 -1.7570  0.8796 -0.7116
17456TIP3    H273784   1.753   3.320  12.463  0.5254 -0.1533  0.3567
17457TIP3   OH273785   4.815   3.750   3.933  0.3071  0.2323  0.3674
17457TIP3    H173786   4.811   3.676   3.873 -0.3147  1.6783 -1.4558
17457TIP3    H273787   4.904   3.747   3.969 -0.3672 -2.6288  2.0677
17458TIP3   OH273788   5.998   5.823  11.473 -0.3683  0.3482  0.3858
17458TIP3    H173789   5.912   5.784  11.483 -0.2072 -0.9276 -2.2831
17458TIP3    H273790   6.060   5.753  11.496  0.0175  1.1023  1.8073
17459TIP3   OH273791   2.959   2.232  11.357 -0.8003 -0.2172 -0.7605
17459TIP3    H173792   2.863   2.238  11.364 -0.7871  1.1707 -1.5190
17459TIP3    H273793   2.987   2.201  11.443 -1.9665 -1.1541 -0.6915
17460TIP3   OH273794   1.054   0.801  12.278  0.4413  0.4508  0.1701
17460TIP3    H173795   1.014   0.714  12.274 -0.7476  0.9183  1.1259
17460TIP3    H273796   1.136   0.793  12.229 -0.3986 -0.7904 -1.0902
17461TIP3   OH273797   5.693   6.622   2.613 -0.4858  0.2778  0.2874
17461TIP3    H173798   5.778   6.653   2.643 -0.4160 -0.1064  0.4949
17461TIP3    H273799   5.704   6.528   2.602  0.1641  0.6137 -3.0782
17462TIP3   OH273800   1.931   0.703   6.384  0.4484  0.9800 -0.2005
17462TIP3    H173801   2.001   0.646   6.417 -2.5746 -1.1459  3.1527
17462TIP3    H273802   1.952   0.790   6.418  1.3562  0.3418  0.9127
17463TIP3   OH273803   4.713   4.713   1.368  0.4119  0.0884 -0.1400
17463TIP3    H173804   4.726   4.802   1.334 -1.1582 -0.3737 -2.1736
17463TIP3    H273805   4.779   4.660   1.323 -0.8718 -0.3093 -1.6602
17464TIP3   OH273806   3.173   0.920   3.941 -0.2999 -0.3431 -0.4443
17464TIP3    H173807   3.226   0.999   3.939  1.0922 -1.2352 -1.7883
17464TIP3    H273808   3.084   0.950   3.959  0.2693  1.4565 -0.4834
17465TIP3   OH273809   3.280   6.459  16.828 -0.0401 -0.1282 -0.0709
17465TIP3    H173810   3.302   6.545  16.862  0.7571 -0.6095  0.6936
17465TIP3    H273811   3.365   6.420  16.806 -0.4411 -0.4083 -1.2079
17466TIP3   OH273812   0.955   2.852   3.390 -0.0161 -0.0964 -0.2969
17466TIP3    H173813   0.978   2.807   3.472  1.1720  0.6544 -0.1948
17466TIP3    H273814   1.035   2.849   3.338 -0.0370  1.4894 -0.4664
17467TIP3   OH273815   3.613   2.782  11.929 -0.2393  0.0425 -0.4084
17467TIP3    H173816   3.646   2.736  12.006 -1.4533  0.4919  0.4108
17467TIP3    H273817   3.659   2.743  11.856 -0.7323 -2.0273  0.3227
17468TIP3   OH273818   1.415   0.399  11.556 -0.0903 -0.1629 -0.1002
17468TIP3    H173819   1.324   0.395  11.585 -0.5964  2.5255 -0.9853
17468TIP3    H273820   1.464   0.427  11.634 -0.2244 -0.3799  0.0605
17469TIP3   OH273821   2.353   2.390  16.592  0.3003 -0.5078  0.1292
17469TIP3    H173822   2.298   2.312  16.592  0.9296 -0.9653  0.2262
17469TIP3    H273823   2.296   2.460  16.562  0.1558 -1.3089 -1.5562
17470TIP3   OH273824   2.779   4.487   1.513 -0.3703 -0.0006 -0.4758
17470TIP3    H173825   2.839   4.453   1.579 -0.6866  0.2368 -0.0603
17470TIP3    H273826   2.746   4.408   1.469  2.0519 -0.0452 -2.3596
17471TIP3   OH273827   6.047   4.341   5.442  0.1075 -0.2076  0.2159
17471TIP3    H173828   6.113   4.335   5.512 -0.8374  1.4456  1.3382
17471TIP3    H273829   5.970   4.297   5.478  0.1142 -0.8073 -0.4829
17472TIP3   OH273830   3.956   3.897   1.954 -0.8326 -0.3669 -0.1843
17472TIP3    H173831   4.031   3.944   1.992 -0.5056 -1.0748  0.0742
17472TIP3    H273832   3.918   3.959   1.892 -1.0788  0.6414  0.9350
17473TIP3   OH273833   6.184   3.777  14.178  0.1477 -0.2676  0.9998
17473TIP3    H173834   6.158   3.849  14.235 -1.8178  0.7028 -0.9597
17473TIP3    H273835   6.143   3.797  14.094  1.7035 -2.3572 -0.3730
17474TIP3   OH273836   1.478   1.381  15.608  0.0156 -0.0945  0.7186
17474TIP3    H173837   1.448   1.383  15.517 -2.6765 -1.6570  1.4583
17474TIP3    H273838   1.507   1.292  15.622 -1.0654 -0.3010  1.7744
17475TIP3   OH273839   5.903   0.675  10.792 -0.7403 -0.2887 -0.0254
17475TIP3    H173840   5.828   0.669  10.733 -0.4809 -2.3155 -0.2365
17475TIP3    H273841   5.946   0.590  10.784  0.6880  0.2660  1.2789
17476TIP3   OH273842   2.494   1.741   0.478 -0.6046  0.3053  0.1530
17476TIP3    H173843   2.566   1.779   0.528 -1.5319  0.3404  1.4976
17476TIP3    H273844   2.420   1.799   0.494 -1.4203 -0.7583  0.3110
17477TIP3   OH273845   3.649   2.106  10.454  0.5718 -0.1667 -0.3710
17477TIP3    H173846   3.710   2.174  10.482  1.4700 -0.9138 -0.4711
17477TIP3    H273847   3.696   2.023  10.470 -1.1317 -0.8705  1.3918
17478TIP3   OH273848   3.164   1.644   5.846  0.0499 -0.3535 -0.1225
17478TIP3    H173849   3.208   1.718   5.889  1.2720 -1.4553  0.5982
17478TIP3    H273850   3.075   1.675   5.831  0.8810  1.7623 -1.1162
17479TIP3   OH273851   0.935   4.535   5.379  0.2330  0.5159  0.7132
17479TIP3    H173852   1.025   4.517   5.406  0.2276  0.4697  0.7008
17479TIP3    H273853   0.896   4.448   5.366  0.5646  0.5303 -0.5427
17480TIP3   OH273854   3.101   0.646  15.233 -0.1814  0.1708  0.1520
17480TIP3    H173855   3.117   0.733  15.269 -3.8221  0.8447  0.5328
17480TIP3    H273856   3.040   0.661  15.161 -0.9918 -2.0474  0.2880
17481TIP3   OH273857   1.296   4.318   5.220 -0.0888  0.1072  0.0278
17481TIP3    H173858   1.251   4.254   5.275  0.5458  0.4361  0.9555
17481TIP3    H273859   1.361   4.359   5.278 -1.0206  2.1889 -0.2779
17482TIP3   OH273860   5.447   1.905  15.396 -0.4425 -0.1432  0.3874
17482TIP3    H173861   5.502   1.982  15.411  0.2178 -0.8011  1.5487
17482TIP3    H273862   5.401   1.923  15.315 -0.0547  1.3310  0.4743
17483TIP3   OH273863   3.983   3.406  14.551  0.1734 -0.4868 -0.0329
17483TIP3    H173864   3.982   3.485  14.498  0.7144 -1.3788 -1.4207
17483TIP3    H273865   4.035   3.429  14.628 -1.8876  1.2999  0.9503
17484TIP3   OH273866   6.362   4.533  11.999 -0.2477 -0.3540 -0.2426
17484TIP3    H173867   6.347   4.495  12.085 -2.0357  1.0996  0.1369
17484TIP3    H273868   6.282   4.580  11.979  0.8547  0.9382 -1.8837
17485TIP3   OH273869   4.403   0.838   0.785 -0.2744 -0.2318  0.0061
17485TIP3    H173870   4.482   0.853   0.733 -0.5549  0.4536 -0.2410
17485TIP3    H273871   4.350   0.917   0.771 -0.5202 -0.1917  1.0421
17486TIP3   OH273872   1.464   1.059  16.470 -0.1832  0.0474  0.1574
17486TIP3    H173873   1.505   1.025  16.391 -0.9041 -0.2816 -0.0854
17486TIP3    H273874   1.532   1.051  16.538 -0.3200 -1.9227  0.1255
17487TIP3   OH273875   6.534   4.625   6.123 -0.1011 -0.4434 -0.2034
17487TIP3    H173876   6.550   4.547   6.175 -0.8989 -0.0248  0.7011
17487TIP3    H273877   6.442   4.618   6.097 -0.7364  1.0609  1.4514
17488TIP3   OH273878   5.560   4.375  15.069  0.0110 -0.2211 -0.0703
17488TIP3    H173879   5.479   4.371  15.019 -0.8143  0.0373  1.1839
17488TIP3    H273880   5.608   4.449  15.033 -1.0541  0.6313  0.2214
17489TIP3   OH273881   2.945   0.671  16.642 -0.4937  0.0768  0.1421
17489TIP3    H173882   2.981   0.748  16.685  0.6467 -0.2987 -0.1062
17489TIP3    H273883   2.915   0.702  16.557  0.9651  0.0403 -0.3942
17490TIP3   OH273884   5.341   6.251  11.036 -0.5250  0.3068 -0.2741
17490TIP3    H173885   5.400   6.196  11.088 -0.8256 -0.4435 -0.7145
17490TIP3    H273886   5.398   6.297  10.975 -0.4733 -1.1542 -1.3602
17491TIP3   OH273887   6.803   4.318   0.663  0.6595 -0.3039 -0.0365
17491TIP3    H173888   6.844   4.273   0.589  0.7739 -0.4075  0.0900
17491TIP3    H273889   6.864   4.304   0.735  0.1697 -0.8572  0.2725
17492TIP3   OH273890   3.547   4.054   5.354 -0.3070  0.6759 -0.3896
17492TIP3    H173891   3.474   3.994   5.338 -0.9626  1.1950  0.5039
17492TIP3    H273892   3.592   4.061   5.270 -1.1434  0.1575 -0.8964
17493TIP3   OH273893   5.976   2.313  16.073  0.4952 -0.4675 -0.0209
17493TIP3    H173894   6.028   2.252  16.124  0.6040 -1.5452 -1.3710
17493TIP3    H273895   5.900   2.332  16.128  1.2101 -0.6296  1.0363
17494TIP3   OH273896   1.522   4.446  12.767  0.3936  0.5292  0.1075
17494TIP3    H173897   1.455   4.504  12.802  1.2847  1.6662 -0.0046
17494TIP3    H273898   1.479   4.361  12.758 -0.7733  1.0262  0.8317
17495TIP3   OH273899   5.279   2.697  13.294  0.6765  0.1780 -0.1840
17495TIP3    H173900   5.239   2.768  13.243 -0.8455 -0.5882 -0.1208
17495TIP3    H273901   5.259   2.617  13.245  3.0855 -0.1772 -0.6891
17496TIP3   OH273902   5.812   3.305  11.258 -0.5712 -0.6382  0.0379
17496TIP3    H173903   5.882   3.328  11.319 -0.4485 -2.4548  0.6396
17496TIP3    H273904   5.853   3.247  11.194 -1.4933 -1.7526  0.4095
17497TIP3   OH273905   1.394   6.732   1.499 -0.4623 -0.3000 -0.4477
17497TIP3    H173906   1.424   6.792   1.568  0.7279 -0.6837 -0.6022
17497TIP3    H273907   1.350   6.789   1.436 -2.8460 -0.1018  1.2467
17498TIP3   OH273908   2.950   1.382   0.010 -0.5678  0.3373  0.0778
17498TIP3    H173909   2.976   1.464   0.051  2.8499 -0.0350 -1.0014
17498TIP3    H273910   3.003   1.316   0.054 -1.0916 -0.8773 -1.0473
17499TIP3   OH273911   2.817   3.317  10.285  0.3189 -0.1335 -0.7522
17499TIP3    H173912   2.741   3.273  10.247 -0.0144  0.5130 -0.8522
17499TIP3    H273913   2.783   3.363  10.361  0.8182 -0.6911 -0.1817
17500TIP3   OH273914   0.329   2.371  15.663  0.9045  0.8536  0.9977
17500TIP3    H173915   0.364   2.282  15.667 -0.4900  0.2704  0.9504
17500TIP3    H273916   0.281   2.374  15.581 -0.7149  0.9691  1.8935
17501TIP3   OH273917   6.329   4.039   6.653  0.3126 -0.4796  0.2253
17501TIP3    H173918   6.364   3.968   6.599 -0.2279 -1.1824  0.7621
17501TIP3    H273919   6.328   4.115   6.595  0.3800 -1.0478 -0.5495
17502TIP3   OH273920   4.941   2.146   6.356 -0.3736 -0.1084  0.0404
17502TIP3    H173921   4.942   2.179   6.266 -0.9352 -0.0309  0.0574
17502TIP3    H273922   4.886   2.208   6.403  0.0153 -0.0841  0.4682
17503TIP3   OH273923   4.168   0.097  11.424  0.0820  0.0051  0.2320
17503TIP3    H173924   4.223   0.060  11.493  0.1298 -0.7145 -0.1815
17503TIP3    H273925   4.078   0.090  11.458  0.1571  0.2555  0.4868
17504TIP3   OH273926   6.072   3.059  13.189  0.0620 -0.2824 -0.3512
17504TIP3    H173927   6.043   3.010  13.112 -1.6571 -2.2715  1.4317
17504TIP3    H273928   6.142   3.005  13.227 -0.2722 -0.1963  0.3988
17505TIP3   OH273929   3.629   3.742   3.748  0.1736 -0.5536  0.0827
17505TIP3    H173930   3.615   3.836   3.759  0.0674 -0.3665 -1.4328
17505TIP3    H273931   3.721   3.729   3.769  0.3122 -0.0209 -0.1835
17506TIP3   OH273932   0.797   3.266  15.489 -0.2853  0.2868  0.0891
17506TIP3    H173933   0.793   3.328  15.416  0.6236 -0.1882 -0.3775
17506TIP3    H273934   0.710   3.226  15.492 -0.5705  0.8650 -0.2305
17507TIP3   OH273935   3.050   5.789  10.860  0.2511 -0.1943 -0.2907
17507TIP3    H173936   2.966   5.798  10.816  0.8409  0.0846 -1.4114
17507TIP3    H273937   3.092   5.875  10.850 -0.6064  0.7562  3.1091
17508TIP3   OH273938   5.600   5.217   3.831 -0.8614  0.3390 -0.0952
17508TIP3    H173939   5.638   5.271   3.901 -2.8686  0.0989  1.2627
17508TIP3    H273940   5.638   5.253   3.750  0.3045  1.6746  0.9859
17509TIP3   OH273941   0.613   5.866  14.466  0.0366 -0.3367  0.2284
17509TIP3    H173942   0.553   5.934  14.436  1.5152  1.1292  0.4586
17509TIP3    H273943   0.670   5.850  14.391  1.1728  0.4145  0.8958
17510TIP3   OH273944   3.161   1.845   6.294 -0.1660  0.0029 -0.3290
17510TIP3    H173945   3.197   1.887   6.373  1.4776 -2.1751  0.1864
17510TIP3    H273946   3.238   1.824   6.241 -1.1757  0.4597 -2.0538
17511TIP3   OH273947   3.783   0.970   1.380  0.9326  0.3363 -0.1458
17511TIP3    H173948   3.844   1.037   1.409 -0.1799  1.2981  0.0763
17511TIP3    H273949   3.802   0.895   1.436  1.0848  1.0356  0.7870
17512TIP3   OH273950   2.115   5.006  16.967  0.3634  0.1532 -0.0461
17512TIP3    H173951   2.179   4.947  16.927 -2.0879 -2.8086  0.0121
17512TIP3    H273952   2.031   4.982  16.927 -1.1293  1.9727  1.7588
17513TIP3   OH273953   3.564   5.897   6.171 -0.6604 -0.2308  0.1632
17513TIP3    H173954   3.584   5.973   6.226 -0.3651  0.1797 -0.4989
17513TIP3    H273955   3.617   5.827   6.208  0.0596  0.2121 -0.0065
17514TIP3   OH273956   0.211   0.992  13.291 -0.4153  0.2841 -0.5191
17514TIP3    H173957   0.208   1.067  13.232 -0.6640  0.2426 -0.5586
17514TIP3    H273958   0.304   0.979  13.309 -0.3989  0.9031 -0.1255
17515TIP3   OH273959   0.706   5.600   2.075 -0.4079  0.0106  1.0592
17515TIP3    H173960   0.691   5.598   2.169 -2.4967  0.9464  0.7986
17515TIP3    H273961   0.623   5.632   2.038  0.3398 -0.3889 -1.0958
17516TIP3   OH273962   2.246   2.966  11.466 -0.1051 -0.1629 -0.0840
17516TIP3    H173963   2.321   2.968  11.526 -1.5711  2.2336  1.8787
17516TIP3    H273964   2.283   2.984  11.380  1.3886  4.8720  1.2947
17517TIP3   OH273965   1.390   6.519  11.938 -0.3851  0.0072  0.2251
17517TIP3    H173966   1.435   6.560  12.012 -0.1874  0.0850  0.0630
17517TIP3    H273967   1.413   6.574  11.863 -1.7156  0.7503  0.3365
17518TIP3   OH273968   0.887   3.796   5.249 -0.4963 -0.4432  0.2180
17518TIP3    H173969   0.908   3.889   5.240 -0.7965 -0.3811  0.1450
17518TIP3    H273970   0.900   3.760   5.161  2.0905 -0.9984  0.7521
17519TIP3   OH273971   2.655   4.693  12.369 -0.3860  0.4851 -0.1628
17519TIP3    H173972   2.673   4.788  12.371  0.2870  0.3923 -1.0951
17519TIP3    H273973   2.571   4.684  12.413 -1.1903  1.7062 -1.3359
17520TIP3   OH273974   5.065   4.546  11.485  0.8427 -0.1250  0.3251
17520TIP3    H173975   5.150   4.554  11.441  0.1782 -0.6028 -1.0884
17520TIP3    H273976   5.085   4.565  11.577  2.5395 -0.5641  0.0957
17521TIP3   OH273977   5.774   4.277   3.065  0.3187  0.0569  0.6204
17521TIP3    H173978   5.807   4.226   2.991  0.7565  0.7073  0.3654
17521TIP3    H273979   5.773   4.367   3.033 -1.9852  0.0525  0.5016
17522TIP3   OH273980   0.508   4.677   2.482 -0.2069  0.0070  0.6283
17522TIP3    H173981   0.490   4.632   2.399 -1.7756  0.5390  0.6443
17522TIP3    H273982   0.585   4.632   2.517  0.0617 -0.6961 -0.7684
17523TIP3   OH273983   1.922   3.080  11.728  0.4315  0.0615 -0.2398
17523TIP3    H173984   1.915   3.175  11.741 -0.5448 -0.0913  0.5508
17523TIP3    H273985   1.860   3.043  11.792  0.2273 -1.0764 -1.0639
17524TIP3   OH273986   4.620   4.875  15.847  0.3782 -0.4291  0.2868
17524TIP3    H173987   4.569   4.942  15.801 -0.9515 -1.4400  0.2304
17524TIP3    H273988   4.703   4.918  15.867 -0.2565  1.0790 -0.1652
17525TIP3   OH273989   2.999   1.141   5.039  0.0719  0.3701 -0.5519
17525TIP3    H173990   2.993   1.181   4.952  1.0003  0.2039 -0.7009
17525TIP3    H273991   2.924   1.081   5.042  0.1341  0.2378 -1.3121
17526TIP3   OH273992   6.231   2.516  16.190 -0.3992 -0.1515  0.0527
17526TIP3    H173993   6.152   2.508  16.243 -0.3994 -0.6697 -0.0227
17526TIP3    H273994   6.244   2.611  16.180 -2.5231 -0.0175 -2.2085
17527TIP3   OH273995   0.369   2.835  13.509  0.0741 -0.2626 -0.3192
17527TIP3    H173996   0.418   2.809  13.431 -0.9165  1.0225 -1.4212
17527TIP3    H273997   0.375   2.931  13.510  0.4091 -0.2576  1.4394
17528TIP3   OH273998   6.482   4.505  12.985 -0.1533  0.0399  0.2222
17528TIP3    H173999   6.502   4.580  12.929  0.5530  0.6306  1.2403
17528TIP3    H274000   6.387   4.508  12.996 -0.2926 -0.0250 -0.8363
17529TIP3   OH274001   2.593   6.803  14.736 -0.1157  0.4336  0.4622
17529TIP3    H174002   2.645   6.739  14.784  0.2460  0.9790  0.7988
17529TIP3    H274003   2.504   6.790  14.768 -0.5400 -1.6722 -1.3366
17530TIP3   OH274004   2.596   2.941   3.871  0.0767  0.3705 -0.2465
17530TIP3    H174005   2.549   2.866   3.906 -0.0002  0.3838 -0.3205
17530TIP3    H274006   2.586   3.009   3.937  0.7602  0.0926  0.1559
17531TIP3   OH274007   3.123   6.771  12.557 -0.6239 -0.7277 -0.0528
17531TIP3    H174008   3.107   6.682  12.588  0.8785 -0.9557  0.1438
17531TIP3    H274009   3.058   6.784  12.488 -2.8729 -0.8664  1.8972
17532TIP3   OH274010   2.047   3.700  12.543  0.4617  0.1235 -0.0307
17532TIP3    H174011   1.970   3.657  12.505  0.9667 -0.6644 -0.1685
17532TIP3    H274012   2.060   3.657  12.627  1.0675 -0.1020 -0.2396
17533TIP3   OH274013   2.231   4.942  16.605 -0.5875 -0.3057 -0.4601
17533TIP3    H174014   2.163   5.010  16.602  0.2116  0.5182 -3.4835
17533TIP3    H274015   2.311   4.987  16.577  0.3364 -2.1231 -0.8666
17534TIP3   OH274016   1.264   2.207  16.954 -0.3131 -0.3610  0.0576
17534TIP3    H174017   1.301   2.294  16.939 -4.1981  1.4810  0.0979
17534TIP3    H274018   1.291   2.156  16.878  0.6380  1.3475 -0.8129
17535TIP3   OH274019   1.888   4.476   1.424  0.0100 -0.0210 -0.7576
17535TIP3    H174020   1.964   4.451   1.475 -0.1716 -1.5522 -1.2050
17535TIP3    H274021   1.897   4.571   1.414  0.5356  0.1813  1.2710
17536TIP3   OH274022   1.739   4.666  11.293  0.3369  0.0873 -0.0608
17536TIP3    H174023   1.721   4.630  11.381  0.8692 -0.3493 -0.1266
17536TIP3    H274024   1.735   4.761  11.305  0.9797  0.0420  0.5636
17537TIP3   OH274025   0.528   2.744  12.971 -1.1774  0.0109 -0.0473
17537TIP3    H174026   0.595   2.760  12.905  0.2049 -1.5701  0.8842
17537TIP3    H274027   0.447   2.778  12.933 -0.1087  0.7197 -1.7861
17538TIP3   OH274028   1.329   2.869  13.680 -0.0725  0.1792  0.5233
17538TIP3    H174029   1.259   2.898  13.622  0.1735  0.2249  0.2419
17538TIP3    H274030   1.401   2.848  13.621  0.5437  1.2258  0.8756
17539TIP3   OH274031   4.630   1.717  14.756 -0.0703 -0.3624 -0.0826
17539TIP3    H174032   4.607   1.802  14.793 -0.1186 -0.8444  1.0292
17539TIP3    H274033   4.715   1.732  14.715  1.4000 -0.4088  2.6722
17540TIP3   OH274034   0.440   5.044  16.838 -0.0273 -0.2465  0.9473
17540TIP3    H174035   0.502   4.976  16.865  2.0754  0.4211 -1.7624
17540TIP3    H274036   0.359   4.996  16.821  0.6147 -1.6452  1.6516
17541TIP3   OH274037   0.067   1.927  14.708  0.1646  0.0665  0.3015
17541TIP3    H174038   0.162   1.921  14.702  0.0831 -0.1795 -0.7824
17541TIP3    H274039   0.037   1.836  14.716 -0.0451  0.0743 -0.3819
17542TIP3   OH274040   5.156   6.323  12.964  0.1761 -0.1471 -0.8583
17542TIP3    H174041   5.151   6.249  13.024 -0.1604  0.9067  0.4612
17542TIP3    H274042   5.199   6.288  12.886 -1.4068 -2.1089 -0.9184
17543TIP3   OH274043   5.780   4.270  13.409 -0.2238 -0.6071 -0.6114
17543TIP3    H174044   5.747   4.327  13.479  0.1890 -1.9769  0.7513
17543TIP3    H274045   5.713   4.202  13.400  0.0200 -0.7836 -1.1335
17544TIP3   OH274046   6.481   3.321   3.273  0.2155  0.3421  0.6883
17544TIP3    H174047   6.490   3.249   3.336  2.5465 -2.1716 -2.1946
17544TIP3    H274048   6.559   3.374   3.285  1.4695 -1.0279 -0.9385
17545TIP3   OH274049   5.153   5.636  15.052  0.4438 -0.3591 -0.1448
17545TIP3    H174050   5.109   5.552  15.038 -0.6182 -0.0931  1.3069
17545TIP3    H274051   5.179   5.634  15.144  0.4175  0.8972 -0.0970
17546TIP3   OH274052   2.384   6.559  12.096 -0.0827 -0.1782  0.6508
17546TIP3    H174053   2.333   6.530  12.020 -0.3532  0.2206  0.6763
17546TIP3    H274054   2.343   6.642  12.121  1.2064  0.6642  0.0611
17547TIP3   OH274055   6.624   3.787  10.875 -0.6297  0.1486 -0.2892
17547TIP3    H174056   6.571   3.726  10.823  1.1299  0.4866 -2.6615
17547TIP3    H274057   6.687   3.731  10.920 -1.6608 -0.0757  0.9395
17548TIP3   OH274058   6.399   2.020   0.298 -0.8356 -0.5075 -0.4201
17548TIP3    H174059   6.423   2.111   0.283  0.7568 -1.0363 -1.2640
17548TIP3    H274060   6.303   2.021   0.301 -0.8767  1.6472  2.6842
17549TIP3   OH274061   4.651   4.347  16.617  0.0729  0.0871  0.1149
17549TIP3    H174062   4.669   4.254  16.633 -1.3603 -0.5191 -1.5160
17549TIP3    H274063   4.591   4.372  16.687 -0.3100 -0.4953  0.0073
17550TIP3   OH274064   1.840   0.726  10.422 -0.6080 -0.6740  0.1725
17550TIP3    H174065   1.900   0.774  10.365 -1.3180  0.0577  0.0057
17550TIP3    H274066   1.876   0.638  10.428  0.9391 -0.0346  0.7798
17551TIP3   OH274067   3.161   6.377   5.249  0.1317  0.1517  0.0833
17551TIP3    H174068   3.209   6.314   5.304 -1.3984 -0.5514  0.6617
17551TIP3    H274069   3.108   6.323   5.191  0.0409  0.9151 -0.5573
17552TIP3   OH274070   5.566   5.145   0.511 -0.4643  0.6293 -0.1163
17552TIP3    H174071   5.513   5.214   0.551 -1.2914 -0.2785  0.3787
17552TIP3    H274072   5.637   5.130   0.574 -1.3622 -0.2934  0.7152
17553TIP3   OH274073   3.531   2.814  10.664  0.6689  0.1459  0.1506
17553TIP3    H174074   3.611   2.857  10.632  0.7663  0.2896  0.5794
17553TIP3    H274075   3.464   2.838  10.600  1.0019 -0.1085 -0.3000
17554TIP3   OH274076   5.047   5.704   4.945 -0.1980  0.3311 -0.0643
17554TIP3    H174077   5.005   5.713   5.031 -1.6381 -0.8827 -0.5984
17554TIP3    H274078   5.050   5.793   4.910  1.4897  1.0418  1.6774
17555TIP3   OH274079   0.871   4.920  11.859  0.0769  0.4368  0.4420
17555TIP3    H174080   0.896   4.827  11.855  1.5885  0.8479 -1.4211
17555TIP3    H274081   0.928   4.962  11.794 -2.5508  2.2056 -0.9028
17556TIP3   OH274082   3.995   6.721  10.991 -0.3409 -0.0385 -0.5322
17556TIP3    H174083   3.998   6.810  11.027 -0.3216  0.2227 -1.1630
17556TIP3    H274084   3.993   6.734  10.896  1.9394 -0.7361 -0.7356
17557TIP3   OH274085   4.186   5.416   1.576 -0.8239  0.1868 -0.4085
17557TIP3    H174086   4.273   5.442   1.605 -0.0271 -2.5540  0.0136
17557TIP3    H274087   4.176   5.458   1.491  1.1460  0.2299 -0.6848
17558TIP3   OH274088   1.411   4.775   3.821 -0.5894  0.0325  0.2866
17558TIP3    H174089   1.475   4.793   3.889 -1.2403  1.1166  0.6467
17558TIP3    H274090   1.458   4.724   3.756  0.2892 -0.2414  1.1181
17559TIP3   OH274091   5.525   1.464  14.577 -0.0207  0.0718 -0.2981
17559TIP3    H174092   5.570   1.544  14.553 -0.3888  0.3801  0.0225
17559TIP3    H274093   5.493   1.429  14.494  0.5060  0.0311 -0.4845
17560TIP3   OH274094   0.673   5.409  11.740 -0.4861  0.2534 -0.0724
17560TIP3    H174095   0.685   5.368  11.825  0.0026 -0.9057 -0.6773
17560TIP3    H274096   0.578   5.406  11.725 -0.4239 -1.2462 -0.3535
17561TIP3   OH274097   1.731   2.036  11.390  0.2056 -0.8047  0.5011
17561TIP3    H174098   1.669   2.104  11.415 -0.2526 -1.3033  0.7665
17561TIP3    H274099   1.811   2.057  11.438  0.1657 -0.2973  0.3526
17562TIP3   OH274100   6.235   3.351   6.028 -0.4743 -0.2496 -0.3230
17562TIP3    H174101   6.166   3.417   6.021 -1.6861 -1.3373  0.7621
17562TIP3    H274102   6.198   3.273   5.986 -1.1253 -1.7040  2.6983
17563TIP3   OH274103   6.559   5.944   2.925  0.6709 -0.1788  0.1607
17563TIP3    H174104   6.508   5.964   2.847  0.6771 -2.1693 -0.4146
17563TIP3    H274105   6.596   6.028   2.952 -2.3940  1.2459  0.2919
17564TIP3   OH274106   5.093   0.681  16.126  0.0887  0.6691  0.1370
17564TIP3    H174107   5.143   0.615  16.175  0.1088 -0.2052 -1.0180
17564TIP3    H274108   5.098   0.652  16.035 -3.3900 -0.0491  0.0466
17565TIP3   OH274109   5.012   2.151  12.889 -0.0538  0.1312 -0.2814
17565TIP3    H174110   4.950   2.085  12.859  1.1843 -1.2953  0.2184
17565TIP3    H274111   5.004   2.150  12.985 -1.3759  2.0913 -0.3030
17566TIP3   OH274112   3.888   1.893  14.693  0.4454 -0.0881  0.3634
17566TIP3    H174113   3.934   1.927  14.770 -0.2806  0.0851  0.7266
17566TIP3    H274114   3.797   1.920  14.706 -0.0002 -1.4786  0.2494
17567TIP3   OH274115   1.200   1.386   5.462 -0.2123 -0.2807 -0.0244
17567TIP3    H174116   1.214   1.433   5.380 -1.3070 -0.7298 -0.4792
17567TIP3    H274117   1.222   1.295   5.442 -2.7632 -0.8571 -0.5332
17568TIP3   OH274118   0.707   2.422  10.552 -0.3837  0.7110  0.6013
17568TIP3    H174119   0.746   2.404  10.638 -1.2498 -1.6101  0.5738
17568TIP3    H274120   0.617   2.391  10.560 -0.5967  0.8375 -1.0258
17569TIP3   OH274121   3.332   6.388   4.307 -0.3532  0.0767  0.0682
17569TIP3    H174122   3.356   6.408   4.398 -0.1631  0.8848 -0.1540
17569TIP3    H274123   3.309   6.473   4.269  2.4022  0.2513 -1.4725
17570TIP3   OH274124   4.616   4.233  14.370  0.5692 -0.5677  0.3230
17570TIP3    H174125   4.582   4.154  14.328 -0.6548 -0.1517  0.4686
17570TIP3    H274126   4.627   4.296  14.299 -1.7956  0.2374  0.5742
17571TIP3   OH274127   3.369   1.027   2.484  0.2000 -0.4810  0.3794
17571TIP3    H174128   3.431   1.097   2.467  2.0880 -2.1315  0.1120
17571TIP3    H274129   3.376   1.011   2.578 -0.0899 -0.4526  0.4082
17572TIP3   OH274130   1.554   5.166  14.025 -0.3779  0.1165  0.4139
17572TIP3    H174131   1.606   5.113  13.964 -0.2205  1.3640 -0.5721
17572TIP3    H274132   1.513   5.232  13.970 -0.9039  0.7671  1.5615
17573TIP3   OH274133   5.701   1.805  14.168 -0.4641  0.0594 -0.4646
17573TIP3    H174134   5.678   1.830  14.079  0.3703 -2.4341 -1.4762
17573TIP3    H274135   5.787   1.764  14.160 -0.5081 -0.5040  1.4298
17574TIP3   OH274136   5.584   2.273   1.138  0.3701 -0.0456  0.2668
17574TIP3    H174137   5.620   2.326   1.067  0.6721 -1.0455 -0.3437
17574TIP3    H274138   5.595   2.327   1.216  0.0583  1.0621 -0.4313
17575TIP3   OH274139   1.811   4.956   4.188  0.0912  0.3014  0.4739
17575TIP3    H174140   1.846   4.995   4.108 -1.3928 -1.0926 -0.9475
17575TIP3    H274141   1.857   4.872   4.195  1.5178  1.1711  2.1452
17576TIP3   OH274142   5.711   2.098  11.857  0.3845 -0.3345  0.2343
17576TIP3    H174143   5.747   2.048  11.929  2.3971 -0.7456 -0.9715
17576TIP3    H274144   5.707   2.037  11.784  1.7503  0.8876 -0.9368
17577TIP3   OH274145   1.198   0.701   3.123 -0.1234  0.4071  0.1592
17577TIP3    H174146   1.271   0.716   3.064 -0.3827 -0.6357 -0.4348
17577TIP3    H274147   1.173   0.610   3.109 -0.4393  0.2443  1.5984
17578TIP3   OH274148   5.544   1.494   0.161 -0.2510 -0.1650 -0.2271
17578TIP3    H174149   5.613   1.475   0.225 -0.5107  0.6685  0.3112
17578TIP3    H274150   5.511   1.407   0.135  0.7710 -0.5587 -0.2529
17579TIP3   OH274151   5.909   0.602   4.211 -0.3824  0.6193  0.4323
17579TIP3    H174152   5.856   0.617   4.133  0.6195 -0.5865 -0.5324
17579TIP3    H274153   5.961   0.681   4.220 -0.5185  0.7815 -0.1291
17580TIP3   OH274154   4.652   3.177  16.638 -0.1511 -0.1379  0.4023
17580TIP3    H174155   4.644   3.160  16.732  1.1796  0.0942  0.5732
17580TIP3    H274156   4.590   3.116  16.598 -2.5321  1.3738  1.5131
17581TIP3   OH274157   5.844   1.718   0.448 -0.0724  0.1318 -0.4932
17581TIP3    H174158   5.806   1.785   0.391 -0.2961  1.9063  1.6136
17581TIP3    H274159   5.936   1.714   0.420 -0.1958  0.9002 -1.0641
17582TIP3   OH274160   3.762   5.101   3.018 -0.1159  0.5841  0.0254
17582TIP3    H174161   3.835   5.139   3.068  0.8958 -0.5712 -0.5233
17582TIP3    H274162   3.753   5.158   2.942  0.9585  0.1278 -0.4657
17583TIP3   OH274163   1.892   2.708   1.851 -0.0125 -0.2920 -0.0504
17583TIP3    H174164   1.910   2.784   1.906 -0.2048 -0.8152  0.7457
17583TIP3    H274165   1.962   2.709   1.785 -0.6558  1.2093 -0.7527
17584TIP3   OH274166   5.897   0.063  13.529  0.0078  0.1437 -0.5775
17584TIP3    H174167   5.915  -0.030  13.537 -0.3651 -0.1078 -2.2448
17584TIP3    H274168   5.952   0.105  13.596 -0.4729 -1.3120  0.7888
17585TIP3   OH274169   5.867   0.841  14.461 -0.1010 -0.2087 -0.0350
17585TIP3    H174170   5.773   0.845  14.475 -0.1452 -0.0156 -0.3633
17585TIP3    H274171   5.905   0.893  14.531 -0.2707  0.1435 -0.2012
17586TIP3   OH274172   1.519   0.026   4.822 -0.0867  0.5371  0.0887
17586TIP3    H174173   1.533  -0.032   4.747 -1.7714  0.4581 -0.1998
17586TIP3    H274174   1.517   0.114   4.784  0.8150  0.6617  0.3030
17587TIP3   OH274175   2.430   5.684   2.968  0.9355 -0.0675 -0.6903
17587TIP3    H174176   2.401   5.593   2.975  3.7169 -1.1590 -1.9293
17587TIP3    H274177   2.371   5.732   3.026 -0.9868 -2.5377 -0.4089
17588TIP3   OH274178   6.734   2.749  16.020 -0.3956  0.0864  0.0559
17588TIP3    H174179   6.672   2.692  16.065  0.6785 -1.2402 -0.0871
17588TIP3    H274180   6.806   2.759  16.081 -0.4235  1.0726 -0.0492
17589TIP3   OH274181   1.235   6.795  15.978  0.1209  0.2305  0.5897
17589TIP3    H174182   1.167   6.731  15.960  1.2657 -0.7592 -0.3597
17589TIP3    H274183   1.296   6.750  16.036  2.4913 -0.6923 -2.3660
17590TIP3   OH274184   1.707   3.876  16.276  0.4641  0.2835  0.5280
17590TIP3    H174185   1.708   3.940  16.347 -0.2493 -0.5143  1.2741
17590TIP3    H274186   1.614   3.859  16.261  0.6470 -1.4607  1.1633
17591TIP3   OH274187   5.431   0.878   0.980  0.3942 -1.0623 -0.4543
17591TIP3    H174188   5.386   0.921   1.053 -1.3739 -0.2782 -1.9294
17591TIP3    H274189   5.514   0.925   0.972 -1.2083  1.8289 -1.6070
17592TIP3   OH274190   6.761   3.206   4.835 -0.4019 -0.0773 -0.1236
17592TIP3    H174191   6.847   3.210   4.793 -0.9546 -0.2367 -1.2901
17592TIP3    H274192   6.775   3.248   4.920  0.7383  0.2467 -0.4469
17593TIP3   OH274193   4.567   1.075  14.895  0.0224  0.0995  0.2121
17593TIP3    H174194   4.535   1.096  14.982 -3.7421  2.9957 -1.5404
17593TIP3    H274195   4.603   1.157  14.861  1.0238 -0.8387 -1.1249
17594TIP3   OH274196   6.293   0.342  14.556  0.0943 -0.0929  0.0666
17594TIP3    H174197   6.321   0.413  14.498  2.0733 -0.6899  0.2188
17594TIP3    H274198   6.282   0.266  14.498 -1.6977  0.2080 -0.0473
17595TIP3   OH274199   5.756   4.511  13.014  0.8429 -0.1413  0.0080
17595TIP3    H174200   5.681   4.456  12.992  0.6570  0.9864 -2.6408
17595TIP3    H274201   5.731   4.555  13.095 -0.3792 -1.4605  0.3889
17596TIP3   OH274202   0.339   1.846   5.583 -0.3028 -0.1679 -0.3535
17596TIP3    H174203   0.314   1.787   5.654  0.1104  0.0347 -0.0375
17596TIP3    H274204   0.258   1.890   5.559 -0.3265  0.2315  0.4310
17597TIP3   OH274205   5.759   3.308  12.322 -0.8553 -0.1523  0.3265
17597TIP3    H174206   5.804   3.323  12.238 -0.9489  0.1461  0.3303
17597TIP3    H274207   5.753   3.395  12.362  0.3820 -0.4635  1.2505
17598TIP3   OH274208   5.690   1.931  11.634  0.6655  0.0259 -0.5046
17598TIP3    H174209   5.663   1.847  11.596 -2.1378  1.0277 -0.9544
17598TIP3    H274210   5.660   1.997  11.571 -0.6735  1.5249  1.5607
17599TIP3   OH274211   2.973   2.686  16.318  0.0254 -0.1475  0.2135
17599TIP3    H174212   2.900   2.728  16.271 -0.1495 -1.2563 -0.5417
17599TIP3    H274213   3.010   2.756  16.371 -0.7255  0.7831 -0.4459
17600TIP3   OH274214   3.433   0.710  11.979  0.1587 -1.0781 -0.2089
17600TIP3    H174215   3.454   0.704  11.886 -2.8949 -0.2342 -1.0844
17600TIP3    H274216   3.454   0.799  12.003  0.2256 -1.0609 -0.3298
17601TIP3   OH274217   0.520   1.397  10.974 -0.1838 -0.2079  0.7358
17601TIP3    H174218   0.541   1.468  10.913 -2.0238  0.3969  0.7289
17601TIP3    H274219   0.447   1.352  10.933 -1.0774 -0.1520  2.2043
17602TIP3   OH274220   3.101   5.769  17.045  0.1294  0.1940  0.2358
17602TIP3    H174221   3.103   5.721  16.962 -0.7185  0.7189 -0.1039
17602TIP3    H274222   3.019   5.741  17.086  0.1804  0.4985  0.5494
17603TIP3   OH274223   6.660   4.224   2.291 -0.3950  0.5563 -0.0627
17603TIP3    H174224   6.660   4.319   2.304 -0.7882  0.5222  0.2100
17603TIP3    H274225   6.742   4.194   2.329 -1.2086  0.5429  1.7766
17604TIP3   OH274226   4.614   1.622  12.626  0.0814  0.0694 -0.2712
17604TIP3    H174227   4.661   1.601  12.707  1.6307 -0.6843 -1.3181
17604TIP3    H274228   4.588   1.713  12.637  1.5908  0.4508  0.4685
17605TIP3   OH274229   6.368   0.676  16.057 -0.0839  0.0358  0.5670
17605TIP3    H174230   6.428   0.741  16.092  0.2947 -0.5840  1.1074
17605TIP3    H274231   6.306   0.725  16.004  0.7574  0.7178  0.1990
17606TIP3   OH274232   3.114   2.738   3.825  0.2031 -0.6197 -0.9514
17606TIP3    H174233   3.068   2.783   3.754  0.4873  3.2947  1.0947
17606TIP3    H274234   3.061   2.660   3.842 -2.4454  0.7096 -2.4587
17607TIP3   OH274235   0.060   0.175   5.067  0.1017  1.1998 -0.9791
17607TIP3    H174236   0.146   0.132   5.060  0.5617  2.2734 -2.1419
17607TIP3    H274237   0.039   0.169   5.161  0.9220 -0.0514 -0.8452
17608TIP3   OH274238   5.623   3.268  12.825 -0.1863  0.5536 -0.1032
17608TIP3    H174239   5.640   3.361  12.813 -0.8659  0.6657 -0.2092
17608TIP3    H274240   5.605   3.258  12.919 -3.2127  1.0650 -0.5386
17609TIP3   OH274241   0.673   4.827   1.555  0.3915  0.2134 -0.5553
17609TIP3    H174242   0.688   4.916   1.586 -2.5769  0.9741 -0.9987
17609TIP3    H274243   0.609   4.790   1.615  0.9998 -1.3876 -0.8267
17610TIP3   OH274244   0.951   3.250  16.324 -0.6837 -0.7845  0.0908
17610TIP3    H174245   0.977   3.166  16.286 -0.0218  0.1324 -1.5928
17610TIP3    H274246   0.867   3.269  16.284  0.6662  0.8656 -2.1854
17611TIP3   OH274247   2.948   2.298   4.545  0.3541  0.0569 -0.1225
17611TIP3    H174248   2.903   2.282   4.462 -0.2922 -0.2518  0.2772
17611TIP3    H274249   2.879   2.329   4.604  0.5391 -0.9923  0.6728
17612TIP3   OH274250   3.725   6.301   3.433  0.5751  0.6931 -0.2130
17612TIP3    H174251   3.661   6.241   3.396  0.8895  0.0043  0.3324
17612TIP3    H274252   3.702   6.386   3.397  0.4595  0.1605 -1.4443
17613TIP3   OH274253   5.356   2.856   6.175  0.3770 -0.1953  0.1553
17613TIP3    H174254   5.401   2.824   6.253  0.3292  1.6227  0.9753
17613TIP3    H274255   5.266   2.822   6.184  0.8167 -1.4596 -0.0402
17614TIP3   OH274256   5.265   0.262  15.345 -0.1441  0.1588 -0.4476
17614TIP3    H174257   5.339   0.319  15.364 -1.6816  1.5368  1.8801
17614TIP3    H274258   5.301   0.173  15.346  1.2651  0.6871  2.0183
17615TIP3   OH274259   0.301   0.425  11.726 -0.4427 -0.2817 -0.4837
17615TIP3    H174260   0.223   0.390  11.683 -1.6085  0.8145  0.6659
17615TIP3    H274261   0.321   0.506  11.680  0.8172 -1.1813 -1.5935
17616TIP3   OH274262   5.810   4.382   3.861  0.5384  0.1104 -0.8785
17616TIP3    H174263   5.857   4.402   3.942  2.6996 -3.3990 -1.0393
17616TIP3    H274264   5.879   4.359   3.799 -1.1031  2.0455 -3.6064
17617TIP3   OH274265   4.108   2.684   6.445  0.0315  0.1974 -0.6367
17617TIP3    H174266   4.054   2.753   6.407  0.7403  0.5087 -1.0865
17617TIP3    H274267   4.089   2.688   6.539  0.2269  1.1624 -0.6263
17618TIP3   OH274268   3.500   6.048  10.254 -0.2439  0.4084 -0.7163
17618TIP3    H174269   3.457   6.098  10.324 -3.2180  0.1042 -2.2025
17618TIP3    H274270   3.532   6.114  10.193  0.0009  0.5844 -0.4058
17619TIP3   OH274271   1.949   5.581   4.755  0.4730 -0.5003 -0.3116
17619TIP3    H174272   1.917   5.495   4.784  1.3808 -0.7227  0.0674
17619TIP3    H274273   2.034   5.562   4.715 -0.4232 -0.1077 -2.5446
17620TIP3   OH274274   6.713   5.689  10.857  0.4256 -0.5544  0.0230
17620TIP3    H174275   6.779   5.622  10.842  0.5810 -1.1124  2.7100
17620TIP3    H274276   6.763   5.769  10.874  0.2624 -0.0018 -1.8689
17621TIP3   OH274277   6.810   3.592   4.997  0.0691  0.2222  0.3911
17621TIP3    H174278   6.730   3.640   5.020  0.5137  0.2371  2.0566
17621TIP3    H274279   6.881   3.650   5.026  0.6664 -0.3697  0.1317
17622TIP3   OH274280   1.509   4.954  11.135 -0.0668 -0.2985 -0.1266
17622TIP3    H174281   1.469   4.999  11.061  1.1576  0.3920 -0.4038
17622TIP3    H274282   1.569   5.018  11.173  0.2079 -1.0397  0.7344
17623TIP3   OH274283   5.964   6.180  15.275 -0.6061 -0.6531  0.3929
17623TIP3    H174284   5.889   6.160  15.218 -1.7253  1.9272  0.8442
17623TIP3    H274285   5.928   6.236  15.344  1.4347 -0.7489  1.6107
17624TIP3   OH274286   4.847   1.198   5.107  0.2806  0.2504 -0.2836
17624TIP3    H174287   4.911   1.263   5.077  0.0953  1.0832  1.0089
17624TIP3    H274288   4.858   1.124   5.048  3.0990 -0.0199  0.4380
17625TIP3   OH274289   5.481   3.190  16.101  0.1521 -0.3089  0.4966
17625TIP3    H174290   5.526   3.274  16.097 -1.3830  0.5788  0.9869
17625TIP3    H274291   5.426   3.196  16.179 -1.2457 -1.0954 -0.3899
17626TIP3   OH274292   4.203   2.842   5.071  0.0769 -0.2635 -0.3641
17626TIP3    H174293   4.166   2.771   5.018  0.2988  0.5991 -1.7339
17626TIP3    H274294   4.128   2.894   5.098  0.0995  0.3427 -1.4296
17627TIP3   OH274295   0.612   3.926   1.796  0.4483  0.3221  0.1469
17627TIP3    H174296   0.609   3.966   1.709  2.1493  1.5486  0.6125
17627TIP3    H274297   0.621   3.832   1.779 -2.0729  0.2067 -0.9655
17628TIP3   OH274298   1.913   4.164  15.893 -0.6693 -0.9960  0.6486
17628TIP3    H174299   1.956   4.209  15.821  1.0405 -1.3128  1.4267
17628TIP3    H274300   1.820   4.187  15.884 -0.0961  1.3110  0.0394
17629TIP3   OH274301   3.403   4.081   4.963  0.6923 -0.8017  0.1502
17629TIP3    H174302   3.471   4.146   4.981  1.2785 -1.0783 -0.9589
17629TIP3    H274303   3.341   4.090   5.035  1.2863  0.2870  0.5457
17630TIP3   OH274304   2.218   1.393   3.530  0.1242  0.3799  0.1031
17630TIP3    H174305   2.261   1.421   3.610 -0.0670  2.3321 -0.4314
17630TIP3    H274306   2.172   1.471   3.498 -2.1496 -1.0793 -0.4252
17631TIP3   OH274307   2.308   2.878   5.237 -0.0571  0.3885 -0.5175
17631TIP3    H174308   2.297   2.881   5.142  4.1282 -1.3657 -1.2723
17631TIP3    H274309   2.321   2.969   5.263 -0.4956  0.8212 -1.7511
17632TIP3   OH274310   1.682   6.024  12.090  0.3520 -0.2287 -0.3726
17632TIP3    H174311   1.739   5.969  12.036  0.8184  0.9195 -1.0812
17632TIP3    H274312   1.741   6.090  12.128  0.0112 -0.8823  1.4083
17633TIP3   OH274313   2.339   2.597  11.701 -0.0272  0.2865 -0.9023
17633TIP3    H174314   2.429   2.593  11.668  0.5759  1.8255  0.4474
17633TIP3    H274315   2.286   2.615  11.623  0.9915  0.8173 -1.4950
17634TIP3   OH274316   4.935   3.743   3.511 -0.4007  0.3426 -0.3261
17634TIP3    H174317   4.900   3.766   3.425 -0.9712 -1.1359 -0.5235
17634TIP3    H274318   4.861   3.754   3.571 -0.8260 -1.3211 -0.5001
17635TIP3   OH274319   0.567   2.501  12.297  0.8370  0.6329  0.1938
17635TIP3    H174320   0.591   2.408  12.293  0.0488  0.4644 -1.6150
17635TIP3    H274321   0.564   2.521  12.390  1.4465 -1.0455  0.6085
17636TIP3   OH274322   4.475   0.488  13.365 -0.6075 -0.3272 -0.5463
17636TIP3    H174323   4.529   0.440  13.302 -0.7347 -2.4549  0.8756
17636TIP3    H274324   4.391   0.442  13.364 -1.1503  0.6262  0.0024
17637TIP3   OH274325   3.854   0.076  11.975 -1.0772  0.0245 -0.1871
17637TIP3    H174326   3.894  -0.007  12.003 -0.4527  0.1529 -0.6737
17637TIP3    H274327   3.851   0.129  12.054  0.9867  0.5168 -0.3837
17638TIP3   OH274328   0.245   1.485   4.401 -0.1408 -0.1656 -0.4169
17638TIP3    H174329   0.159   1.523   4.378 -0.7233  1.7959  3.9520
17638TIP3    H274330   0.224   1.404   4.448  0.5475 -0.6999 -1.0113
17639TIP3   OH274331   6.418   3.388   0.423  0.1528  0.3831  0.3359
17639TIP3    H174332   6.327   3.374   0.450  0.0542  0.2272 -0.0538
17639TIP3    H274333   6.469   3.333   0.481 -0.0633 -0.0404  0.1364
17640TIP3   OH274334   3.219   4.265  11.696 -0.4398 -0.4816  0.3366
17640TIP3    H174335   3.143   4.318  11.721  0.3677  1.4724 -1.0339
17640TIP3    H274336   3.191   4.218  11.617 -0.5068 -0.4280  0.3287
17641TIP3   OH274337   5.695   3.629   4.641 -0.6859 -0.0329 -0.8605
17641TIP3    H174338   5.637   3.681   4.586 -0.2187  0.7439 -0.6273
17641TIP3    H274339   5.738   3.692   4.698  0.3261 -0.5938 -0.9617
17642TIP3   OH274340   5.297   5.342  16.385  0.4596  0.8397 -0.2279
17642TIP3    H174341   5.336   5.373  16.304  0.0481  1.3820 -0.2256
17642TIP3    H274342   5.360   5.280  16.420  1.0554  1.2838 -0.5076
17643TIP3   OH274343   6.262   3.810   4.341  0.0843  0.0455  0.1602
17643TIP3    H174344   6.276   3.723   4.304  2.5306  0.7119 -0.7021
17643TIP3    H274345   6.271   3.869   4.267 -2.5124  1.0403  0.5611
17644TIP3   OH274346   5.394   5.922  11.928 -0.4338  0.7101  0.3345
17644TIP3    H174347   5.339   5.853  11.965  0.8819 -0.4296  0.2430
17644TIP3    H274348   5.378   5.918  11.834  0.1445  0.0353  0.2516
17645TIP3   OH274349   2.239   3.168   2.459 -0.3542 -0.5908  0.2981
17645TIP3    H174350   2.166   3.229   2.472  0.1256 -0.0672  0.5920
17645TIP3    H274351   2.263   3.179   2.367 -1.4601 -1.7021 -0.1518
17646TIP3   OH274352   3.560   6.166  15.355  0.4260 -0.0853  0.3060
17646TIP3    H174353   3.498   6.111  15.404 -1.2315  0.1134 -1.4367
17646TIP3    H274354   3.579   6.115  15.276  0.5507  0.9182 -0.3206
17647TIP3   OH274355   3.757   2.737   5.294  0.1658 -0.8145  0.0672
17647TIP3    H174356   3.726   2.788   5.220 -0.2496 -1.5338 -0.2735
17647TIP3    H274357   3.831   2.786   5.329 -0.0040 -0.1727 -0.4597
17648TIP3   OH274358   0.529   2.252  16.019  0.1692 -0.2102  0.1635
17648TIP3    H174359   0.488   2.330  16.056  1.2264  0.5371 -0.1939
17648TIP3    H274360   0.622   2.275  16.011  0.4535 -1.4068 -0.2106
17649TIP3   OH274361   0.965   4.547  15.533  0.0475  0.1667  0.9262
17649TIP3    H174362   1.020   4.619  15.565  2.6278 -1.1711 -0.1641
17649TIP3    H274363   0.914   4.521  15.609 -1.4554  3.4312  1.2365
17650TIP3   OH274364   3.948   3.689  11.318 -0.3001 -0.4204  0.0011
17650TIP3    H174365   3.931   3.783  11.322 -1.3494 -0.5741 -0.3854
17650TIP3    H274366   3.949   3.668  11.225  0.7419 -0.6634  0.0607
17651TIP3   OH274367   0.395   5.993  15.545  0.7017 -0.7133 -0.3415
17651TIP3    H174368   0.341   5.993  15.624  1.6485  0.3052  0.3471
17651TIP3    H274369   0.376   6.078  15.504 -0.3775 -1.5571 -1.6588
17652TIP3   OH274370   2.320   0.356  16.513 -0.0871  0.1505 -0.1337
17652TIP3    H174371   2.273   0.343  16.431  1.5522 -1.0941 -0.9495
17652TIP3    H274372   2.289   0.285  16.570 -0.7575  0.6305  0.1052
17653TIP3   OH274373   2.967   5.792   5.225 -0.0521  0.2184  0.0446
17653TIP3    H174374   2.891   5.798   5.282 -0.8969  0.4294 -1.0726
17653TIP3    H274375   2.981   5.698   5.212 -0.7005  0.1920 -0.4898
17654TIP3   OH274376   6.266   3.191  13.970 -0.8475 -0.5524  0.2905
17654TIP3    H174377   6.302   3.241  14.042 -1.1217 -3.4010  2.5900
17654TIP3    H274378   6.332   3.125  13.950 -1.8619 -1.4508 -0.2543
17655TIP3   OH274379   3.749   2.275   4.414  0.6707 -0.6240 -0.0105
17655TIP3    H174380   3.822   2.288   4.474 -1.7051 -0.4991  3.0928
17655TIP3    H274381   3.784   2.297   4.328  3.3074  3.1436  1.7578
17656TIP3   OH274382   6.334   4.093   4.804 -0.8632  0.1274 -0.3976
17656TIP3    H174383   6.389   4.023   4.839 -3.1027 -1.6870 -0.2537
17656TIP3    H274384   6.382   4.174   4.823  1.3688 -1.2792  0.3026
17657TIP3   OH274385   3.288   2.905  12.593  0.3449  0.5226 -0.2963
17657TIP3    H174386   3.218   2.853  12.555 -0.2602  1.8917 -1.1352
17657TIP3    H274387   3.363   2.889  12.535  1.3199 -2.2865  1.5630
17658TIP3   OH274388   1.164   5.960   4.883 -0.1227 -0.3533 -0.1608
17658TIP3    H174389   1.080   5.951   4.838 -0.1786  0.0512 -0.1450
17658TIP3    H274390   1.190   6.051   4.866 -0.1451 -0.1924  0.6155
17659TIP3   OH274391   0.668   6.071   0.925 -0.5464 -0.5629 -0.2856
17659TIP3    H174392   0.683   6.004   0.858 -0.2353 -0.0637 -0.7213
17659TIP3    H274393   0.754   6.084   0.965 -0.9309 -1.5896  0.9157
17660TIP3   OH274394   1.640   0.842  13.582 -0.0149  0.3016  0.0580
17660TIP3    H174395   1.659   0.841  13.676 -0.5276 -0.5428  0.1666
17660TIP3    H274396   1.563   0.898  13.573  0.3612  0.8253  0.0673
17661TIP3   OH274397   3.085   3.771   5.644 -0.1504 -0.4211 -0.2899
17661TIP3    H174398   3.150   3.724   5.696 -0.2488  1.0708  1.2734
17661TIP3    H274399   3.009   3.712   5.643  0.6585 -1.4878 -0.7808
17662TIP3   OH274400   1.646   3.828  15.702  0.3907 -0.4612 -0.2282
17662TIP3    H174401   1.683   3.787  15.624 -1.9242 -1.3386 -0.9326
17662TIP3    H274402   1.722   3.845  15.759  1.8756 -1.7733 -1.7343
17663TIP3   OH274403   1.250   4.505  12.907  0.0396  0.3362  0.1964
17663TIP3    H174404   1.188   4.508  12.980 -0.1899 -0.8532  0.0787
17663TIP3    H274405   1.209   4.446  12.844  1.5881 -1.0631  0.4231
17664TIP3   OH274406   6.227   6.141  11.958 -0.0334 -0.4509 -0.0948
17664TIP3    H174407   6.181   6.189  12.026  1.4855 -2.3355  2.4180
17664TIP3    H274408   6.292   6.203  11.924  0.9065 -0.1646  2.0469
17665TIP3   OH274409   2.628   4.304  13.812  0.3396  0.0185  0.0639
17665TIP3    H174410   2.681   4.381  13.833  0.1144 -0.0929  1.0767
17665TIP3    H274411   2.542   4.323  13.851  0.5105 -1.0767  1.0125
17666TIP3   OH274412   0.709   4.916   5.766 -0.4754 -0.0428  0.2909
17666TIP3    H174413   0.621   4.890   5.738 -0.3397 -0.9503  0.6726
17666TIP3    H274414   0.695   4.994   5.820 -1.1741 -0.8058  1.2583
17667TIP3   OH274415   6.549   2.265   0.242  0.5032  0.0230 -0.2036
17667TIP3    H174416   6.496   2.337   0.207  0.4850  0.4717  0.7325
17667TIP3    H274417   6.639   2.299   0.240  0.6265 -0.3291 -0.7592
17668TIP3   OH274418   6.510   1.017   1.736 -0.8565  0.2834  0.1688
17668TIP3    H174419   6.425   1.026   1.693 -0.3518  0.0536 -0.9008
17668TIP3    H274420   6.490   0.975   1.819 -1.7333 -0.2474 -0.2929
17669TIP3   OH274421   0.038   3.247   3.492  0.1582 -0.0967 -0.6313
17669TIP3    H174422   0.074   3.335   3.482  0.0714 -0.0566 -0.5911
17669TIP3    H274423  -0.037   3.246   3.432 -0.6070  0.2729  0.3054
17670TIP3   OH274424   2.838   4.070  16.986  0.0341  0.1367  0.1072
17670TIP3    H174425   2.919   4.122  16.981  0.2777 -0.3017 -0.6044
17670TIP3    H274426   2.866   3.980  16.971 -0.6835  0.0698 -0.9490
17671TIP3   OH274427   1.726   0.472   5.367  0.5510  0.0743  0.1011
17671TIP3    H174428   1.664   0.528   5.320  1.7181 -0.4841 -2.2704
17671TIP3    H274429   1.675   0.397   5.395  0.1309 -0.4937 -2.0179
17672TIP3   OH274430   0.946   4.325   2.413  0.0746  0.6457 -0.2720
17672TIP3    H174431   0.936   4.260   2.344 -1.7985  1.1650 -0.5389
17672TIP3    H274432   0.899   4.402   2.380  0.0315  1.2506  1.1474
17673TIP3   OH274433   5.853   1.746  16.107  0.0446  0.3871 -0.3897
17673TIP3    H174434   5.946   1.725  16.117 -0.3472 -1.5307 -0.2791
17673TIP3    H274435   5.843   1.833  16.145  1.6665  0.3092  0.2685
17674TIP3   OH274436   2.616   1.996   3.859 -0.1154 -0.2492  0.5578
17674TIP3    H174437   2.608   1.957   3.772  0.8299 -1.1855  0.8651
17674TIP3    H274438   2.700   2.042   3.857  0.5949 -1.4634  1.3992
17675TIP3   OH274439   4.737   5.337   3.461 -0.2689  0.1056 -0.1286
17675TIP3    H174440   4.676   5.327   3.534 -0.4013  0.6228 -0.1677
17675TIP3    H274441   4.735   5.430   3.440  0.6481  0.1657 -0.0285
17676TIP3   OH274442   0.960   5.213   0.870 -0.1401  0.1327  0.1976
17676TIP3    H174443   0.984   5.304   0.851 -0.9239  0.3278  0.1391
17676TIP3    H274444   0.888   5.219   0.932  1.9895 -0.5033  2.9001
17677TIP3   OH274445   3.537   3.939   1.347 -0.0094  0.2626 -0.2015
17677TIP3    H174446   3.629   3.917   1.329 -0.5744 -1.7614 -0.7906
17677TIP3    H274447   3.500   3.960   1.262 -0.5776 -0.9235 -0.2621
17678TIP3   OH274448   0.840   5.164   5.380  0.0880 -0.0163  0.3562
17678TIP3    H174449   0.756   5.195   5.347  0.3778 -0.1139 -0.4792
17678TIP3    H274450   0.872   5.236   5.435  0.4761  0.9647 -1.0824
17679TIP3   OH274451   6.122   5.299   4.094 -0.5250  0.2108 -0.7995
17679TIP3    H174452   6.086   5.385   4.113 -0.9575  0.0800 -1.0006
17679TIP3    H274453   6.097   5.245   4.169  1.0998  0.6296  0.0877
17680TIP3   OH274454   4.450   0.686  16.179 -0.0432 -0.2470 -0.3670
17680TIP3    H174455   4.521   0.720  16.235 -1.5318  0.5326  1.1343
17680TIP3    H274456   4.496   0.648  16.104  2.0886 -1.4203  1.3834
17681TIP3   OH274457   2.275   2.016  11.582 -0.6009 -0.4926  0.1535
17681TIP3    H174458   2.268   2.063  11.665 -0.9349  0.4688 -0.3972
17681TIP3    H274459   2.236   1.931  11.599  0.8616 -0.9489  1.4324
17682TIP3   OH274460   2.357   0.078  12.508 -0.1416 -0.4370 -0.1351
17682TIP3    H174461   2.306   0.112  12.581 -0.7831 -1.1656 -0.2307
17682TIP3    H274462   2.293   0.044  12.447  0.4403 -1.1954 -0.3468
17683TIP3   OH274463   2.930   1.033  13.589  0.4156 -0.2065  0.6953
17683TIP3    H174464   2.864   0.964  13.579 -0.6620  0.6472  1.5959
17683TIP3    H274465   2.886   1.112  13.556  1.0739  0.3341  1.0992
17684TIP3   OH274466   5.587   6.094  11.087  0.3454  0.2582 -1.2350
17684TIP3    H174467   5.635   6.127  11.011 -0.7730  1.0442 -1.6298
17684TIP3    H274468   5.652   6.092  11.158  1.8028 -1.9603 -2.5462
17685TIP3   OH274469   1.485   0.106   5.662 -0.6888  0.5831  0.1688
17685TIP3    H174470   1.434   0.147   5.731  1.0851 -0.2687  2.0884
17685TIP3    H274471   1.576   0.131   5.680  0.1359 -1.8466 -0.1759
17686TIP3   OH274472   2.099   1.692  11.188 -0.5640  0.3126 -0.2199
17686TIP3    H174473   2.146   1.653  11.114 -0.3720 -1.9750  1.0110
17686TIP3    H274474   2.162   1.753  11.226 -0.6049  1.4074 -1.7970
17687TIP3   OH274475   6.521   6.424   3.993  0.4027  0.0208 -0.6628
17687TIP3    H174476   6.513   6.515   3.966 -1.5938  0.1988  0.3597
17687TIP3    H274477   6.571   6.428   4.075 -1.2532  0.4418  0.3741
17688TIP3   OH274478   4.385   3.079   1.361  0.7514 -0.3202 -0.2409
17688TIP3    H174479   4.365   3.012   1.296  1.0847  0.5178 -1.2383
17688TIP3    H274480   4.477   3.100   1.347  0.9287 -0.3587  0.7458
17689TIP3   OH274481   6.364   1.059   1.076  0.0985  0.2189 -0.1433
17689TIP3    H174482   6.404   0.973   1.091  1.1392  0.3138 -2.0452
17689TIP3    H274483   6.438   1.119   1.072 -0.6189  1.2262  1.1037
17690TIP3   OH274484   4.849   3.135   2.394  0.2802 -0.1190  0.4399
17690TIP3    H174485   4.870   3.204   2.330  0.5729 -0.3962  0.2381
17690TIP3    H274486   4.835   3.057   2.341  2.5865 -0.8644  0.8479
17691TIP3   OH274487   2.656   6.797   5.863  0.2118  0.5416 -0.3657
17691TIP3    H174488   2.698   6.863   5.918 -1.1419 -0.7014  2.3040
17691TIP3    H274489   2.716   6.723   5.865 -0.7294 -0.2245  1.1667
17692TIP3   OH274490   0.913   0.754   1.933 -0.5337 -0.1135 -0.3501
17692TIP3    H174491   1.006   0.764   1.913 -0.8996  2.5721 -1.0838
17692TIP3    H274492   0.904   0.787   2.022 -0.6185 -1.7086  0.2699
17693TIP3   OH274493   1.548   6.267   4.147 -0.1158 -0.3171 -0.3807
17693TIP3    H174494   1.589   6.345   4.111  0.1103 -1.0113 -1.6905
17693TIP3    H274495   1.607   6.238   4.217  0.4961 -0.0675 -0.7895
17694TIP3   OH274496   1.732   2.111   0.319 -0.1187 -0.2757  0.6964
17694TIP3    H174497   1.818   2.068   0.312 -0.1716 -1.1779  3.7530
17694TIP3    H274498   1.753   2.203   0.337  0.0296  0.6062 -3.2314
17695TIP3   OH274499   0.681   4.467  16.095  0.5465  0.0183 -0.8482
17695TIP3    H174500   0.590   4.451  16.118  1.6965 -2.7227  2.8910
17695TIP3    H274501   0.707   4.542  16.148  1.0770 -1.0702  0.5311
17696TIP3   OH274502   4.372   6.478   0.977  0.4404 -0.2502  0.1495
17696TIP3    H174503   4.302   6.507   1.036 -0.5023 -2.7099  0.3390
17696TIP3    H274504   4.426   6.420   1.031  1.6643  0.2635 -0.4816
17697TIP3   OH274505   3.854   4.102   1.819  0.2016  0.4304 -0.1042
17697TIP3    H174506   3.873   4.145   1.735  0.4622 -2.3881 -1.6197
17697TIP3    H274507   3.759   4.094   1.821 -0.1702  3.7515  1.7307
17698TIP3   OH274508   1.508   3.048   2.950  0.1877 -0.1542  0.2390
17698TIP3    H174509   1.440   3.060   3.016  0.7508 -0.3154  0.8542
17698TIP3    H274510   1.529   2.955   2.954 -0.1274 -0.2678 -0.5268
17699TIP3   OH274511   4.415   2.052  13.783  0.3358 -0.3805  0.9207
17699TIP3    H174512   4.351   2.061  13.713  2.0945  0.9102 -0.6423
17699TIP3    H274513   4.417   1.958  13.802 -0.7293 -0.6626 -0.2246
17700TIP3   OH274514   5.153   6.416  17.058  0.0888  0.6089 -0.0127
17700TIP3    H174515   5.228   6.468  17.088 -0.5592  0.6748  1.5730
17700TIP3    H274516   5.177   6.326  17.077 -0.8085  0.7290  1.9842
17701TIP3   OH274517   5.935   1.522  15.684 -0.3689  0.0176  0.0224
17701TIP3    H174518   5.842   1.509  15.668  0.1215 -2.4675 -1.3417
17701TIP3    H274519   5.952   1.478  15.767 -0.4556  0.8142  0.4718
17702TIP3   OH274520   6.719   2.254   3.983 -0.0898  0.4812 -0.3328
17702TIP3    H174521   6.659   2.209   3.923  1.4002 -1.2706 -0.5900
17702TIP3    H274522   6.796   2.198   3.987  0.4420  1.2520  2.1632
17703TIP3   OH274523   4.313   0.946  13.143 -0.6588 -0.2665 -0.2216
17703TIP3    H174524   4.305   1.040  13.161 -2.4960 -0.1876 -1.1995
17703TIP3    H274525   4.276   0.935  13.055 -1.1483 -1.9970  0.1580
17704TIP3   OH274526   4.504   2.241   3.228 -0.2165  0.2384  0.1619
17704TIP3    H174527   4.470   2.153   3.218 -1.0898  0.5151  0.6013
17704TIP3    H274528   4.584   2.242   3.175 -2.1896  0.3213 -3.1455
17705TIP3   OH274529   2.605   3.500  11.635  0.4076  0.3411 -0.2264
17705TIP3    H174530   2.611   3.512  11.730  1.9272  0.9656 -0.3606
17705TIP3    H274531   2.691   3.464  11.611 -0.5624 -1.4738 -1.1562
17706TIP3   OH274532   0.665   0.209   1.422  0.4297  0.5447  0.1974
17706TIP3    H174533   0.678   0.136   1.361  2.1567  0.6347  0.4220
17706TIP3    H274534   0.600   0.264   1.378  0.3510 -0.2647 -0.7569
17707TIP3   OH274535   0.651   5.443  15.427 -0.3886 -0.0429  0.0457
17707TIP3    H174536   0.701   5.522  15.446 -0.8807 -0.0291  1.3729
17707TIP3    H274537   0.580   5.473  15.369 -1.7278  0.9237  2.0619
17708TIP3   OH274538   3.184   4.804   0.337 -0.3754  0.4748  0.2172
17708TIP3    H174539   3.142   4.808   0.251  0.5454 -1.2037 -0.3598
17708TIP3    H274540   3.181   4.711   0.361  4.4762 -0.1921 -0.6877
17709TIP3   OH274541   5.824   1.650  12.847 -0.0824 -0.1118 -0.1968
17709TIP3    H174542   5.857   1.740  12.848 -2.1643  0.7431  1.5931
17709TIP3    H274543   5.836   1.620  12.757 -0.2144  2.3075 -1.0822
17710TIP3   OH274544   5.709   6.050  15.769 -0.1487  0.1495  0.4152
17710TIP3    H174545   5.688   5.959  15.745 -0.5727  0.6095 -1.0506
17710TIP3    H274546   5.644   6.103  15.724  1.3888  1.3197 -0.5668
17711TIP3   OH274547   2.298   4.978   0.612  0.8813 -0.5647 -0.1151
17711TIP3    H174548   2.231   5.047   0.611  0.3041 -1.0452  1.7187
17711TIP3    H274549   2.369   5.013   0.559  0.3177  1.1461  0.1979
17712TIP3   OH274550   3.038   5.763   4.168  0.3253 -0.4468 -0.0196
17712TIP3    H174551   3.061   5.707   4.094 -2.6271 -1.2991 -0.4031
17712TIP3    H274552   3.073   5.717   4.245  3.1352  0.2895 -0.7317
17713TIP3   OH274553   0.242   2.170  16.305  0.4396 -0.6097 -0.4425
17713TIP3    H174554   0.163   2.153  16.356  1.0343 -1.7257  0.1306
17713TIP3    H274555   0.209   2.184  16.216 -0.4540 -0.4548 -0.1068
17714TIP3   OH274556   3.023   6.639   5.597  0.2010 -0.0761  0.0730
17714TIP3    H174557   2.998   6.558   5.641 -0.0841 -0.1218 -0.1660
17714TIP3    H274558   3.112   6.657   5.627  0.8280 -1.2526 -0.9637
17715TIP3   OH274559   4.333   4.034   4.205  0.1512 -0.2452 -0.0863
17715TIP3    H174560   4.345   4.023   4.111  3.6226 -1.5882  0.3669
17715TIP3    H274561   4.330   3.944   4.239  0.5872  0.2046  1.1955
17716TIP3   OH274562   5.245   2.483   0.502  0.0180 -0.2470 -0.1121
17716TIP3    H174563   5.269   2.390   0.495 -1.4866 -0.6971  0.3169
17716TIP3    H274564   5.162   2.489   0.457 -1.2363  0.3227  2.1256
17717TIP3   OH274565   1.201   6.450  14.240  0.0124  0.1633 -0.0380
17717TIP3    H174566   1.178   6.369  14.193 -1.4230 -1.3150  2.9590
17717TIP3    H274567   1.251   6.501  14.176  2.3486 -3.7174 -1.6416
17718TIP3   OH274568   4.232   1.378   1.918  0.0385  0.0060  0.1835
17718TIP3    H174569   4.144   1.350   1.894  0.3338 -0.7902 -0.0040
17718TIP3    H274570   4.289   1.309   1.884  0.9418  1.5719 -1.6600
17719TIP3   OH274571   4.376   2.020  15.398 -0.1504 -0.1523  0.0691
17719TIP3    H174572   4.280   2.019  15.391 -0.2619  0.0282  1.3904
17719TIP3    H274573   4.393   2.045  15.488  1.1555 -0.3927 -0.0976
17720TIP3   OH274574   5.650   2.081   2.727 -0.3117 -0.1236  0.2101
17720TIP3    H174575   5.627   1.992   2.754  0.1011 -0.4653 -0.5411
17720TIP3    H274576   5.703   2.070   2.648  0.0262  0.7742  0.2915
17721TIP3   OH274577   2.297   1.733   2.596 -0.3876 -0.8850  0.3851
17721TIP3    H174578   2.267   1.782   2.672 -2.1274 -0.5081 -0.4871
17721TIP3    H274579   2.294   1.641   2.623 -1.1234 -0.7646  0.7384
17722TIP3   OH274580   6.273   0.520  10.390 -0.0446 -0.2835  0.1379
17722TIP3    H174581   6.324   0.550  10.315  1.4879 -2.2227  0.3311
17722TIP3    H274582   6.303   0.430  10.405  0.0728  0.1966  3.3784
17723TIP3   OH274583   3.933   6.747   4.204 -0.3973 -0.0112  0.0630
17723TIP3    H174584   4.024   6.724   4.224  0.1653  0.8752 -1.3329
17723TIP3    H274585   3.923   6.837   4.234 -1.7149 -0.9157  2.7703
17724TIP3   OH274586   5.267   1.349   0.033 -0.2483  0.1745  0.1161
17724TIP3    H174587   5.246   1.257   0.049  0.5931 -0.0081  0.1905
17724TIP3    H274588   5.362   1.352   0.024 -0.1750  1.1814  0.9962
17725TIP3   OH274589   6.370   2.730  16.092 -0.1851  0.2121 -0.2189
17725TIP3    H174590   6.402   2.660  16.034  0.7532 -0.2497  0.8059
17725TIP3    H274591   6.334   2.796  16.033 -0.6021 -0.8982 -1.2439
17726TIP3   OH274592   5.341   3.315  13.810 -0.2335 -0.5131 -0.1874
17726TIP3    H174593   5.308   3.403  13.792  0.0896  0.6929  3.9527
17726TIP3    H274594   5.432   3.317  13.780 -0.5103  0.1687 -1.0301
17727TIP3   OH274595   5.969   6.019  12.179 -0.1273 -0.1989 -0.0439
17727TIP3    H174596   6.000   5.928  12.181  3.1953  0.7502 -0.9719
17727TIP3    H274597   5.953   6.041  12.271  0.2047 -1.3642  0.3124
17728TIP3   OH274598   4.113   3.910  10.987  0.0854  0.1203  0.5348
17728TIP3    H174599   4.190   3.949  11.027  0.1116  0.3585  0.2539
17728TIP3    H274600   4.044   3.974  11.000  0.5667  1.1847 -1.6300
17729TIP3   OH274601   0.234   5.200   2.657 -0.3167 -1.0297  0.6256
17729TIP3    H174602   0.215   5.280   2.706  0.3488 -0.0823 -0.6174
17729TIP3    H274603   0.329   5.193   2.658 -0.1097  0.1411 -2.1645
17730TIP3   OH274604   2.092   0.051  11.477  0.2416 -0.4707  0.2890
17730TIP3    H174605   2.046   0.135  11.477  1.0368  0.0164 -1.5644
17730TIP3    H274606   2.178   0.070  11.512  0.4431 -0.4900 -0.1872
17731TIP3   OH274607   2.237   3.556   3.536  0.0335  0.2255 -0.1115
17731TIP3    H174608   2.273   3.635   3.577  0.6281  0.0196 -0.2280
17731TIP3    H274609   2.207   3.502   3.608  2.1287 -0.6576  0.1678
17732TIP3   OH274610   5.572   1.018  15.229 -0.5241 -0.0528 -0.6056
17732TIP3    H174611   5.567   0.952  15.160 -0.7876 -0.7027  0.0199
17732TIP3    H274612   5.487   1.015  15.271 -0.4983  0.6153 -0.4938
17733TIP3   OH274613   1.346   3.735   2.259 -0.5168  0.2833 -0.4177
17733TIP3    H174614   1.371   3.696   2.176  1.9416  1.8361 -0.5175
17733TIP3    H274615   1.334   3.661   2.319  0.3939 -0.7392 -1.4650
17734TIP3   OH274616   6.070   2.251  12.206  0.2828  0.0030  0.4356
17734TIP3    H174617   6.124   2.319  12.164  0.7545  1.1108  2.6552
17734TIP3    H274618   5.992   2.246  12.152  1.7799 -0.3363 -1.8614
17735TIP3   OH274619   5.077   5.620  14.199  0.8004  0.0595  0.3331
17735TIP3    H174620   5.057   5.542  14.251 -2.2191 -0.0738 -0.8700
17735TIP3    H274621   5.158   5.598  14.152  1.0542 -1.5525  1.4526
17736TIP3   OH274622   4.691   2.723   0.754  0.0433 -0.8096  0.3279
17736TIP3    H174623   4.680   2.628   0.751 -0.5619 -0.7248 -0.1573
17736TIP3    H274624   4.685   2.745   0.847 -3.1725 -0.8695  0.2432
17737TIP3   OH274625   4.631   0.691   3.326  0.0227 -0.1123 -0.3362
17737TIP3    H174626   4.565   0.667   3.262  0.3845 -0.6887 -0.5034
17737TIP3    H274627   4.645   0.611   3.377  1.3381 -0.3224 -0.9724
17738TIP3   OH274628   0.312   0.562   4.305  0.1101 -0.5361 -0.8456
17738TIP3    H174629   0.314   0.490   4.369  1.2411 -0.2706 -0.5640
17738TIP3    H274630   0.230   0.549   4.258 -1.0355 -0.3987  1.0362
17739TIP3   OH274631   2.799   6.657  16.613  0.2941 -0.3847  0.0108
17739TIP3    H174632   2.881   6.675  16.660  0.7083 -2.3582  0.1332
17739TIP3    H274633   2.737   6.632  16.681  0.0851 -0.5304 -0.2334
17740TIP3   OH274634   0.025   3.508   4.722  0.9971  0.0515  0.1708
17740TIP3    H174635   0.024   3.556   4.805 -0.9136  0.8484 -0.2665
17740TIP3    H274636  -0.066   3.481   4.709  1.3039 -0.2350 -1.5784
17741TIP3   OH274637   2.397   4.385  13.948  0.2233 -0.4704  0.2862
17741TIP3    H174638   2.377   4.372  14.041 -0.0261  0.6208  0.4031
17741TIP3    H274639   2.443   4.469  13.945 -1.7698  0.6683 -0.7986
17742TIP3   OH274640   5.627   6.431  11.985 -0.3396  0.2394 -0.8910
17742TIP3    H174641   5.594   6.407  11.898 -0.6455  0.6726 -0.8963
17742TIP3    H274642   5.592   6.363  12.043  2.2647 -1.7896 -1.5008
17743TIP3   OH274643   4.805   0.528  12.569  0.7592  0.4264 -0.3090
17743TIP3    H174644   4.815   0.553  12.477 -0.0961 -1.3588 -0.9442
17743TIP3    H274645   4.768   0.605  12.611 -0.9776  0.5595 -1.9514
17744TIP3   OH274646   0.244   4.137  15.135 -0.1802  0.4216 -0.2817
17744TIP3    H174647   0.317   4.081  15.162 -1.1882  0.2389  2.4750
17744TIP3    H274648   0.167   4.080  15.142 -0.5685 -0.0661 -5.2573
17745TIP3   OH274649   1.295   2.417   2.355  0.2923 -0.3543  0.4255
17745TIP3    H174650   1.288   2.434   2.449  0.8650  0.5219  0.3242
17745TIP3    H274651   1.387   2.396   2.341  0.4815  0.8031 -0.1312
17746TIP3   OH274652   4.941   1.121  10.752  0.3260 -0.2216 -0.0146
17746TIP3    H174653   4.990   1.122  10.670  1.6586  0.0507  0.7432
17746TIP3    H274654   4.862   1.172  10.734  1.4454  1.3832 -0.6615
17747TIP3   OH274655   4.251   0.901  11.840 -0.2575  0.0401 -0.2058
17747TIP3    H174656   4.336   0.937  11.815  0.8291 -2.2949 -0.2072
17747TIP3    H274657   4.187   0.960  11.800  1.3333  1.9530 -0.0748
17748TIP3   OH274658   2.297   6.385  15.387  0.2623 -0.1467 -0.2042
17748TIP3    H174659   2.304   6.291  15.403 -0.9957  0.0956  2.1508
17748TIP3    H274660   2.221   6.413  15.438  0.3949  2.1089 -1.1119
17749TIP3   OH274661   0.551   2.283  13.624  0.4321 -0.0413  0.2057
17749TIP3    H174662   0.642   2.311  13.630  0.2575  0.8020 -0.8019
17749TIP3    H274663   0.526   2.262  13.714  1.0765  1.4688  0.7737
17750TIP3   OH274664   3.946   2.643  13.967 -0.1664 -0.0493 -0.3241
17750TIP3    H174665   3.990   2.659  14.050 -0.2855  2.0859 -0.6108
17750TIP3    H274666   3.990   2.566  13.930  0.8973 -0.1120  1.0146
17751TIP3   OH274667   2.317   3.983  11.667  0.6016  0.4863 -0.1699
17751TIP3    H174668   2.404   3.969  11.703  1.5260 -2.2022 -3.0614
17751TIP3    H274669   2.330   3.991  11.572 -2.0353  3.3540 -0.4890
17752TIP3   OH274670   5.618   3.325  14.448  0.3368  0.5202 -0.2665
17752TIP3    H174671   5.606   3.238  14.410 -0.9965 -0.5238  2.2776
17752TIP3    H274672   5.545   3.376  14.412  0.0855  0.0701 -0.4108
17753TIP3   OH274673   3.187   2.774   5.779  0.1289 -0.2448 -0.1614
17753TIP3    H174674   3.135   2.827   5.840  0.4044  0.3257 -0.4169
17753TIP3    H274675   3.271   2.763   5.822  0.2771  0.0435 -0.3708
17754TIP3   OH274676   5.415   0.545   4.923 -0.2473  0.4724  0.7117
17754TIP3    H174677   5.470   0.620   4.945 -0.2819 -0.2151  3.5201
17754TIP3    H274678   5.337   0.583   4.882 -0.0630  1.9539  1.6446
17755TIP3   OH274679   0.724   1.504   1.575  0.0944 -0.2742  0.5192
17755TIP3    H174680   0.804   1.555   1.590 -0.3400  0.7325 -0.3785
17755TIP3    H274681   0.654   1.569   1.582 -0.3561 -0.2215 -2.7042
17756TIP3   OH274682   3.648   0.069   2.720 -0.4915 -0.0783  0.3001
17756TIP3    H174683   3.641   0.101   2.810  1.5342  3.4394 -0.6253
17756TIP3    H274684   3.734   0.098   2.690  0.3854 -4.0492 -1.8403
17757TIP3   OH274685   1.018   1.671   6.473 -0.1573 -0.1504 -0.0862
17757TIP3    H174686   1.003   1.579   6.452  0.5076  0.0432 -1.5512
17757TIP3    H274687   0.958   1.689   6.546 -0.6756 -1.5927 -0.1188
17758TIP3   OH274688   3.416   4.990  16.359 -0.5224  0.0609 -0.0426
17758TIP3    H174689   3.400   5.058  16.294  2.0491  0.4702 -0.3757
17758TIP3    H274690   3.463   4.922  16.311  1.8491  0.5720  1.3709
17759TIP3   OH274691   0.060   6.086  13.331  0.1732 -0.6253 -0.0926
17759TIP3    H174692   0.125   6.146  13.294  0.0659 -1.9729 -2.6725
17759TIP3    H274693   0.105   6.002  13.335 -0.3598 -0.8678  1.4207
17760TIP3   OH274694   1.373   6.438  12.384  0.2013  0.6584  0.0122
17760TIP3    H174695   1.461   6.450  12.347 -0.6389  1.5342 -1.8392
17760TIP3    H274696   1.358   6.343  12.379  0.9167  0.5388  0.0301
17761TIP3   OH274697   0.164   3.072   3.892  0.3075  0.2066  0.1352
17761TIP3    H174698   0.139   3.121   3.970  0.4973 -0.1435  0.4140
17761TIP3    H274699   0.180   3.140   3.826 -0.9285  0.4626  0.0663
17762TIP3   OH274700   2.375   3.424  11.990  0.0847 -0.0579  0.4279
17762TIP3    H174701   2.337   3.399  11.906  0.0261  0.7919  0.1950
17762TIP3    H274702   2.300   3.454  12.042  0.4559  2.2572 -0.2593
17763TIP3   OH274703   5.884   6.336  11.180  0.4801  0.0158 -0.4906
17763TIP3    H174704   5.803   6.347  11.130  0.4856 -0.7357 -0.6698
17763TIP3    H274705   5.939   6.408  11.151 -0.8083  1.7411  1.0539
17764TIP3   OH274706   6.020   2.228   0.754  0.2485 -0.0654  0.1956
17764TIP3    H174707   5.947   2.180   0.794 -0.5889  1.6433  0.8590
17764TIP3    H274708   6.070   2.261   0.829  1.4527 -0.8012 -0.2556
17765TIP3   OH274709   2.687   5.416   0.114 -0.0030 -0.6981  0.6136
17765TIP3    H174710   2.699   5.325   0.140  0.0229 -1.2601 -1.2343
17765TIP3    H274711   2.699   5.466   0.195  1.0853 -2.2345  1.4471
17766TIP3   OH274712   2.301   0.883   3.513 -0.0222  0.3645  0.8401
17766TIP3    H174713   2.324   0.976   3.521  2.6538 -0.0108 -1.2022
17766TIP3    H274714   2.240   0.880   3.440 -1.8153  0.6687  2.2542
17767TIP3   OH274715   1.619   1.586   2.043 -0.5445 -0.4297  0.0335
17767TIP3    H174716   1.675   1.539   2.104 -0.6316  0.8079  1.1246
17767TIP3    H274717   1.564   1.641   2.099 -1.8516 -0.5488 -1.0831
17768TIP3   OH274718   0.495   2.108  11.160 -0.0230  0.0328 -0.5504
17768TIP3    H174719   0.490   2.135  11.252  0.0520  0.7636 -0.7480
17768TIP3    H274720   0.582   2.070  11.151 -0.2839 -0.6658 -0.1629
17769TIP3   OH274721   4.504   2.397   5.644  0.6173  0.0786  0.3885
17769TIP3    H174722   4.477   2.481   5.681 -3.0070 -1.3524  1.4653
17769TIP3    H274723   4.511   2.338   5.719  0.2839 -1.2269 -0.5686
17770TIP3   OH274724   5.522   4.770   1.023 -0.5214 -0.0562  0.5346
17770TIP3    H174725   5.536   4.722   0.942 -2.2699  0.3946 -0.0969
17770TIP3    H274726   5.497   4.703   1.087 -0.4090 -0.2762  0.3467
17771TIP3   OH274727   3.221   0.773   2.771  0.0367 -0.6586 -0.7302
17771TIP3    H174728   3.156   0.707   2.793 -0.4455 -0.4479 -1.4732
17771TIP3    H274729   3.305   0.730   2.787 -0.2763 -1.0477 -0.0898
17772TIP3   OH274730   5.644   5.309  11.541 -0.1221  0.3939 -0.3304
17772TIP3    H174731   5.655   5.319  11.636 -1.8358  2.0254 -0.2423
17772TIP3    H274732   5.587   5.382  11.516  0.2728 -0.0211 -2.6284
17773TIP3   OH274733   0.121   2.652  12.037  0.7078  0.0913 -0.1704
17773TIP3    H174734   0.189   2.630  12.101  0.0520 -0.9229  0.1912
17773TIP3    H274735   0.142   2.742  12.011  2.7531 -0.4891 -0.7771
17774TIP3   OH274736   4.179   3.992  13.823  0.4399  0.3070  0.4764
17774TIP3    H174737   4.172   4.010  13.917 -0.7954  0.3028  0.3985
17774TIP3    H274738   4.138   3.906  13.812  1.3205 -0.0630  0.0461
17775TIP3   OH274739   6.651   4.999   0.446 -0.2369 -0.4869 -0.6831
17775TIP3    H174740   6.615   4.923   0.491  0.4588 -1.2527 -1.3982
17775TIP3    H274741   6.746   4.992   0.458 -0.2527  1.6380  1.4104
17776TIP3   OH274742   5.865   0.196  13.303 -0.4001 -0.3736 -0.2391
17776TIP3    H174743   5.881   0.140  13.379 -1.0275 -1.5502 -0.9494
17776TIP3    H274744   5.777   0.232  13.318 -0.2136  0.0211 -0.0495
17777TIP3   OH274745   4.664   5.683  16.351  0.0636  0.6329  0.1770
17777TIP3    H174746   4.583   5.695  16.302  0.1529  2.5002  0.4074
17777TIP3    H274747   4.636   5.660  16.440 -0.1647  0.0207 -0.0483
17778TIP3   OH274748   2.999   6.200   1.337  0.1467  0.3182 -0.1463
17778TIP3    H174749   2.998   6.291   1.366 -0.5617  0.2682  0.0279
17778TIP3    H274750   3.052   6.154   1.402  2.1186  0.9050 -1.2703
17779TIP3   OH274751   3.083   2.787  13.611 -0.3341  0.2882  0.3006
17779TIP3    H174752   3.008   2.797  13.670  0.8044  1.7758  1.5777
17779TIP3    H274753   3.084   2.867  13.560  0.9220  0.7237  0.9722
17780TIP3   OH274754   5.794   5.882  11.035 -0.1560  0.4822 -0.2439
17780TIP3    H174755   5.710   5.838  11.028 -0.7015  1.3937  0.4225
17780TIP3    H274756   5.810   5.916  10.947  0.6875 -1.7035 -1.0121
17781TIP3   OH274757   2.367   1.054   4.109  0.1786  0.1360 -0.4422
17781TIP3    H174758   2.433   0.996   4.149 -0.7081 -0.8470 -0.3638
17781TIP3    H274759   2.283   1.019   4.139 -0.3747  2.1472  0.5082
17782TIP3   OH274760   4.196   0.909  14.554 -0.0166 -0.3827  0.0650
17782TIP3    H174761   4.258   0.925  14.625 -0.9015  0.3067  0.7002
17782TIP3    H274762   4.238   0.948  14.477  0.4309 -0.1124  0.4367
17783TIP3   OH274763   1.692   5.761  13.768 -0.5114 -0.3779 -0.4336
17783TIP3    H174764   1.640   5.816  13.710 -2.3965 -2.0510 -0.4495
17783TIP3    H274765   1.627   5.711  13.818  1.0861 -1.5661  0.5606
17784TIP3   OH274766   4.637   0.035  13.595  0.0265  0.4106 -0.8371
17784TIP3    H174767   4.551   0.047  13.634  0.8579 -0.7974  1.5452
17784TIP3    H274768   4.683   0.117  13.612 -0.3371  0.7369 -1.3689
17785TIP3   OH274769   3.049   3.670   3.164 -0.5595  0.7327 -0.3474
17785TIP3    H174770   3.142   3.657   3.183 -0.4712 -2.3374 -2.2116
17785TIP3    H274771   3.005   3.599   3.211 -1.6613  0.6350 -1.4824
17786TIP3   OH274772   4.943   0.786   0.940  0.5192 -0.4095  0.0107
17786TIP3    H174773   4.996   0.708   0.927  1.0122 -0.0556 -0.1408
17786TIP3    H274774   4.995   0.857   0.902 -0.4491 -0.1792 -0.9129
17787TIP3   OH274775   3.584   1.886  13.566  0.2541  0.0050  0.0086
17787TIP3    H174776   3.677   1.870  13.577  0.8762  2.5989 -0.9641
17787TIP3    H274777   3.563   1.848  13.480  0.4234 -0.5086  0.1926
17788TIP3   OH274778   3.843   5.623  13.405 -0.6005  0.3594 -0.5022
17788TIP3    H174779   3.752   5.640  13.380  0.0365 -0.2380 -3.6130
17788TIP3    H274780   3.856   5.529  13.391  0.2817  0.2409  0.8389
17789TIP3   OH274781   2.528   4.266   4.511 -0.1514  0.3026  0.2944
17789TIP3    H174782   2.435   4.255   4.530 -0.7060  1.0723 -1.6876
17789TIP3    H274783   2.573   4.217   4.580 -2.0823 -3.4646 -0.8030
17790TIP3   OH274784   1.985   3.846   1.881  0.1738  0.6530 -0.0240
17790TIP3    H174785   1.961   3.864   1.972 -1.4575  0.2915 -0.3456
17790TIP3    H274786   2.063   3.899   1.865  0.7626  0.3594  1.7128
17791TIP3   OH274787   5.203   5.850   0.917 -0.1032  0.7670  0.4826
17791TIP3    H174788   5.165   5.767   0.945  0.3840  0.4727  0.2838
17791TIP3    H274789   5.207   5.903   0.997 -1.2274  0.9325  0.4516
17792TIP3   OH274790   2.434   6.400   3.764 -0.7184  0.4512  0.0180
17792TIP3    H174791   2.382   6.363   3.835  1.1420 -0.0359  1.1666
17792TIP3    H274792   2.477   6.476   3.803  0.4648  0.0762 -0.5395
17793TIP3   OH274793   3.124   1.908   4.274 -0.5506  0.5052  0.0885
17793TIP3    H174794   3.029   1.920   4.285 -0.8328 -1.2289 -0.2088
17793TIP3    H274795   3.163   1.972   4.334 -1.9318 -0.0254  1.6381
17794TIP3   OH274796   4.864   5.777  15.076 -0.2514 -0.0715  0.1441
17794TIP3    H174797   4.789   5.725  15.107  1.0719 -1.8293  0.5781
17794TIP3    H274798   4.927   5.711  15.047  0.5918  1.4066 -1.5458
17795TIP3   OH274799   0.403   4.935  14.607 -0.1563 -0.3424  0.2684
17795TIP3    H174800   0.342   4.864  14.624 -1.3944  0.3378 -1.0384
17795TIP3    H274801   0.437   4.917  14.519 -0.6474  0.7511 -0.1665
17796TIP3   OH274802   4.282   1.893   1.803  0.1463  0.3752  0.2990
17796TIP3    H174803   4.259   1.822   1.863  0.6356  1.4869  1.8707
17796TIP3    H274804   4.339   1.951   1.855 -0.4490  2.0571 -0.8425
17797TIP3   OH274805   6.305   3.487  14.765 -0.3602  0.3981 -0.1183
17797TIP3    H174806   6.379   3.442  14.807 -2.4314 -2.1633  1.0760
17797TIP3    H274807   6.326   3.484  14.672  1.4538  0.5892  0.2327
17798TIP3   OH274808   3.997   0.709   4.882 -0.0159  0.2089  0.1039
17798TIP3    H174809   4.045   0.627   4.898 -0.4933 -0.1542 -0.3052
17798TIP3    H274810   3.960   0.698   4.795  0.0200  0.9199 -0.0040
17799TIP3   OH274811   0.666   6.337   4.243 -0.1269  0.0132 -0.4032
17799TIP3    H174812   0.659   6.308   4.334  1.3928 -0.3278 -0.3680
17799TIP3    H274813   0.660   6.256   4.192  0.1023  0.0796 -0.5387
17800TIP3   OH274814   0.674   4.604  16.844  0.2528  0.0315 -0.5318
17800TIP3    H174815   0.664   4.514  16.875  0.1535  0.6941  1.5004
17800TIP3    H274816   0.716   4.595  16.758 -1.2446 -1.9986 -1.1349
17801TIP3   OH274817   1.524   5.303   4.635 -0.4003  0.1636 -0.6223
17801TIP3    H174818   1.494   5.355   4.710 -1.8245 -0.7409 -0.5207
17801TIP3    H274819   1.446   5.294   4.579  0.2496 -0.4572 -1.4483
17802TIP3   OH274820   0.222   2.470   3.040 -0.7023 -0.0722  0.3688
17802TIP3    H174821   0.293   2.534   3.037 -0.6597 -0.1422 -0.2831
17802TIP3    H274822   0.264   2.386   3.025 -0.9809 -0.0547 -0.6411
17803TIP3   OH274823   1.904   6.191   0.290  0.1901 -0.3916  0.0720
17803TIP3    H174824   1.966   6.202   0.363  1.1258 -1.2981 -0.5729
17803TIP3    H274825   1.818   6.202   0.331  0.7403  0.3728  1.0815
17804TIP3   OH274826   2.730   5.276  12.875  0.4153 -0.3802 -0.4781
17804TIP3    H174827   2.814   5.310  12.903 -0.7256  1.6447  0.7589
17804TIP3    H274828   2.694   5.345  12.820 -0.3289 -1.3410 -1.2369
17805TIP3   OH274829   0.199   0.613  15.070 -0.2618  0.0788 -0.2532
17805TIP3    H174830   0.228   0.694  15.027 -0.1663  0.3882  0.3764
17805TIP3    H274831   0.205   0.546  15.002  0.9303  0.3411 -0.4284
17806TIP3   OH274832   2.604   1.403  11.149 -0.3075  0.1030 -0.0808
17806TIP3    H174833   2.550   1.324  11.146 -0.0501 -0.1040  0.6866
17806TIP3    H274834   2.549   1.467  11.194  0.5062 -0.4590  1.8007
17807TIP3   OH274835   0.212   6.432  12.277  0.1033 -0.4519 -0.3809
17807TIP3    H174836   0.217   6.477  12.192  1.0897 -2.9385 -1.7196
17807TIP3    H274837   0.178   6.345  12.257 -1.6748 -0.4530  2.1159
17808TIP3   OH274838   3.538   2.467   5.222  0.1480  0.1484 -0.1202
17808TIP3    H174839   3.476   2.540   5.217 -2.0694 -1.5586  0.5040
17808TIP3    H274840   3.560   2.449   5.130 -0.6522  0.5371 -0.4055
17809TIP3   OH274841   1.197   1.025   0.583 -0.4396  0.0894 -0.2025
17809TIP3    H174842   1.155   0.948   0.544  1.1383 -1.0524  0.2103
17809TIP3    H274843   1.173   1.022   0.675 -0.9937  0.5326 -0.3316
17810TIP3   OH274844   6.273   3.058  15.582  0.4019  0.4926 -0.6604
17810TIP3    H174845   6.253   3.118  15.510 -1.6677  0.5143 -0.1328
17810TIP3    H274846   6.223   2.979  15.562  1.6738 -0.3996 -0.4269
17811TIP3   OH274847   1.393   3.958  14.660 -0.5885  0.6766  0.5488
17811TIP3    H174848   1.369   3.961  14.753  1.1959  0.9851  1.0361
17811TIP3    H274849   1.455   3.886  14.653 -3.2775 -1.6770 -1.1311
17812TIP3   OH274850   1.403   0.397  13.994  0.1670 -0.2522 -0.1246
17812TIP3    H174851   1.364   0.381  13.908 -1.0136  2.1229 -0.1113
17812TIP3    H274852   1.330   0.426  14.049  1.0909 -0.6703  1.3819
17813TIP3   OH274853   2.327   0.314  14.944  0.0118 -0.6298 -0.4691
17813TIP3    H174854   2.244   0.362  14.951 -0.1304 -1.0095  0.6800
17813TIP3    H274855   2.393   0.376  14.975  0.8851  1.2558 -5.2706
17814TIP3   OH274856   6.778   3.528   0.842  0.0787 -0.3358 -0.2001
17814TIP3    H174857   6.727   3.477   0.905 -2.0341  2.1720  0.2870
17814TIP3    H274858   6.728   3.524   0.761  0.2956  0.2584 -0.3718
17815TIP3   OH274859   5.038   0.961  12.695 -0.9171  0.6096  0.0903
17815TIP3    H174860   4.957   0.994  12.656 -1.4629  0.0345  0.7107
17815TIP3    H274861   5.068   1.030  12.754  0.2386  1.7474 -1.7258
17816TIP3   OH274862   5.931   4.661  14.766 -0.0376 -0.1696  0.0168
17816TIP3    H174863   5.995   4.699  14.706  0.2350 -2.4198 -1.2438
17816TIP3    H274864   5.896   4.585  14.719 -0.9636 -1.1307  2.1028
17817TIP3   OH274865   4.062   5.293  11.886 -0.1586 -0.0385 -0.7102
17817TIP3    H174866   4.067   5.200  11.867  0.4712  0.3236 -2.5254
17817TIP3    H274867   4.144   5.312  11.933 -0.9182 -0.6257  0.9054
17818TIP3   OH274868   5.949   5.039   6.263 -0.0269  0.1549  0.4885
17818TIP3    H174869   5.876   4.989   6.299  0.5646  0.3045  1.9829
17818TIP3    H274870   5.989   5.081   6.339  0.7412  1.2377 -0.4775
17819TIP3   OH274871   3.253   0.065  15.718  0.0849  0.2143  0.1440
17819TIP3    H174872   3.235   0.016  15.639  2.2633 -0.6702  0.1341
17819TIP3    H274873   3.236   0.003  15.789 -0.4878  0.5675  0.3285
17820TIP3   OH274874   1.520   3.180  14.736  0.1837 -0.5563 -0.3949
17820TIP3    H174875   1.452   3.116  14.714  0.0526 -1.3343  2.0381
17820TIP3    H274876   1.471   3.261  14.754 -0.1912 -1.1545  1.5081
17821TIP3   OH274877   6.496   5.123   0.264 -0.5661 -0.0909  0.1143
17821TIP3    H174878   6.566   5.117   0.328  0.3280  0.3472 -0.7952
17821TIP3    H274879   6.509   5.048   0.206  0.4240  1.0737 -1.2614
17822TIP3   OH274880   3.287   3.332  14.156  0.2433 -0.0610  0.6294
17822TIP3    H174881   3.204   3.284  14.151  0.3887 -0.3058  0.5388
17822TIP3    H274882   3.320   3.331  14.066  0.2968  0.1250  0.6469
17823TIP3   OH274883   3.415   0.099  15.511 -0.7087  0.3879  0.1470
17823TIP3    H174884   3.393   0.100  15.604  1.3252  1.3305  0.6761
17823TIP3    H274885   3.417   0.192  15.486 -1.1357  0.1513 -0.8185
17824TIP3   OH274886   3.378   2.878  12.836  0.2782  0.4894 -0.5173
17824TIP3    H174887   3.348   2.898  12.748  0.9706  2.2603 -0.3786
17824TIP3    H274888   3.305   2.830  12.876 -1.0667  1.8431 -1.2478
17825TIP3   OH274889   0.976   3.818  13.989  0.1133 -0.2417  0.3971
17825TIP3    H174890   1.066   3.795  14.013  0.4566  1.0483  0.4167
17825TIP3    H274891   0.922   3.753  14.035  1.0607 -1.8838 -0.6939
17826TIP3   OH274892   0.199   2.635   4.189 -0.6058 -0.6177  0.9364
17826TIP3    H174893   0.253   2.685   4.128 -0.4564  0.1226  1.6448
17826TIP3    H274894   0.110   2.644   4.156 -0.3090 -1.9692 -0.3278
17827TIP3   OH274895   1.944   3.675   6.483 -0.2624  0.4025  0.0162
17827TIP3    H174896   1.918   3.622   6.559  0.5550 -0.5936 -0.3755
17827TIP3    H274897   1.861   3.699   6.442 -0.6578 -1.5057 -0.4025
17828TIP3   OH274898   4.486   5.503  10.878 -0.4109 -0.8361 -0.2552
17828TIP3    H174899   4.483   5.562  10.803  0.2790  0.2913  0.5806
17828TIP3    H274900   4.577   5.504  10.907 -0.6057 -1.4893  0.4300
17829TIP3   OH274901   0.682   5.196  11.359 -0.1003 -0.1121  0.6612
17829TIP3    H174902   0.701   5.281  11.397 -0.0292  0.0272  0.3119
17829TIP3    H274903   0.661   5.141  11.434 -0.9883  0.4324  0.8280
17830TIP3   OH274904   1.161   0.578   1.397 -0.5273  0.1643  0.2882
17830TIP3    H174905   1.154   0.505   1.335 -2.0301  0.4716  0.0358
17830TIP3    H274906   1.078   0.626   1.386  0.3036  1.7535  0.6426
17831TIP3   OH274907   2.989   3.066  12.048 -0.0118 -0.3292 -0.5800
17831TIP3    H174908   3.014   3.050  11.957  0.4056  1.5716 -0.8515
17831TIP3    H274909   3.071   3.061  12.097  0.5050  2.5748 -0.9666
17832TIP3   OH274910   3.301   1.881   2.909 -0.6439  0.3802  0.2855
17832TIP3    H174911   3.226   1.881   2.968  0.3834 -0.4232  1.6651
17832TIP3    H274912   3.345   1.798   2.927 -0.6745 -0.2584 -2.1821
17833TIP3   OH274913   6.265   0.505   5.538  0.4698 -0.3995  0.0240
17833TIP3    H174914   6.313   0.565   5.595 -0.2104 -0.3377  0.5433
17833TIP3    H274915   6.174   0.533   5.545  0.1230 -1.5547  0.3663
17834TIP3   OH274916   5.121   2.385   3.922 -0.7106 -0.2487  0.3278
17834TIP3    H174917   5.134   2.452   3.990  1.2289  0.4572 -0.6589
17834TIP3    H274918   5.205   2.380   3.877 -1.4307 -1.9325 -0.9413
17835TIP3   OH274919   6.050   5.314   5.813 -0.2624 -1.0298 -0.1382
17835TIP3    H174920   6.036   5.406   5.835 -1.1829 -1.2331  0.1865
17835TIP3    H274921   5.971   5.270   5.843 -1.5070 -1.3969 -3.5027
17836TIP3   OH274922   1.241   2.522  13.987  0.3645 -0.1439 -0.0055
17836TIP3    H174923   1.190   2.572  13.923  0.6435 -1.4158 -1.2810
17836TIP3    H274924   1.327   2.512  13.946  0.8624 -0.1869  1.0088
17837TIP3   OH274925   5.486   0.548  15.777 -0.1583 -0.4758  0.1754
17837TIP3    H174926   5.482   0.643  15.788 -3.4823 -0.5886  0.7335
17837TIP3    H274927   5.438   0.531  15.697 -0.5676 -1.7656  0.6725
17838TIP3   OH274928   2.800   0.931  12.197  0.6429 -0.2619 -0.7293
17838TIP3    H174929   2.865   0.931  12.126  2.5909 -2.1455  0.9091
17838TIP3    H274930   2.830   0.998  12.257 -0.5104  0.7234 -1.2151
17839TIP3   OH274931   3.635   5.473  15.296 -0.0626  0.2965 -0.2583
17839TIP3    H174932   3.578   5.506  15.227 -1.4324  1.2072  1.2222
17839TIP3    H274933   3.594   5.504  15.377  0.7340 -1.8254  1.0413
17840TIP3   OH274934   6.574   1.759   4.698  0.1028 -0.2129 -0.9580
17840TIP3    H174935   6.618   1.831   4.653 -1.7791  1.2612 -0.5617
17840TIP3    H274936   6.626   1.746   4.777 -1.7864  3.9009  1.3382
17841TIP3   OH274937   6.619   5.043  16.852 -0.4487 -0.7505  0.0108
17841TIP3    H174938   6.556   5.004  16.913  1.1151 -2.4156  0.6591
17841TIP3    H274939   6.692   5.071  16.906  0.5962 -1.4613 -0.9645
17842TIP3   OH274940   4.174   5.914   0.748 -0.4455  0.5294 -0.2513
17842TIP3    H174941   4.192   5.881   0.660 -0.3134 -1.8018  0.5546
17842TIP3    H274942   4.083   5.943   0.745 -0.9753 -1.0691 -0.7790
17843TIP3   OH274943   6.072   3.884   0.928  0.2289  0.0613 -0.0862
17843TIP3    H174944   6.040   3.964   0.970  1.1580 -0.2817  1.3577
17843TIP3    H274945   6.122   3.839   0.997 -0.1196 -1.6823 -0.9070
17844TIP3   OH274946   1.539   1.864   3.041  0.0566 -0.7018  0.1306
17844TIP3    H174947   1.490   1.926   3.095 -1.3400 -1.3434 -0.3532
17844TIP3    H274948   1.524   1.893   2.951  0.3420 -1.0692 -0.0404
17845TIP3   OH274949   4.419   4.628  14.511 -0.2317 -0.0536 -0.1116
17845TIP3    H174950   4.482   4.698  14.497 -0.6247  0.3956  0.3018
17845TIP3    H274951   4.343   4.672  14.549 -0.5093 -0.6978  0.0920
17846TIP3   OH274952   1.437   3.738   2.576  0.4157 -0.3742  0.3974
17846TIP3    H174953   1.402   3.688   2.502  3.2223 -0.0034 -1.3035
17846TIP3    H274954   1.447   3.827   2.542  1.6931 -0.1759  1.2482
17847TIP3   OH274955   6.441   1.171   4.679  0.0186 -0.6057 -0.2319
17847TIP3    H174956   6.475   1.142   4.763  0.3456 -1.8524 -0.7767
17847TIP3    H274957   6.369   1.230   4.701  0.5681 -0.3425  0.9145
17848TIP3   OH274958   0.463   4.590  14.744  0.6026 -0.2607  0.0055
17848TIP3    H174959   0.509   4.578  14.827  1.1341  0.0160 -0.2410
17848TIP3    H274960   0.374   4.613  14.769  1.0898  1.1762  0.5239
17849TIP3   OH274961   0.223   3.872  15.576  0.6591 -0.4086  0.0515
17849TIP3    H174962   0.163   3.946  15.578  1.0818 -0.0405  2.8123
17849TIP3    H274963   0.309   3.911  15.561  0.7965 -0.3890  0.8490
17850TIP3   OH274964   5.867   3.961   5.423  0.3668 -0.1687  0.3684
17850TIP3    H174965   5.880   3.867   5.410 -0.5304 -0.4196  1.1615
17850TIP3    H274966   5.772   3.974   5.417  0.5923  0.9783 -1.4469
17851TIP3   OH274967   4.018   5.621   0.141  0.5243  0.1554 -0.4434
17851TIP3    H174968   4.091   5.637   0.200 -0.1180  0.4123  0.2990
17851TIP3    H274969   3.965   5.555   0.186 -0.2772  0.7814 -0.4592
17852TIP3   OH274970   3.866   3.170   2.117  0.1500  0.2950  0.4680
17852TIP3    H174971   3.884   3.157   2.210  0.3474 -1.4308  0.2202
17852TIP3    H274972   3.771   3.163   2.109 -0.0370  1.9807  0.7154
17853TIP3   OH274973   3.904   0.853   2.267  0.0197 -0.2887  0.2327
17853TIP3    H174974   3.973   0.919   2.278 -1.1982  1.0117  0.3352
17853TIP3    H274975   3.902   0.807   2.351  0.1391  0.2913  0.5603
17854TIP3   OH274976   6.731   2.502  13.400  0.0025  0.6797 -0.8560
17854TIP3    H174977   6.705   2.412  13.384  0.9421  0.7260 -2.9332
17854TIP3    H274978   6.817   2.495  13.443  1.1507  0.5281 -3.0450
17855TIP3   OH274979   2.923   6.096  15.605  0.3186  0.0495  0.0207
17855TIP3    H174980   2.887   6.103  15.517 -2.9000 -0.4996  1.1444
17855TIP3    H274981   2.881   6.167  15.654  0.4085 -0.9178  1.5800
17856TIP3   OH274982   0.369   3.023  11.693 -0.3994  0.1062 -0.1018
17856TIP3    H174983   0.462   3.000  11.696 -0.9222 -2.0330  1.1157
17856TIP3    H274984   0.327   2.949  11.649 -1.7308  0.2592  0.8587
17857TIP3   OH274985   1.038   3.203  16.833 -0.1642  0.2302  0.1026
17857TIP3    H174986   0.980   3.139  16.791 -1.6105  2.2197 -1.1235
17857TIP3    H274987   1.126   3.171  16.814 -0.8284 -1.7073  0.0799
17858TIP3   OH274988   1.303   6.240   0.407 -0.3307  0.7660  0.3808
17858TIP3    H174989   1.365   6.209   0.342 -2.0939  1.1940 -1.6037
17858TIP3    H274990   1.219   6.201   0.381 -1.2527  1.6056  1.9247
17859TIP3   OH274991   3.562   2.880  10.995  0.0571 -1.2098 -0.5102
17859TIP3    H174992   3.499   2.811  10.973 -0.7615 -0.0436 -1.9461
17859TIP3    H274993   3.639   2.860  10.942 -0.1956 -0.9974 -0.9596
17860TIP3   OH274994   3.648   2.268  12.567  0.6884 -0.8059  0.3529
17860TIP3    H174995   3.623   2.286  12.477  0.0075  0.8128  0.8155
17860TIP3    H274996   3.666   2.174  12.569 -1.7414 -1.3920 -0.9175
17861TIP3   OH274997   3.357   2.819  11.162  0.6657  0.1120  0.8386
17861TIP3    H174998   3.375   2.761  11.088 -2.4371 -0.2679  0.2398
17861TIP3    H274999   3.321   2.761  11.229  1.8593  0.7123  2.0432
17862TIP3   OH275000   0.904   0.959  15.486 -0.0809 -0.2667 -0.6552
17862TIP3    H175001   0.912   1.010  15.406  1.5377 -0.7262 -0.8356
17862TIP3    H275002   0.990   0.916  15.496  0.1977  0.6838  1.9286
17863TIP3   OH275003   2.542   6.636  13.750 -0.1096  0.0482  0.0337
17863TIP3    H175004   2.464   6.588  13.723 -0.1730  0.0670  0.1816
17863TIP3    H275005   2.509   6.723  13.776  0.0126  0.1940 -0.3005
17864TIP3   OH275006   1.586   3.543   1.638 -0.4024  0.0819 -0.1269
17864TIP3    H175007   1.587   3.636   1.663  0.1797  0.0842 -0.1460
17864TIP3    H275008   1.583   3.497   1.722 -1.9379  0.1163 -0.1308
17865TIP3   OH275009   6.589   1.821  11.170 -0.1099  0.2383  0.3444
17865TIP3    H175010   6.513   1.764  11.180  1.4213 -1.9326  0.4009
17865TIP3    H275011   6.629   1.793  11.088  1.2328  0.5451  0.8667
17866TIP3   OH275012   3.849   0.319  12.305 -0.2750  0.2836  0.1906
17866TIP3    H175013   3.858   0.280  12.392 -0.0962  2.6283  1.2947
17866TIP3    H275014   3.920   0.279  12.254  0.4839 -0.1413  1.5088
17867TIP3   OH275015   3.874   3.742  16.245  0.6781  0.4095  0.4958
17867TIP3    H175016   3.956   3.697  16.228  0.3697  0.1407 -0.2996
17867TIP3    H275017   3.878   3.765  16.338  2.3292  1.8059  0.1242
17868TIP3   OH275018   5.242   2.985  13.961 -0.3044 -0.5445  0.2600
17868TIP3    H175019   5.294   2.929  14.019 -0.2869 -0.2425  0.5376
17868TIP3    H275020   5.190   3.039  14.021 -0.5189 -0.4493 -0.0104
17869TIP3   OH275021   1.188   1.855  12.108 -0.0105 -0.0871  0.2541
17869TIP3    H175022   1.095   1.865  12.126 -0.3834 -1.9450 -0.4331
17869TIP3    H275023   1.192   1.826  12.017  1.2174 -0.4720  0.4139
17870TIP3   OH275024   0.385   6.181   1.423 -0.0348 -0.1110  0.5297
17870TIP3    H175025   0.383   6.274   1.446  0.3781  0.4357 -1.4212
17870TIP3    H275026   0.474   6.153   1.447  0.1545  0.2602  0.2846
17871TIP3   OH275027   3.586   2.041   6.226  0.1734 -0.2178  0.5267
17871TIP3    H175028   3.490   2.043   6.233  0.0177 -0.6927 -1.0992
17871TIP3    H275029   3.607   1.952   6.201  0.9236  0.2272 -0.4857
17872TIP3   OH275030   1.972   5.170  14.410  0.0006 -0.7260  0.1465
17872TIP3    H175031   1.885   5.160  14.371 -0.1000  0.6147 -0.0285
17872TIP3    H275032   1.984   5.265  14.416  1.1691 -0.9054  0.8099
17873TIP3   OH275033   0.866   6.126   5.658  0.2140  0.4724 -0.3029
17873TIP3    H175034   0.933   6.158   5.599  0.1838  0.3462 -0.4055
17873TIP3    H275035   0.816   6.204   5.683  0.7272  0.6491  0.1916
17874TIP3   OH275036   1.033   3.391   0.682  0.1435 -0.1839 -0.2310
17874TIP3    H175037   1.040   3.435   0.598  0.1767 -1.9423 -1.1923
17874TIP3    H275038   1.048   3.299   0.663 -0.6708 -0.7462  1.5759
17875TIP3   OH275039   4.776   2.381  13.393  0.0831 -0.1557 -0.3257
17875TIP3    H175040   4.751   2.341  13.310 -3.5723  2.0644 -0.5010
17875TIP3    H275041   4.742   2.322  13.460 -2.1007  0.7861 -0.5459
17876TIP3   OH275042   1.176   4.181   1.104 -0.2136  0.3241  0.1553
17876TIP3    H175043   1.162   4.120   1.176  0.3857  0.6335  0.5461
17876TIP3    H275044   1.090   4.194   1.066 -0.6029  0.4263  1.0410
17877TIP3   OH275045   3.791   5.899   4.998  0.2987  0.3188 -0.1220
17877TIP3    H175046   3.714   5.953   5.012  0.1706 -0.3343  1.9142
17877TIP3    H275047   3.765   5.835   4.931 -1.2922 -0.5579  1.2803
17878TIP3   OH275048   5.550   3.272  11.294 -0.5327 -0.3801  0.4450
17878TIP3    H175049   5.641   3.303  11.290 -0.1529 -1.2358  1.8097
17878TIP3    H275050   5.526   3.257  11.202 -0.0063  1.7665 -0.1022
17879TIP3   OH275051   4.988   4.840  16.492 -0.5182 -0.6141 -0.2314
17879TIP3    H175052   4.998   4.769  16.556 -0.0833  0.2803  0.7234
17879TIP3    H275053   5.014   4.800  16.409 -0.7608 -1.7090  0.1937
17880TIP3   OH275054   4.444   5.965  11.636 -0.2355  0.3124 -0.3182
17880TIP3    H175055   4.469   6.055  11.657 -0.3642  0.1447  0.5958
17880TIP3    H275056   4.508   5.938  11.571  1.6272  0.1340  1.4733
17881TIP3   OH275057   2.866   2.692  14.826 -0.1674  0.0447 -0.1053
17881TIP3    H175058   2.892   2.783  14.809  0.1391 -0.0375 -0.0858
17881TIP3    H275059   2.949   2.647  14.843 -0.4095 -0.0193  0.9227
17882TIP3   OH275060   2.494   1.148  11.495 -0.3853 -0.2680 -0.9969
17882TIP3    H175061   2.406   1.169  11.524  0.1508 -0.3509  0.8286
17882TIP3    H275062   2.501   1.186  11.408 -1.5181  1.5901 -0.3330
17883TIP3   OH275063   1.425   2.814   0.381 -0.1748  0.1859  0.5923
17883TIP3    H175064   1.351   2.839   0.436  0.2224 -0.3211  1.3732
17883TIP3    H275065   1.498   2.868   0.412  0.4055 -1.0900  1.5331
17884TIP3   OH275066   5.879   5.313  15.955  0.5334 -0.1934  0.2409
17884TIP3    H175067   5.792   5.353  15.950 -0.3081 -1.9462  0.0441
17884TIP3    H275068   5.933   5.365  15.896  0.3049  2.4408  2.1514
17885TIP3   OH275069   2.699   6.782   5.532 -0.6352  0.7857 -0.2543
17885TIP3    H175070   2.682   6.843   5.603 -0.1141  2.1201 -1.2197
17885TIP3    H275071   2.660   6.700   5.560 -1.2165  1.5176  1.1673
17886TIP3   OH275072   0.271   2.220  12.140 -0.5860  0.2224 -0.1921
17886TIP3    H175073   0.286   2.128  12.119  0.2606  0.1684  0.5579
17886TIP3    H275074   0.359   2.256  12.152 -0.9462  0.7628  0.9857
17887TIP3   OH275075   2.059   0.281   1.501 -0.2634 -0.0401  0.1087
17887TIP3    H175076   2.065   0.344   1.430 -0.0193  0.9731  1.0031
17887TIP3    H275077   1.967   0.282   1.527 -0.3029 -0.2217 -0.0224
17888TIP3   OH275078   4.931   1.338  16.310 -0.9507 -0.5092 -0.4675
17888TIP3    H175079   4.873   1.382  16.249 -2.3232 -0.8176  0.5536
17888TIP3    H275080   4.883   1.337  16.393 -0.2234 -2.2984  0.0022
17889TIP3   OH275081   3.580   0.942   0.136 -0.0634  0.3257 -0.8446
17889TIP3    H175082   3.635   1.004   0.183  0.5637 -0.4929 -0.4820
17889TIP3    H275083   3.566   0.982   0.050 -0.2567  1.2898 -0.3680
17890TIP3   OH275084   5.518   1.264   0.006 -0.0260 -0.3045  0.2160
17890TIP3    H175085   5.526   1.209  -0.072 -2.6425 -0.3039 -0.1649
17890TIP3    H275086   5.569   1.218   0.073 -1.1010 -2.5960 -0.4162
17891TIP3   OH275087   0.908   0.078  10.962  0.4278 -0.2061 -0.3402
17891TIP3    H175088   0.910  -0.018  10.965 -2.0620 -0.3187 -0.2439
17891TIP3    H275089   0.941   0.099  10.874  1.9606 -1.0591 -0.0078
17892TIP3   OH275090   5.203   6.462  16.022 -0.1508 -0.0035  0.0280
17892TIP3    H175091   5.252   6.453  15.940  0.3686  0.7743  0.2428
17892TIP3    H275092   5.170   6.551  16.021 -2.3919 -0.7633 -0.5448
17893TIP3   OH275093   2.111   5.205   0.881  0.0230  0.1780  0.0308
17893TIP3    H175094   2.130   5.184   0.789  0.7167  0.5022  0.0888
17893TIP3    H275095   2.144   5.294   0.892 -1.3214  0.6749  0.2359
17894TIP3   OH275096   6.437   3.139   4.267 -0.1052  0.4577  0.3744
17894TIP3    H175097   6.511   3.187   4.304 -0.7397  1.2481  0.6402
17894TIP3    H275098   6.412   3.077   4.336  0.2906  0.2004  0.2895
17895TIP3   OH275099   0.500   3.052   2.910  0.4065  0.0001 -0.1197
17895TIP3    H175100   0.576   3.082   2.961 -0.8119  1.0260  1.1666
17895TIP3    H275101   0.451   2.997   2.972 -0.1846 -0.2083 -0.7662
17896TIP3   OH275102   6.498   1.500  11.630  0.2895 -0.9600  0.4039
17896TIP3    H175103   6.573   1.551  11.662  0.7442 -0.5644 -1.1846
17896TIP3    H275104   6.452   1.472  11.709 -0.0876  2.0629  1.3714
17897TIP3   OH275105   6.078   0.461  15.756  0.2577 -0.0282  0.3334
17897TIP3    H175106   6.070   0.373  15.718  1.9859 -0.4806  0.9188
17897TIP3    H275107   6.153   0.455  15.815  0.7253  1.9794  0.0227
17898TIP3   OH275108   5.510   6.751   3.620 -0.0766  0.0745  0.0612
17898TIP3    H175109   5.524   6.804   3.542 -0.2882  0.7741  0.4913
17898TIP3    H275110   5.501   6.661   3.586 -1.0858  0.4764 -0.8088
17899TIP3   OH275111   0.332   6.357   0.016  0.3772 -0.3337  0.1290
17899TIP3    H175112   0.349   6.451   0.013 -0.5278 -0.1932 -0.9304
17899TIP3    H275113   0.345   6.327  -0.074  2.3895 -1.5655  0.7485
17900TIP3   OH275114   0.871   0.871   3.964 -0.2693 -0.0371  0.1320
17900TIP3    H175115   0.864   0.779   3.989 -0.6461 -0.2478 -0.7228
17900TIP3    H275116   0.848   0.919   4.043 -1.0772 -0.6802  0.3016
17901TIP3   OH275117   4.676   4.882  11.885  0.0110 -0.2265  0.5112
17901TIP3    H175118   4.584   4.861  11.867 -0.2021  0.3921  0.8285
17901TIP3    H275119   4.725   4.810  11.847 -0.6344 -0.8133  0.7619
17902TIP3   OH275120   5.289   1.711  12.169  0.5031  0.0931  0.4089
17902TIP3    H175121   5.277   1.701  12.263  0.6611 -0.1804  0.4003
17902TIP3    H275122   5.215   1.665  12.130 -0.4794  1.5935  0.4206
17903TIP3   OH275123   1.929   1.760  14.167 -0.1958  0.4453 -0.4208
17903TIP3    H175124   1.965   1.673  14.154 -1.1227 -0.3380  1.7442
17903TIP3    H275125   2.005   1.817  14.178  0.4399 -0.5940  0.8081
17904TIP3   OH275126   2.609   0.675  16.791  0.2868 -0.1466  0.7266
17904TIP3    H175127   2.634   0.684  16.699 -2.8872  0.2313 -0.2256
17904TIP3    H275128   2.692   0.681  16.839  1.8197  2.6332 -1.8776
17905TIP3   OH275129   2.856   2.163   1.909  0.5833  0.6506 -0.2678
17905TIP3    H175130   2.888   2.143   1.821  2.7174  0.2065  0.5482
17905TIP3    H275131   2.772   2.206   1.895 -0.0365 -1.1100 -2.4456
17906TIP3   OH275132   6.776   0.093  15.472  0.3234  0.0396  1.0089
17906TIP3    H175133   6.786   0.003  15.439  3.2020  1.1138 -1.4577
17906TIP3    H275134   6.722   0.136  15.406  0.2280  0.5259  1.3981
17907TIP3   OH275135   2.160   4.313   6.277 -0.0291  0.2119 -0.3303
17907TIP3    H175136   2.068   4.303   6.303 -1.0516  1.5265 -3.0316
17907TIP3    H275137   2.209   4.295   6.357 -2.7080  1.2882  1.7349
17908TIP3   OH275138   4.058   0.148  15.711  0.9503 -0.1530 -0.0900
17908TIP3    H175139   4.001   0.220  15.739 -1.0359 -1.7338  0.1324
17908TIP3    H275140   4.087   0.107  15.792  2.6188  0.7313 -0.1947
17909TIP3   OH275141   1.647   1.181  13.408  0.4410  0.1677  0.6845
17909TIP3    H175142   1.557   1.194  13.438  0.1103 -1.2651  0.3924
17909TIP3    H275143   1.702   1.209  13.482 -0.3318 -2.1995  2.2663
17910TIP3   OH275144   0.641   2.929   3.453 -0.1809 -0.0830 -0.0419
17910TIP3    H175145   0.634   2.867   3.525  2.1715  0.5020  0.7788
17910TIP3    H275146   0.630   2.877   3.374 -1.7062 -0.9118  0.6669
17911TIP3   OH275147   5.845   1.882  14.418 -0.4242  0.0220 -0.8795
17911TIP3    H175148   5.841   1.976  14.398  0.3435  0.3919  0.5508
17911TIP3    H275149   5.783   1.842  14.357 -3.5240  1.8456  0.8253
17912TIP3   OH275150   0.328   3.419  16.551  0.9255  0.5358  0.3287
17912TIP3    H175151   0.249   3.438  16.500 -0.5993  0.4745  2.5674
17912TIP3    H275152   0.390   3.386  16.486 -1.4909 -1.2225 -1.2608
17913TIP3   OH275153   0.024   0.656  15.628 -0.2140 -0.0136 -0.0414
17913TIP3    H175154   0.058   0.596  15.694  0.2424  1.2596  0.9290
17913TIP3    H275155  -0.052   0.611  15.590  1.5471 -2.2498 -1.1355
17914TIP3   OH275156   5.504   4.401   0.473 -0.1226 -0.3366  0.2289
17914TIP3    H175157   5.592   4.433   0.494  0.0782 -0.6440 -0.1491
17914TIP3    H275158   5.487   4.333   0.538 -0.9432  1.1720  1.6712
17915TIP3   OH275159   3.746   2.411   2.349 -0.4985  0.1238 -0.1325
17915TIP3    H175160   3.769   2.320   2.330 -2.6892 -0.1255 -1.9638
17915TIP3    H275161   3.686   2.405   2.424  0.0864  0.1540  0.3409
17916TIP3   OH275162   5.381   2.955   1.637  0.0889  0.7084 -0.0416
17916TIP3    H175163   5.337   2.958   1.552  0.5948 -0.3408 -0.3550
17916TIP3    H275164   5.330   3.013   1.693 -0.6783  0.8368 -0.8628
17917TIP3   OH275165   3.398   6.401  15.511 -0.0633 -0.0237  0.0363
17917TIP3    H175166   3.425   6.329  15.454  1.7651 -0.1679  0.9999
17917TIP3    H275167   3.410   6.479  15.458 -0.4302 -0.3007 -0.4625
17918TIP3   OH275168   2.475   0.691   2.270 -0.4933  0.3706  0.1875
17918TIP3    H175169   2.499   0.752   2.200 -1.1738 -0.0765 -0.4567
17918TIP3    H275170   2.544   0.701   2.336  1.8181 -1.2603 -1.8063
17919TIP3   OH275171   4.574   4.950   1.268  0.3520 -0.5966 -0.6737
17919TIP3    H175172   4.508   4.882   1.277 -1.4236  1.1256 -0.0171
17919TIP3    H275173   4.560   5.008   1.343  1.6002  0.6640 -1.3467
17920TIP3   OH275174   4.404   5.200  11.278  0.4781 -0.7220 -0.6827
17920TIP3    H175175   4.313   5.202  11.308 -0.5433 -2.4579 -3.2792
17920TIP3    H275176   4.437   5.288  11.297 -1.9335  0.1844 -0.2160
17921TIP3   OH275177   1.372   0.964   1.989 -0.3284 -0.1025  0.1058
17921TIP3    H175178   1.333   0.919   2.064 -2.8406  1.5900 -0.0304
17921TIP3    H275179   1.430   1.030   2.029 -1.5438  0.6976  0.6236
17922TIP3   OH275180   4.588   5.523  12.713  0.2553 -0.7270  0.2426
17922TIP3    H175181   4.574   5.453  12.650  0.1122 -0.7330  0.2814
17922TIP3    H275182   4.500   5.553  12.736  0.3404  0.4195 -0.8299
17923TIP3   OH275183   4.212   0.664  11.644 -0.4600 -0.2438  0.5244
17923TIP3    H175184   4.239   0.745  11.687 -2.2520  0.3605  0.5796
17923TIP3    H275185   4.181   0.691  11.558 -0.0644 -1.0256  0.1220
17924TIP3   OH275186   0.272   5.830  13.032  0.4581  0.4677  0.7576
17924TIP3    H175187   0.230   5.906  12.991 -1.7387 -1.2302 -0.3536
17924TIP3    H275188   0.355   5.820  12.986 -0.0492  1.1403 -0.3282
17925TIP3   OH275189   6.036   6.189   4.611 -0.4163 -0.0488 -0.9658
17925TIP3    H175190   6.064   6.130   4.681 -0.0339  0.9485 -0.2549
17925TIP3    H275191   6.101   6.260   4.612 -1.8640  1.3329 -0.5625
17926TIP3   OH275192   1.575   5.882   5.534 -0.3109 -0.0142 -0.0585
17926TIP3    H175193   1.627   5.946   5.583  0.9203  0.4425 -1.8408
17926TIP3    H275194   1.638   5.842   5.474 -1.6656 -0.8197 -0.9832
17927TIP3   OH275195   0.218   0.401   6.009 -0.0493 -0.5230  0.0146
17927TIP3    H175196   0.180   0.488   6.006  1.3374  0.0985 -0.6191
17927TIP3    H275197   0.197   0.363   5.923  0.7501 -0.1634 -0.3521
17928TIP3   OH275198   0.670   2.676   5.403 -0.3693  0.1999  0.6609
17928TIP3    H175199   0.615   2.654   5.327  0.8464  1.3325 -0.6017
17928TIP3    H275200   0.626   2.752   5.442 -0.3778  0.3277  0.4054
17929TIP3   OH275201   1.923   4.022   1.382 -0.3586 -0.1498 -0.3726
17929TIP3    H175202   1.955   4.097   1.432 -1.2285 -0.1531  0.2142
17929TIP3    H275203   1.969   3.947   1.419  0.5495  0.0974 -0.9936
17930TIP3   OH275204   2.882   1.202  14.708 -0.2746  0.5105 -0.1412
17930TIP3    H175205   2.866   1.267  14.640  0.6180  0.3953 -0.4826
17930TIP3    H275206   2.817   1.220  14.776 -0.8100  0.9867 -0.7729
17931TIP3   OH275207   4.810   2.598  17.070  0.2734 -0.5320 -0.0825
17931TIP3    H175208   4.781   2.508  17.083 -1.0858 -0.0772  0.1973
17931TIP3    H275209   4.830   2.630  17.158  1.4148 -0.7471 -0.2429
17932TIP3   OH275210   4.705   0.200  12.090  0.2911  0.0371 -0.0316
17932TIP3    H175211   4.765   0.228  12.020  1.7327  1.7012  1.7616
17932TIP3    H275212   4.675   0.281  12.130 -1.8939 -0.8296  0.2243
17933TIP3   OH275213   1.873   4.963   1.964 -0.1325  0.6300 -0.1355
17933TIP3    H175214   1.784   5.000   1.960  0.2699  1.6884  0.4710
17933TIP3    H275215   1.903   4.964   1.873  0.0920  2.4037 -0.0755
17934TIP3   OH275216   4.565   4.378   2.117 -0.1361 -0.1114 -0.5587
17934TIP3    H175217   4.525   4.436   2.182  0.3728 -0.1889 -0.1628
17934TIP3    H275218   4.579   4.296   2.165  0.6409 -0.0305 -0.6298
17935TIP3   OH275219   4.220   4.811   5.191  0.0690  0.0890  0.5791
17935TIP3    H175220   4.176   4.778   5.270  0.9653 -0.7188  0.7615
17935TIP3    H275221   4.202   4.745   5.124  1.4032 -0.5253  0.7924
17936TIP3   OH275222   0.573   2.212  12.233 -0.3956 -0.5300  0.4017
17936TIP3    H175223   0.548   2.171  12.315  2.8378 -2.0650  0.8023
17936TIP3    H275224   0.625   2.146  12.187  1.9041  1.7900 -0.6652
17937TIP3   OH275225   5.649   5.011  11.354  0.1546 -0.1134  0.0091
17937TIP3    H175226   5.704   5.034  11.428 -0.4606 -0.2622  0.5278
17937TIP3    H275227   5.561   5.041  11.379  0.1402  0.9079 -1.1668
17938TIP3   OH275228   2.414   5.252  16.735  0.1788  0.3464  0.1529
17938TIP3    H175229   2.495   5.255  16.787  1.8972  0.8814 -2.3737
17938TIP3    H275230   2.430   5.184  16.670 -1.2520  0.7661 -0.6749
17939TIP3   OH275231   5.183   5.135  15.036  1.0146  0.2488 -0.4828
17939TIP3    H175232   5.115   5.112  14.973  2.0377 -1.6632 -0.9722
17939TIP3    H275233   5.172   5.071  15.107  1.4171  0.8263  0.1140
17940TIP3   OH275234   6.194   1.132  14.107 -0.0422 -0.7147 -0.3557
17940TIP3    H175235   6.236   1.132  14.021  0.6990 -0.2421 -0.0064
17940TIP3    H275236   6.102   1.147  14.088  0.3133  0.8869 -1.0007
17941TIP3   OH275237   1.094   3.423  12.422 -0.0578  0.2136 -0.1371
17941TIP3    H175238   1.147   3.464  12.491 -0.4782 -0.5208  0.6427
17941TIP3    H275239   1.007   3.416  12.461 -0.4159  0.2040 -0.9267
17942TIP3   OH275240   1.746   4.802   2.998 -0.2948  0.8204  0.2032
17942TIP3    H175241   1.693   4.869   2.956 -0.2821 -0.7065 -2.5074
17942TIP3    H275242   1.686   4.730   3.015  0.3623  0.1250 -0.3380
17943TIP3   OH275243   2.499   0.438  15.120  0.4210  0.5986 -0.3056
17943TIP3    H175244   2.504   0.399  15.207  0.3726 -1.0951 -1.0179
17943TIP3    H275245   2.590   0.446  15.092  0.4494  1.3903 -0.0140
17944TIP3   OH275246   2.515   5.351  13.795 -0.2231  0.2141 -0.2506
17944TIP3    H175247   2.508   5.346  13.890  1.2496 -1.3430 -0.1800
17944TIP3    H275248   2.596   5.399  13.780  0.1814 -0.5967 -0.6972
17945TIP3   OH275249   0.539   5.173   3.358 -0.1788 -0.4128 -0.1807
17945TIP3    H175250   0.464   5.142   3.308 -0.4948 -0.8901  0.5648
17945TIP3    H275251   0.500   5.211   3.437  0.4140 -2.4257  1.1586
17946TIP3   OH275252   3.016   3.431   1.894  0.1176  0.4237 -0.0798
17946TIP3    H175253   3.085   3.496   1.875  0.0510  0.3436 -0.5983
17946TIP3    H275254   3.043   3.393   1.978  0.4700  0.7092 -0.0565
17947TIP3   OH275255   2.690   4.901  16.520 -0.1829  0.0228 -0.6261
17947TIP3    H175256   2.704   4.811  16.552  1.3178  0.3183 -0.3955
17947TIP3    H275257   2.664   4.950  16.598 -1.9072 -0.3501 -0.9063
17948TIP3   OH275258   0.548   0.666  13.287  0.5005  0.6322  0.1742
17948TIP3    H175259   0.637   0.668  13.324 -0.5438 -0.1510  2.9967
17948TIP3    H275260   0.536   0.576  13.259 -0.0702  0.1892  1.7447
17949TIP3   OH275261   1.822   2.673   2.180 -0.0659  0.1243 -0.3361
17949TIP3    H175262   1.750   2.621   2.146  0.0846  0.1867 -0.7596
17949TIP3    H275263   1.827   2.651   2.272 -0.5967  0.0829 -0.3154
17950TIP3   OH275264   0.251   0.721  11.590 -0.4043 -0.0687 -0.7775
17950TIP3    H175265   0.162   0.689  11.605 -0.0093 -0.3347  1.1515
17950TIP3    H275266   0.265   0.787  11.657  1.4836 -1.3632  0.2162
17951TIP3   OH275267   6.431   2.082   3.360  0.3946  0.4318  0.0010
17951TIP3    H175268   6.470   2.153   3.309  1.3535 -0.2438 -0.2325
17951TIP3    H275269   6.502   2.019   3.373  0.6289  1.1983  3.3841
17952TIP3   OH275270   3.277   1.062   5.108  0.5627 -0.3859 -0.1945
17952TIP3    H175271   3.316   1.120   5.042 -0.1098 -1.1667 -1.3077
17952TIP3    H275272   3.193   1.036   5.070  0.1014 -0.7500  1.0452
17953TIP3   OH275273   6.348   1.212  14.938  0.2713  0.2387  0.4452
17953TIP3    H175274   6.421   1.179  14.886 -1.0762 -0.3979 -1.0969
17953TIP3    H275275   6.339   1.304  14.911  0.3147  0.2336  0.4143
17954TIP3   OH275276   1.477   0.481   5.914 -0.4784  0.2951 -0.9250
17954TIP3    H175277   1.485   0.455   6.006 -0.7894 -0.6852 -1.1596
17954TIP3    H275278   1.396   0.533   5.911 -1.3647 -1.0390 -0.9141
17955TIP3   OH275279   5.632   6.694   3.214 -0.5543  0.5173 -0.0348
17955TIP3    H175280   5.646   6.617   3.268 -2.4038 -0.9375 -1.5002
17955TIP3    H275281   5.689   6.681   3.138 -0.1987  1.0508  0.1369
17956TIP3   OH275282   3.192   5.070  14.712  0.4233  0.6498  0.4543
17956TIP3    H175283   3.152   5.055  14.797 -0.5891  3.2111  0.5211
17956TIP3    H275284   3.227   5.159  14.716  0.5569  0.7680 -1.7035
17957TIP3   OH275285   4.636   0.832  16.909 -0.0399  0.5438 -1.0051
17957TIP3    H175286   4.722   0.849  16.872 -0.8864  2.0165 -2.4608
17957TIP3    H275287   4.606   0.753  16.866  0.8982 -0.4814  0.1566
17958TIP3   OH275288   3.491   4.545   3.276 -0.1032 -0.3192  0.8180
17958TIP3    H175289   3.533   4.461   3.296  0.8018 -0.1999 -0.4888
17958TIP3    H275290   3.402   4.536   3.311 -0.4373 -2.3263 -0.3949
17959TIP3   OH275291   5.236   6.069   1.432 -0.1847 -0.1746  0.0051
17959TIP3    H175292   5.304   6.002   1.433  1.7702  1.6797 -0.4197
17959TIP3    H275293   5.267   6.134   1.369 -1.4309  1.6400  1.1444
17960TIP3   OH275294   3.851   0.791  14.935  0.2340  0.3318 -0.0620
17960TIP3    H175295   3.901   0.756  15.008  2.2052  0.9018 -1.0512
17960TIP3    H275296   3.828   0.880  14.962  1.7699  0.8775 -0.4427
17961TIP3   OH275297   5.604   3.942   5.345 -0.2706 -0.1447  0.2703
17961TIP3    H175298   5.574   4.025   5.383  1.5294  1.1374 -0.9307
17961TIP3    H275299   5.541   3.924   5.275  0.3926  1.2920 -0.7450
17962TIP3   OH275300   1.546   4.715  13.752  0.1135 -0.3354 -0.5044
17962TIP3    H175301   1.470   4.697  13.696 -0.2988 -1.8560  0.4768
17962TIP3    H275302   1.547   4.642  13.814 -0.5818  2.2199  2.7457
17963TIP3   OH275303   3.627   5.502   0.905  0.6377  0.1250  0.5012
17963TIP3    H175304   3.592   5.481   0.991  1.5888 -1.1884  0.5938
17963TIP3    H275305   3.575   5.577   0.875  1.2422  1.5419  2.8023
17964TIP3   OH275306   0.052   0.819  12.751 -0.3312  0.4941 -0.2754
17964TIP3    H175307   0.033   0.754  12.683 -1.6319  1.2639 -0.6793
17964TIP3    H275308   0.147   0.816  12.762 -0.3416 -1.3920 -0.3676
17965TIP3   OH275309   2.046   2.295  12.076 -0.1003  1.0411  0.3908
17965TIP3    H175310   2.085   2.379  12.099 -1.2039  1.6017  0.2673
17965TIP3    H275311   2.034   2.251  12.161  0.3420  1.0643  0.4673
17966TIP3   OH275312   4.907   5.981   1.215 -0.2310 -0.5004  0.0193
17966TIP3    H175313   4.899   6.066   1.259 -0.6558  0.1741 -1.3228
17966TIP3    H275314   4.892   5.917   1.285  0.6652  0.5035  1.1715
17967TIP3   OH275315   5.895   6.014  16.599 -0.2486 -0.1623  0.9598
17967TIP3    H175316   5.947   6.015  16.679  0.5608 -0.8152  0.4514
17967TIP3    H275317   5.806   6.031  16.628  0.3033  1.4831  1.7961
17968TIP3   OH275318   5.510   2.484   0.376  0.1155  0.5602  0.3471
17968TIP3    H175319   5.516   2.536   0.296 -2.1275 -1.3244 -1.1657
17968TIP3    H275320   5.416   2.475   0.392  0.4503 -1.6091  1.4809
17969TIP3   OH275321   1.000   3.129   4.699  0.3975  0.5245 -0.2765
17969TIP3    H175322   0.958   3.172   4.624 -0.1874  0.2420 -0.1177
17969TIP3    H275323   1.075   3.083   4.661 -1.1447 -1.4630 -1.0977
17970TIP3   OH275324   1.165   1.875   4.959  0.2961 -0.7437  0.1116
17970TIP3    H175325   1.109   1.812   5.004 -1.5840  0.2818 -0.7009
17970TIP3    H275326   1.219   1.914   5.028 -1.1163 -0.6184  1.1766
17971TIP3   OH275327   5.870   5.896  16.349  0.3118 -0.3659  0.2304
17971TIP3    H175328   5.853   5.946  16.429 -1.7533  2.1570 -1.6266
17971TIP3    H275329   5.783   5.884  16.310  1.1215 -2.6872 -1.0427
17972TIP3   OH275330   6.720   5.691  11.994 -0.5901 -0.3893 -0.0979
17972TIP3    H175331   6.811   5.692  11.965 -0.3388  0.2180  0.6854
17972TIP3    H275332   6.687   5.606  11.965 -0.4061  0.2005 -2.2695
17973TIP3   OH275333   6.110   0.594   3.907 -0.2055 -0.4089  0.3237
17973TIP3    H175334   6.186   0.543   3.935 -0.1889 -0.6630 -0.1717
17973TIP3    H275335   6.119   0.677   3.954  1.8262  0.6041 -1.6294
17974TIP3   OH275336   2.919   1.577   1.215 -0.5818 -0.4814 -0.0802
17974TIP3    H175337   2.942   1.637   1.144 -2.6589  0.4408 -0.0607
17974TIP3    H275338   2.964   1.495   1.194  0.3178  0.3331 -1.4491
17975TIP3   OH275339   4.922   1.289  13.872  0.2162  0.1551 -0.6879
17975TIP3    H175340   4.924   1.304  13.966 -0.5459 -0.2498 -0.6001
17975TIP3    H275341   4.865   1.213  13.861  1.1728 -0.4919 -1.3899
17976TIP3   OH275342   2.223   6.703   2.016 -0.0204  0.2846 -0.5096
17976TIP3    H175343   2.200   6.645   1.943  0.2152  0.2506 -0.5552
17976TIP3    H275344   2.140   6.746   2.038 -0.4471 -0.8641  0.2329
17977TIP3   OH275345   4.500   2.223   2.152  0.1063 -0.2392 -0.3025
17977TIP3    H175346   4.429   2.263   2.102  1.3236  1.0691 -1.0385
17977TIP3    H275347   4.564   2.293   2.165  0.3753 -0.8265  2.1483
17978TIP3   OH275348   1.661   3.983   1.516 -0.2016  0.6015 -0.0527
17978TIP3    H175349   1.722   4.004   1.445  1.1203  0.5420  1.0158
17978TIP3    H275350   1.715   3.984   1.595 -1.1160 -1.6960  0.6899
17979TIP3   OH275351   0.531   1.284   2.031  0.0203 -0.3866  0.6549
17979TIP3    H175352   0.567   1.372   2.020  0.1750 -0.5987 -0.6024
17979TIP3    H275353   0.535   1.269   2.126 -2.0337  1.7982  1.1956
17980TIP3   OH275354   4.939   2.400   6.046  0.3477 -0.1174 -0.1471
17980TIP3    H175355   4.868   2.344   6.078  2.0006 -1.3474  1.6116
17980TIP3    H275356   4.903   2.488   6.047 -1.6783 -0.8875 -0.9951
17981TIP3   OH275357   0.342   4.355  14.149  0.0877 -0.0844  0.5125
17981TIP3    H175358   0.284   4.393  14.084  2.8993  1.4150 -1.3318
17981TIP3    H275359   0.380   4.279  14.106  0.4100 -0.3413  1.2249
17982TIP3   OH275360   3.957   3.512   2.554  0.0632  0.1607 -0.0390
17982TIP3    H175361   3.949   3.545   2.464  1.6754  0.7101 -0.0072
17982TIP3    H275362   3.952   3.591   2.609 -3.6474 -0.3658  0.6314
17983TIP3   OH275363   4.669   4.376  15.736 -0.6348  1.3717  0.1414
17983TIP3    H175364   4.652   4.318  15.810 -0.3499  2.7461  1.3301
17983TIP3    H275365   4.716   4.451  15.773 -2.9074  3.4700 -0.8493
17984TIP3   OH275366   1.380   5.951   3.336  0.1344 -0.0030  0.2653
17984TIP3    H175367   1.362   5.886   3.404  0.4231 -1.8159 -1.3238
17984TIP3    H275368   1.348   5.912   3.255  1.8877  1.0805 -1.0333
17985TIP3   OH275369   3.492   3.017  12.010 -0.2701  0.4782 -0.4192
17985TIP3    H175370   3.538   3.078  12.067 -0.1162 -0.2006  0.1935
17985TIP3    H275371   3.559   2.954  11.983 -0.4671  0.4651 -0.8959
17986TIP3   OH275372   1.260   6.270   3.356 -0.4557  0.3696  0.5848
17986TIP3    H175373   1.300   6.290   3.272 -2.0785  0.1969 -0.2623
17986TIP3    H275374   1.264   6.174   3.363 -1.7663  0.2351 -0.0918
17987TIP3   OH275375   6.754   1.179  12.027  0.5289 -0.8476 -0.2633
17987TIP3    H175376   6.662   1.205  12.019  0.6728 -0.6617 -1.6213
17987TIP3    H275377   6.767   1.119  11.953  1.0429 -2.2886  0.9528
17988TIP3   OH275378   2.272   2.449   1.686  0.0789  0.1354 -0.2928
17988TIP3    H175379   2.367   2.443   1.679  0.0122 -1.3748 -0.1560
17988TIP3    H275380   2.239   2.424   1.600 -0.2093  1.1799 -0.5110
17989TIP3   OH275381   6.498   0.974  13.430  0.2108  1.0062  0.4505
17989TIP3    H175382   6.430   1.022  13.383 -1.5640 -1.8354 -0.1407
17989TIP3    H275383   6.578   0.991  13.380 -0.9139  1.0335 -1.4479
17990TIP3   OH275384   4.253   3.516  13.731  0.3908 -0.2475 -0.1409
17990TIP3    H175385   4.165   3.550  13.714  0.3341 -0.2368  0.1580
17990TIP3    H275386   4.239   3.424  13.755  0.3144  0.0964  1.2438
17991TIP3   OH275387   5.256   1.381  14.400 -0.4421 -0.6685 -0.4624
17991TIP3    H175388   5.202   1.457  14.423 -2.5636 -2.0762 -0.4942
17991TIP3    H275389   5.233   1.315  14.465  0.3359 -1.7328 -1.2342
17992TIP3   OH275390   6.739   4.020  16.113 -0.2843  0.1316  0.1090
17992TIP3    H175391   6.693   3.959  16.055  0.5995 -0.5127  0.0642
17992TIP3    H275392   6.827   3.984  16.121  0.6895  2.0822 -0.9589
17993TIP3   OH275393   5.462   3.418   5.595  0.4169 -0.0535  0.3379
17993TIP3    H175394   5.531   3.469   5.637 -1.3918  1.0395  2.1792
17993TIP3    H275395   5.421   3.479   5.534  1.3635 -0.8682 -1.1789
17994TIP3   OH275396   0.317   4.478   1.534 -0.2825  0.0626  0.2744
17994TIP3    H175397   0.405   4.443   1.519 -0.7357 -0.8799 -0.2399
17994TIP3    H275398   0.263   4.402   1.551 -0.6873  0.7551  2.4097
17995TIP3   OH275399   0.437   2.451   2.361  0.1566  0.3952  0.9494
17995TIP3    H175400   0.521   2.471   2.402  0.3095  2.2826 -0.1904
17995TIP3    H275401   0.455   2.376   2.304  0.7122 -0.1082  1.7620
17996TIP3   OH275402   3.553   1.587  16.197  0.2790  0.8353 -0.3265
17996TIP3    H175403   3.483   1.524  16.178 -0.1411  1.4076 -0.6975
17996TIP3    H275404   3.573   1.574  16.289  0.1855  0.1670 -0.3937
17997TIP3   OH275405   6.221   5.152  14.861 -0.1992 -0.0443 -0.3140
17997TIP3    H175406   6.256   5.065  14.884 -0.4612  0.1727  1.0246
17997TIP3    H275407   6.131   5.135  14.834  0.3176 -0.3867 -1.9502
17998TIP3   OH275408   5.337   2.963   2.051  0.0022 -0.4338 -0.4527
17998TIP3    H175409   5.322   2.888   1.993  2.3899 -0.3374 -1.3023
17998TIP3    H275410   5.411   3.009   2.013 -1.5966  2.6334 -0.1329
17999TIP3   OH275411   5.908   5.469  12.417 -0.1148 -0.1348 -0.2007
17999TIP3    H175412   5.979   5.416  12.452 -0.2180  0.4301  0.9174
17999TIP3    H275413   5.945   5.513  12.341  1.5866  2.1554  1.8138
18000TIP3   OH275414   4.113   4.353   5.681  0.2923 -0.5604  0.4973
18000TIP3    H175415   4.122   4.363   5.776 -0.9132 -0.9805  0.6756
18000TIP3    H275416   4.019   4.342   5.667  0.2570  1.1540 -0.9293
18001TIP3   OH275417   0.247   0.731   5.424  0.2752 -0.7879 -0.0851
18001TIP3    H175418   0.227   0.654   5.477  1.3982 -0.7571  0.4031
18001TIP3    H275419   0.272   0.798   5.487  1.6447 -0.7495 -0.6361
18002TIP3   OH275420   6.616   5.494  14.779  0.3233 -0.0756 -0.8241
18002TIP3    H175421   6.709   5.481  14.798  0.4273  0.0584 -1.2467
18002TIP3    H275422   6.574   5.413  14.810  0.2944  0.6393  1.2128
18003TIP3   OH275423   0.187   2.452  15.432 -0.4941 -0.8514 -0.2601
18003TIP3    H175424   0.164   2.485  15.346  1.7327  0.5897 -0.3959
18003TIP3    H275425   0.162   2.521  15.493  1.5143 -0.0572 -0.2379
18004TIP3   OH275426   2.161   6.552  13.304 -0.5960  0.2146  1.4335
18004TIP3    H175427   2.125   6.470  13.337  1.7138 -1.1456  0.8023
18004TIP3    H275428   2.255   6.548  13.325 -0.1608  2.0728  0.1610
18005TIP3   OH275429   0.446   3.236   4.896  0.7328 -0.0023 -0.0327
18005TIP3    H175430   0.443   3.242   4.992  1.4153  1.0196 -0.0602
18005TIP3    H275431   0.417   3.147   4.877 -0.1216  0.0146  1.0828
18006TIP3   OH275432   5.508   1.881  12.846 -0.4397 -0.4756  0.3353
18006TIP3    H175433   5.421   1.919  12.858 -0.0351  0.1073  1.7091
18006TIP3    H275434   5.534   1.852  12.934 -0.1169 -2.6413 -0.4074
18007TIP3   OH275435   4.403   0.196  13.383 -0.0664 -0.6560 -0.5388
18007TIP3    H175436   4.426   0.284  13.351 -0.2152 -0.1408  0.7145
18007TIP3    H275437   4.318   0.207  13.424  0.7403 -0.9487  1.3128
18008TIP3   OH275438   1.470   2.669   2.090  0.4371  0.4444  0.2371
18008TIP3    H175439   1.472   2.715   2.173  0.3359  0.1543  0.4029
18008TIP3    H275440   1.420   2.725   2.031  0.0558  0.4047  0.5199
18009TIP3   OH275441   1.974   5.609   1.771 -0.5028  0.2739  0.0474
18009TIP3    H175442   1.948   5.700   1.783  0.4126  0.7863 -1.5379
18009TIP3    H275443   1.897   5.558   1.796 -2.0617  1.5950 -1.7294
18010TIP3   OH275444   3.769   3.206   1.142 -0.7019 -0.1414 -0.3181
18010TIP3    H175445   3.691   3.204   1.198 -1.5759 -1.0689 -1.5225
18010TIP3    H275446   3.751   3.277   1.080 -0.4793 -0.2063 -0.4562
18011TIP3   OH275447   4.665   2.595  13.185 -0.0147 -0.4925 -0.0508
18011TIP3    H175448   4.646   2.566  13.275  2.0780 -1.2052  0.2090
18011TIP3    H275449   4.688   2.687  13.194  1.1498 -0.8002  0.3266
18012TIP3   OH275450   0.639   4.620   5.034 -0.1038  0.6187 -0.2611
18012TIP3    H175451   0.709   4.663   5.083 -1.4561  1.7563  0.7422
18012TIP3    H275452   0.570   4.606   5.098 -1.1548  0.3598 -1.4236
18013TIP3   OH275453   4.336   1.114   0.908 -0.3993 -0.8293  0.2939
18013TIP3    H175454   4.429   1.094   0.922  0.3292  0.0623 -2.4468
18013TIP3    H275455   4.330   1.128   0.813 -2.5385  3.0489  0.8448
18014TIP3   OH275456   4.030   5.116  13.235 -0.3899 -0.0166 -0.5224
18014TIP3    H175457   4.070   5.165  13.163 -0.2438  0.7962  0.0977
18014TIP3    H275458   4.093   5.046  13.254  0.9639  1.4305  0.6493
18015TIP3   OH275459   2.099   3.205   4.018 -0.2690  0.2727  0.5924
18015TIP3    H175460   2.173   3.166   3.971 -1.1471 -0.0323 -0.5857
18015TIP3    H275461   2.139   3.270   4.076  0.8744  0.5419 -0.4572
18016TIP3   OH275462   0.578   2.298   1.719  0.1522  0.5775  0.5837
18016TIP3    H175463   0.656   2.248   1.693  0.3779  1.3357 -0.2423
18016TIP3    H275464   0.557   2.352   1.643 -1.9085 -0.4655  0.3266
18017TIP3   OH275465   1.576   3.294   0.077  0.3696 -0.6422 -0.5407
18017TIP3    H175466   1.634   3.346   0.022  0.9008 -1.0573 -0.3722
18017TIP3    H275467   1.613   3.303   0.165  0.7749 -1.7398 -0.5946
18018TIP3   OH275468   1.821   0.837  10.113 -0.4462  0.3902  0.4879
18018TIP3    H175469   1.886   0.772  10.138 -0.2163 -1.4468 -3.9477
18018TIP3    H275470   1.866   0.894  10.050 -2.9722 -1.4086 -3.3444
18019TIP3   OH275471   6.520   0.142  14.046  0.3572 -0.9411 -0.3506
18019TIP3    H175472   6.562   0.059  14.022  0.7016 -0.9832  0.3833
18019TIP3    H275473   6.584   0.185  14.103 -0.7594 -1.1911  1.1290
18020TIP3   OH275474   6.776   1.680  14.801 -0.4005  0.3010  0.1832
18020TIP3    H175475   6.700   1.623  14.790  1.7789 -2.9502  0.5332
18020TIP3    H275476   6.795   1.678  14.895 -0.3496  1.8044  0.2329
18021TIP3   OH275477   4.512   1.109  13.350 -0.2371 -0.5871 -0.0572
18021TIP3    H175478   4.494   1.198  13.321  1.1949 -0.0258  0.6835
18021TIP3    H275479   4.528   1.060  13.269  0.6161  0.2185 -0.3807
18022TIP3   OH275480   6.013   6.739   1.170  0.1706 -0.3461  0.0049
18022TIP3    H175481   5.948   6.804   1.193 -1.9639 -1.2560 -2.8900
18022TIP3    H275482   6.095   6.788   1.162 -1.0663  1.7358 -0.6156
18023TIP3   OH275483   5.984   4.035  13.495  0.5843  0.1609  0.2015
18023TIP3    H175484   5.914   4.093  13.524  0.1658 -0.2331 -0.0110
18023TIP3    H275485   6.065   4.077  13.527  0.2505  0.5737  0.5144
18024TIP3   OH275486   3.082   1.710  10.767  0.6625 -0.3536 -0.5173
18024TIP3    H175487   3.050   1.651  10.700  0.8245 -0.9855 -0.0481
18024TIP3    H275488   3.012   1.714  10.832  0.3324  0.5847 -0.9176
18025TIP3   OH275489   1.509   2.734  11.908 -0.3352  0.6170 -0.3417
18025TIP3    H175490   1.530   2.783  11.987  1.3175  1.4098 -1.2114
18025TIP3    H275491   1.547   2.647  11.924 -0.0439  0.7598 -0.2368
18026TIP3   OH275492   5.308   6.007   6.451  0.1934  0.0489  0.3754
18026TIP3    H175493   5.263   6.024   6.533 -0.8069  0.4493 -0.2423
18026TIP3    H275494   5.353   5.923   6.465  1.4549  0.9141  1.8965
18027TIP3   OH275495   1.566   6.139   3.417 -0.0801 -0.0598 -0.5067
18027TIP3    H175496   1.653   6.101   3.406  0.3447  1.0115 -1.0368
18027TIP3    H275497   1.507   6.077   3.374  0.5595 -0.2578 -1.1215
18028TIP3   OH275498   4.785   4.404   2.920 -0.3736  0.3158 -0.0593
18028TIP3    H175499   4.801   4.344   2.847 -1.1087 -0.3109  0.2846
18028TIP3    H275500   4.703   4.447   2.898  0.0240  1.0301 -0.1812
18029TIP3   OH275501   6.427   5.803   3.138  0.5664 -0.0451 -0.0467
18029TIP3    H175502   6.449   5.844   3.055 -1.1731  1.2692  0.1021
18029TIP3    H275503   6.474   5.855   3.204  0.0061  0.4522 -0.0298
18030TIP3   OH275504   6.228   6.436   2.525  0.8517  0.1739 -0.4276
18030TIP3    H175505   6.210   6.493   2.599  1.3414 -0.6567  0.3486
18030TIP3    H275506   6.310   6.469   2.489 -0.0781  1.4413 -1.4834
18031TIP3   OH275507   6.083   1.602  15.299 -0.1325  0.3177  0.0905
18031TIP3    H175508   6.032   1.537  15.347  0.1330 -0.4201 -0.6158
18031TIP3    H275509   6.149   1.632  15.362 -0.0171 -0.3711  0.3090
18032TIP3   OH275510   6.360   3.745   5.569  0.5236  0.5021 -0.0721
18032TIP3    H175511   6.314   3.735   5.486  0.3170  1.0398 -0.0278
18032TIP3    H275512   6.301   3.707   5.634  1.6486 -1.9977 -0.4182
18033TIP3   OH275513   0.360   1.322   1.325  0.0262  0.3156  0.6693
18033TIP3    H175514   0.281   1.288   1.366  0.1743  1.4000  1.9372
18033TIP3    H275515   0.413   1.355   1.398  1.2965  0.3171 -0.2179
18034TIP3   OH275516   1.036   5.600  15.341  0.0001  0.4738  0.6451
18034TIP3    H175517   1.049   5.506  15.354  0.9263  0.6162  0.8208
18034TIP3    H275518   0.985   5.606  15.260 -0.6042 -0.1974  0.9673
18035TIP3   OH275519   2.768   1.070  11.551  0.4702 -0.6009 -0.1002
18035TIP3    H175520   2.807   1.122  11.480 -0.7513 -1.4226 -1.4450
18035TIP3    H275521   2.677   1.098  11.553  0.7172  0.2188  1.9755
18036TIP3   OH275522   5.274   6.379  16.289  0.2909  0.3419  0.1579
18036TIP3    H175523   5.245   6.411  16.203 -0.7717 -3.2637 -0.9823
18036TIP3    H275524   5.195   6.343  16.329  0.9618  1.1520  2.3560
18037TIP3   OH275525   4.806   4.791   4.752 -0.1697  0.3771  0.4684
18037TIP3    H175526   4.821   4.702   4.785 -1.5057  0.4753  1.3722
18037TIP3    H275527   4.842   4.789   4.663  0.4303 -0.8684  0.7146
18038TIP3   OH275528   0.327   1.785  14.707  0.5594 -0.3790  0.2150
18038TIP3    H175529   0.331   1.774  14.802 -1.1203 -2.2456  0.1412
18038TIP3    H275530   0.306   1.698  14.674  1.3249  0.1774 -1.9197
18039TIP3   OH275531   0.259   2.141   3.746 -0.1265  0.9062 -0.1051
18039TIP3    H175532   0.289   2.231   3.753  0.5703  0.5653  2.4262
18039TIP3    H275533   0.216   2.136   3.661 -0.8789  3.8129  0.0028
18040TIP3   OH275534   2.295   3.375   1.467 -1.0694  0.2381  0.0038
18040TIP3    H175535   2.345   3.337   1.540 -2.0557 -2.5394 -0.6524
18040TIP3    H275536   2.355   3.439   1.428  0.6493 -0.4649  1.3423
18041TIP3   OH275537   5.066   4.207   2.130  0.2504 -0.3055 -0.2945
18041TIP3    H175538   5.017   4.238   2.054  1.6638  1.5924 -0.4967
18041TIP3    H275539   5.114   4.131   2.098 -0.2837 -0.4040 -0.8769
18042TIP3   OH275540   1.493   6.651  15.533  0.3628 -0.1269  0.4862
18042TIP3    H175541   1.582   6.660  15.498 -0.1484 -1.5942 -1.3577
18042TIP3    H275542   1.487   6.719  15.600  3.0111 -0.2692  0.9979
18043TIP3   OH275543   2.414   2.456   2.194  0.0203  0.1298 -0.0133
18043TIP3    H175544   2.500   2.438   2.232 -0.1952  2.5053  1.8158
18043TIP3    H275545   2.353   2.452   2.268 -1.0930  0.6905 -0.8672
18044TIP3   OH275546   3.441   6.313  14.266 -0.1966 -0.7124 -0.1310
18044TIP3    H175547   3.351   6.284  14.275 -0.9468  0.9796 -1.5569
18044TIP3    H275548   3.486   6.277  14.343 -2.1273 -1.3287  0.7721
18045TIP3   OH275549   0.292   4.224   5.107 -0.6408 -0.4786  0.4214
18045TIP3    H175550   0.222   4.161   5.091 -0.7279 -0.4541  0.6935
18045TIP3    H275551   0.323   4.249   5.020 -0.3719 -1.1500  0.3183
18046TIP3   OH275552   1.642   4.562   2.385 -0.0492 -0.1818  0.0724
18046TIP3    H175553   1.611   4.482   2.342 -0.1421 -0.5010  0.7116
18046TIP3    H275554   1.736   4.548   2.395 -0.2519 -0.8029  1.3516
18047TIP3   OH275555   5.520   2.401   5.763 -0.0447 -0.4280 -1.0943
18047TIP3    H175556   5.586   2.349   5.718  1.9075  0.6682  0.3273
18047TIP3    H275557   5.571   2.466   5.812 -2.2403  1.0045 -0.5829
18048TIP3   OH275558   0.544   3.341   0.019 -0.1458 -0.2323  0.4727
18048TIP3    H175559   0.480   3.271   0.002  0.2692 -0.8176  1.2629
18048TIP3    H275560   0.490   3.414   0.050 -0.4956 -0.5482  0.6342
18049TIP3   OH275561   0.468   4.215  13.271  0.0996 -0.1678  0.5150
18049TIP3    H175562   0.405   4.255  13.331  0.3020  0.4721  0.3042
18049TIP3    H275563   0.480   4.127  13.306  0.3138  0.2369  1.5115
18050TIP3   OH275564   6.683   6.741  11.433  0.2137 -0.6463  0.4799
18050TIP3    H175565   6.672   6.800  11.358  0.1063 -1.6981 -0.3617
18050TIP3    H275566   6.735   6.791  11.496 -0.7541  0.7173  0.2388
18051TIP3   OH275567   4.422   3.551   5.021 -0.4891 -0.0843 -0.2064
18051TIP3    H175568   4.456   3.477   5.072 -0.1791  0.4021  0.2986
18051TIP3    H275569   4.351   3.513   4.970  0.3877 -0.9735 -0.7925
18052TIP3   OH275570   5.882   5.796   2.211 -0.2071  0.4636 -0.1536
18052TIP3    H175571   5.880   5.715   2.160 -0.5066 -0.2753  0.9892
18052TIP3    H275572   5.809   5.788   2.272  0.5636  0.9875  0.8809
18053TIP3   OH275573   0.017   2.660   2.076  0.0624 -0.0105  0.5608
18053TIP3    H175574  -0.051   2.594   2.066 -0.1531  0.2140  0.5281
18053TIP3    H275575   0.073   2.627   2.146  0.7190 -0.8679 -0.3593
18054TIP3   OH275576   3.979   6.381  10.910  0.4977 -0.1442 -0.1452
18054TIP3    H175577   3.905   6.329  10.876  0.4985 -0.1112 -0.1974
18054TIP3    H275578   4.045   6.316  10.933  0.3840 -0.1858  0.0692
18055TIP3   OH275579   6.425   6.372   0.736  0.5714 -0.0698  0.5070
18055TIP3    H175580   6.493   6.426   0.695 -0.1652  1.7087  1.4934
18055TIP3    H275581   6.471   6.325   0.806  1.2415 -0.7914 -0.3993
18056TIP3   OH275582   4.317   5.336  15.862  0.1068 -0.3346  0.2111
18056TIP3    H175583   4.342   5.248  15.835 -1.8322 -0.8615 -0.0140
18056TIP3    H275584   4.301   5.382  15.779 -0.2838 -0.2123  0.3529
18057TIP3   OH275585   4.336   1.480   2.632  0.2901  0.7712  0.0356
18057TIP3    H175586   4.408   1.502   2.574 -0.9731  3.3117 -0.7193
18057TIP3    H275587   4.363   1.514   2.718  0.2586  1.1210 -0.0941
18058TIP3   OH275588   2.183   5.498  11.638  0.1590 -0.1970  0.2660
18058TIP3    H175589   2.189   5.582  11.683  2.8381 -0.6206  0.8611
18058TIP3    H275590   2.251   5.503  11.570 -0.6953 -1.3227 -0.7067
18059TIP3   OH275591   1.996   1.546  13.009 -0.4628  0.1894 -0.0708
18059TIP3    H175592   2.065   1.611  12.994 -1.3705  0.9791 -1.0146
18059TIP3    H275593   1.956   1.533  12.923 -0.7872 -1.0676  0.2552
18060TIP3   OH275594   4.971   5.767  10.932 -0.2201 -0.5005  0.3075
18060TIP3    H175595   4.878   5.780  10.917  0.2124  2.1208 -0.7469
18060TIP3    H275596   5.011   5.775  10.845  1.0613 -0.7432  0.8397
18061TIP3   OH275597   2.813   5.987   1.291  0.1896  0.0958  0.2499
18061TIP3    H175598   2.883   6.052   1.285 -0.3209  0.5416 -1.9018
18061TIP3    H275599   2.733   6.039   1.297 -0.3285 -0.1841 -2.6413
18062TIP3   OH275600   2.454   3.137   1.235 -0.8109 -0.0195 -0.3743
18062TIP3    H175601   2.495   3.211   1.190  1.1366 -0.6850  0.2017
18062TIP3    H275602   2.514   3.117   1.307 -1.3558 -2.0675 -0.4345
18063TIP3   OH275603   3.797   2.872  14.568 -0.3319 -0.1481 -0.1452
18063TIP3    H175604   3.766   2.956  14.535  0.4192  0.3227  0.3019
18063TIP3    H275605   3.805   2.817  14.490  1.4305  0.9497 -0.7999
18064TIP3   OH275606   4.697   0.097   4.654 -0.0274  0.5587 -0.4246
18064TIP3    H175607   4.703   0.128   4.745  0.0774 -1.2027  0.2048
18064TIP3    H275608   4.770   0.141   4.610 -0.0975  1.4655  0.3192
18065TIP3   OH275609   1.367   5.014   1.871  0.1029  0.2400 -0.1590
18065TIP3    H175610   1.357   5.101   1.910  1.4611 -0.5218  2.1487
18065TIP3    H275611   1.278   4.980   1.863 -0.3205  0.8549  1.4839
18066TIP3   OH275612   2.256   0.048  11.140  0.0440  0.0132  0.3903
18066TIP3    H175613   2.269  -0.047  11.141 -0.4702 -0.1965 -2.5170
18066TIP3    H275614   2.319   0.082  11.203  0.2702 -2.2396  1.4743
18067TIP3   OH275615   2.369   1.464   2.029  0.3202  0.3270 -0.4957
18067TIP3    H175616   2.392   1.439   1.940  2.4301 -1.3457  0.4387
18067TIP3    H275617   2.275   1.482   2.025  0.1644 -0.6604 -2.8382
18068TIP3   OH275618   4.606   0.046  12.892 -0.0618  1.4163  1.1455
18068TIP3    H175619   4.573   0.118  12.838  1.4745  0.7275 -0.8093
18068TIP3    H275620   4.690   0.078  12.926  0.8571  0.4422 -0.1105
18069TIP3   OH275621   5.758   6.560   2.188  0.5911  0.2304 -0.3206
18069TIP3    H175622   5.819   6.489   2.167  0.9102  1.1365 -2.8173
18069TIP3    H275623   5.672   6.526   2.162  0.8763  1.0301 -2.5954
18070TIP3   OH275624   2.389   2.302  13.212  0.3286 -0.2335  0.2879
18070TIP3    H175625   2.399   2.340  13.125 -0.0680  0.6083  0.6013
18070TIP3    H275626   2.353   2.373  13.266 -0.4686 -1.0468  0.8753
18071TIP3   OH275627   1.017   0.083  13.896 -0.1012  0.2291 -0.2119
18071TIP3    H175628   1.089   0.096  13.834  0.2081 -0.6124 -0.0363
18071TIP3    H275629   0.948   0.041  13.844 -0.4680  1.0264 -0.3777
18072TIP3   OH275630   2.133   6.110  13.617  0.4505 -0.8035  0.3896
18072TIP3    H175631   2.112   6.141  13.705 -0.1031  0.5782 -0.2036
18072TIP3    H275632   2.083   6.029  13.607  0.6283 -1.0489  1.3875
18073TIP3   OH275633   3.315   4.531  13.562  0.0987 -0.1454  0.1143
18073TIP3    H175634   3.323   4.554  13.469 -1.9754 -1.7269 -0.5229
18073TIP3    H275635   3.227   4.494  13.570  1.1424 -2.4952  2.1453
18074TIP3   OH275636   1.310   5.146  16.443 -0.0879  0.7053 -0.5378
18074TIP3    H175637   1.347   5.115  16.526  0.1256  4.5203  1.0208
18074TIP3    H275638   1.385   5.154  16.385  0.7415  2.8171  0.6922
18075TIP3   OH275639   5.925   2.949  15.178 -0.5029 -0.5310  0.4533
18075TIP3    H175640   5.981   2.882  15.218  0.0794 -0.6436 -0.5272
18075TIP3    H275641   5.985   3.017  15.149 -1.0565  0.2559  1.0852
18076TIP3   OH275642   4.465   3.277  12.782  0.2263 -0.2675  0.1436
18076TIP3    H175643   4.427   3.299  12.697  1.4513 -1.4862 -0.7670
18076TIP3    H275644   4.400   3.307  12.846 -1.4641 -0.7324 -1.2720
18077TIP3   OH275645   1.380   6.085   1.424 -0.2057 -0.6133  0.5830
18077TIP3    H175646   1.425   6.025   1.484 -0.4486 -1.1437  0.2506
18077TIP3    H275647   1.301   6.037   1.398 -0.1959 -0.3136 -0.0093
18078TIP3   OH275648   1.380   3.121   3.478  0.0217 -0.0319 -0.1182
18078TIP3    H175649   1.406   3.211   3.460  0.0191  0.1008  0.5116
18078TIP3    H275650   1.285   3.125   3.489 -0.1493 -0.3248 -1.2823
18079TIP3   OH275651   3.181   5.934   3.010  0.2761  0.0832  0.7087
18079TIP3    H175652   3.212   5.888   3.088  1.4313 -1.0406 -0.3516
18079TIP3    H275653   3.087   5.946   3.024  0.3654 -0.5766  2.0229
18080TIP3   OH275654   0.475   3.063  12.591  0.2139 -0.4388 -0.6401
18080TIP3    H175655   0.554   3.110  12.618 -0.6402  0.8177 -0.2811
18080TIP3    H275656   0.404   3.126  12.602 -1.2606 -2.3574  1.6735
18081TIP3   OH275657   1.378   2.136   3.423 -0.0381 -0.3710  0.4182
18081TIP3    H175658   1.407   2.076   3.492 -0.1544  1.8084  2.4958
18081TIP3    H275659   1.395   2.224   3.459  1.4440  0.9245 -3.0038
18082TIP3   OH275660   0.363   1.025   6.456 -0.7433  0.1617 -0.1289
18082TIP3    H175661   0.385   1.097   6.515 -2.8165  0.2781  0.5772
18082TIP3    H275662   0.319   0.961   6.512 -1.8544 -0.1817 -1.3555
18083TIP3   OH275663   5.815   3.833   1.841 -0.4499  0.2348  0.2758
18083TIP3    H175664   5.749   3.791   1.896 -1.3473  2.3201  0.8750
18083TIP3    H275665   5.886   3.855   1.902 -0.2063  0.0706  0.0563
18084TIP3   OH275666   1.217   1.361  16.856 -0.2483 -0.0530  0.1024
18084TIP3    H175667   1.306   1.395  16.864 -0.2969 -0.0623  0.7412
18084TIP3    H275668   1.221   1.301  16.781  0.0217  0.7466 -0.5317
18085TIP3   OH275669   4.526   2.030   2.347 -0.7128 -0.1331  0.3389
18085TIP3    H175670   4.471   2.087   2.401  0.9844  0.2183  1.7916
18085TIP3    H275671   4.561   2.088   2.279 -1.6362 -0.2284 -0.2307
18086TIP3   OH275672   6.105   4.704   4.243 -0.1508  0.5948  0.1550
18086TIP3    H175673   6.017   4.690   4.208 -0.7561  3.1230  0.4508
18086TIP3    H275674   6.151   4.623   4.224 -2.0800 -0.2345 -1.4243
18087TIP3   OH275675   5.011   3.531   2.023 -0.3940 -0.6145  0.1434
18087TIP3    H175676   5.032   3.589   2.096  1.3587  0.1795 -0.9297
18087TIP3    H275677   4.936   3.573   1.980  0.8190  0.8829 -0.5845
18088TIP3   OH275678   5.332   2.501   5.260  0.0329  0.3152  0.0636
18088TIP3    H175679   5.358   2.410   5.244  0.7965  0.5872 -0.3088
18088TIP3    H275680   5.242   2.506   5.227 -0.3038 -0.4979  0.8234
18089TIP3   OH275681   2.989   3.528  14.557 -0.0041  0.0245 -0.0444
18089TIP3    H175682   2.912   3.493  14.602 -1.4662  0.9612 -1.6728
18089TIP3    H275683   3.008   3.463  14.489 -0.6092  0.6935 -0.8852
18090TIP3   OH275684   0.072   6.616   5.659  0.0325  0.0780 -0.0021
18090TIP3    H175685   0.083   6.530   5.617  0.7504 -0.1609  0.6515
18090TIP3    H275686   0.079   6.598   5.752  1.7281  1.0396  0.0992
18091TIP3   OH275687   2.648   2.224   0.572 -0.3083 -0.1571  0.1585
18091TIP3    H175688   2.712   2.178   0.625  0.2637  1.4349  0.9165
18091TIP3    H275689   2.563   2.192   0.602  0.0361  0.1458  1.5212
18092TIP3   OH275690   3.735   4.967  16.342  0.0986 -0.3171  0.0274
18092TIP3    H175691   3.806   4.934  16.398  0.2478  0.9910  0.6462
18092TIP3    H275692   3.660   4.911  16.362  0.0297  0.3746  1.8684
18093TIP3   OH275693   5.355   4.481   6.118 -0.0979  0.0960  0.3402
18093TIP3    H175694   5.337   4.425   6.194  0.7578 -1.2053 -0.3785
18093TIP3    H275695   5.441   4.452   6.087  1.1503  2.9220  0.8700
18094TIP3   OH275696   1.902   6.472  14.328  0.2839 -0.4065 -0.4021
18094TIP3    H175697   1.823   6.418  14.333  0.5738 -0.8281 -0.3272
18094TIP3    H275698   1.908   6.498  14.236 -2.1083  2.9236  0.1567
18095TIP3   OH275699   1.828   4.870  16.514  0.0037 -0.5777  0.5211
18095TIP3    H175700   1.923   4.875  16.504  0.0286  1.5354  1.2923
18095TIP3    H275701   1.814   4.793  16.568  1.3333 -0.6919  0.7548
18096TIP3   OH275702   0.508   3.293   4.511 -0.4562  0.3817 -0.4516
18096TIP3    H175703   0.467   3.347   4.578  0.2844  0.6739 -0.2190
18096TIP3    H275704   0.504   3.204   4.546  0.3647  0.5950  0.2183
18097TIP3   OH275705   1.089   3.512   6.055 -0.6986 -0.0231  0.6822
18097TIP3    H175706   1.166   3.568   6.067 -1.1166  0.3619  1.5859
18097TIP3    H275707   1.015   3.571   6.064 -1.1199 -0.0638 -1.8065
18098TIP3   OH275708   6.620   1.694   5.028  0.0915  0.7286  0.1123
18098TIP3    H175709   6.683   1.657   5.090  0.4246  1.0850 -0.0120
18098TIP3    H275710   6.618   1.788   5.048  1.4058  1.1226 -1.4576
18099TIP3   OH275711   3.064   6.658  16.746 -0.2543 -0.1446  0.0375
18099TIP3    H175712   3.144   6.614  16.773 -0.4712  0.1631  1.2330
18099TIP3    H275713   3.091   6.746  16.721 -0.1117 -0.2980 -0.3576
18100TIP3   OH275714   1.604   2.367   5.121 -0.0248 -0.5900 -0.3607
18100TIP3    H175715   1.651   2.409   5.049 -0.0157  1.5493  0.8226
18100TIP3    H275716   1.656   2.289   5.140  1.5015  0.2479 -0.8929
18101TIP3   OH275717   1.324   2.076   1.673  0.0135 -0.0974 -0.5858
18101TIP3    H175718   1.273   2.122   1.740  3.3406  1.5850  1.0025
18101TIP3    H275719   1.289   1.987   1.674 -0.9343  0.1888  2.4688
18102TIP3   OH275720   5.217   0.123  14.712  0.2782  0.2586 -0.3432
18102TIP3    H175721   5.195   0.109  14.619 -0.1179 -2.2220  0.0577
18102TIP3    H275722   5.297   0.073  14.726 -1.0563 -1.5886  1.1892
18103TIP3   OH275723   1.197   6.134  10.923 -0.3117 -0.2279 -0.4089
18103TIP3    H175724   1.114   6.090  10.940 -1.8861  2.7492  0.2843
18103TIP3    H275725   1.222   6.105  10.835 -0.5967 -3.2144  0.3598
18104TIP3   OH275726   6.380   0.486   2.927 -0.2492 -1.1359  0.3812
18104TIP3    H175727   6.343   0.418   2.870 -1.6106  0.4075 -0.6683
18104TIP3    H275728   6.364   0.454   3.016 -1.0261 -2.1108 -0.0896
18105TIP3   OH275729   1.231   4.130   6.002 -0.1497  0.1043  0.3206
18105TIP3    H175730   1.141   4.156   6.017 -0.5789 -0.3107 -1.3425
18105TIP3    H275731   1.260   4.183   5.928  0.2092 -1.3517 -0.6203
18106TIP3   OH275732   5.841   1.244  13.046 -0.2829 -0.0940 -0.5612
18106TIP3    H175733   5.785   1.313  13.011  2.0703  2.0155 -0.4384
18106TIP3    H275734   5.906   1.228  12.978  1.0004 -0.0082  0.6036
18107TIP3   OH275735   6.004   0.152   0.818  0.7013 -0.0140 -0.1822
18107TIP3    H175736   5.984   0.209   0.745  4.9903 -0.2069 -1.8394
18107TIP3    H275737   6.067   0.201   0.871  1.7660 -1.8061  0.3354
18108TIP3   OH275738   2.779   3.430  14.697 -0.6151  0.3135 -0.7131
18108TIP3    H175739   2.723   3.354  14.711  0.6018 -0.3959  0.6266
18108TIP3    H275740   2.756   3.490  14.768  1.4283 -0.7384  0.9923
18109TIP3   OH275741   2.035   5.087   5.398 -1.2921 -0.3878 -0.4601
18109TIP3    H175742   2.020   5.050   5.311 -1.4071 -0.3126 -0.4719
18109TIP3    H275743   2.001   5.176   5.393 -1.2797 -0.3760 -0.3452
18110TIP3   OH275744   5.788   1.176  14.513  0.3033  0.2079  0.2078
18110TIP3    H175745   5.804   1.193  14.606 -0.6694  0.1711  0.3868
18110TIP3    H275746   5.726   1.103  14.511  1.4798 -0.8297 -0.5083
18111TIP3   OH275747   4.145   6.413   6.662 -0.4888 -0.3890  0.0767
18111TIP3    H175748   4.184   6.494   6.629  0.9558 -0.7500  0.7938
18111TIP3    H275749   4.217   6.350   6.661 -1.4046 -1.4707  0.2167
18112TIP3   OH275750   2.356   0.411  16.036 -0.1367  0.6277 -0.3179
18112TIP3    H175751   2.333   0.318  16.032  1.5339  0.1540  0.2731
18112TIP3    H275752   2.276   0.454  16.067 -0.6402 -0.7343  0.3582
18113TIP3   OH275753   6.213   2.138  14.271  0.4077 -0.5272  0.1183
18113TIP3    H175754   6.184   2.144  14.362 -1.1335 -2.3639 -0.1830
18113TIP3    H275755   6.224   2.044  14.256 -1.6876 -0.4917 -2.2395
18114TIP3   OH275756   1.471   3.817   1.693 -0.0900  0.3348  0.2271
18114TIP3    H175757   1.552   3.866   1.684  0.2329  0.2064  2.1358
18114TIP3    H275758   1.428   3.854   1.770 -0.5919 -1.3093  0.7850
18115TIP3   OH275759   2.338   6.312  16.088 -0.2074 -0.1985  0.3662
18115TIP3    H175760   2.308   6.273  16.170  0.5206  2.3037  1.9414
18115TIP3    H275761   2.432   6.295  16.086 -0.3755 -1.1179 -0.5010
18116TIP3   OH275762   4.545   5.278  10.663 -0.3569 -0.0364 -0.1382
18116TIP3    H175763   4.468   5.304  10.613 -0.4735  2.3364  1.1517
18116TIP3    H275764   4.611   5.343  10.641  0.7991 -1.1273 -0.0014
18117TIP3   OH275765   5.511   4.401  12.977  0.3853 -0.2586  0.0944
18117TIP3    H175766   5.432   4.455  12.978 -0.3615 -1.3123  0.8106
18117TIP3    H275767   5.489   4.327  12.920 -0.5161 -2.4180  3.0174
18118TIP3   OH275768   1.629   0.981  11.104  0.0576  0.1880 -0.1720
18118TIP3    H175769   1.568   1.011  11.037 -2.2648  0.4285  1.9182
18118TIP3    H275770   1.641   0.888  11.084 -1.2718  0.0557 -0.4470
18119TIP3   OH275771   1.405   6.235   4.639  0.0532 -0.1262 -0.2374
18119TIP3    H175772   1.332   6.178   4.615 -0.1830  0.4228 -0.8385
18119TIP3    H275773   1.429   6.279   4.558  0.7565  0.0404  0.0529
18120TIP3   OH275774   5.536   0.614   3.565  0.1390  0.3950  0.6024
18120TIP3    H175775   5.473   0.670   3.519  1.2093  3.3074  2.3992
18120TIP3    H275776   5.616   0.621   3.514 -0.5643 -2.5820 -1.1682
18121TIP3   OH275777   5.508   1.547  16.389  0.6481  0.2507  0.0201
18121TIP3    H175778   5.577   1.496  16.348  1.4187  0.4003  1.0826
18121TIP3    H275779   5.436   1.547  16.326  1.8229  0.5766 -1.3507
18122TIP3   OH275780   4.222   0.414  13.376 -0.2745 -0.4229 -0.3620
18122TIP3    H175781   4.216   0.455  13.462  0.9767 -0.4442 -0.2411
18122TIP3    H275782   4.154   0.456  13.324  0.3919  1.1742  0.0081
18123TIP3   OH275783   5.487   4.072   1.240 -0.1864 -0.2477  0.0009
18123TIP3    H175784   5.530   4.128   1.304  0.4295  0.0745 -0.6904
18123TIP3    H275785   5.509   3.983   1.266  0.7695 -0.0891 -0.2558
18124TIP3   OH275786   0.716   4.431   3.898 -0.1728 -0.1551 -0.2707
18124TIP3    H175787   0.667   4.378   3.835  1.2347  0.5305 -2.0283
18124TIP3    H275788   0.808   4.413   3.877  0.3268  0.8964  0.9213
18125TIP3   OH275789   6.225   6.070   6.010 -0.2181  0.1459 -0.2176
18125TIP3    H175790   6.273   6.006   6.062 -0.0485 -0.2233 -0.8283
18125TIP3    H275791   6.143   6.083   6.058  0.6954  1.2079  1.1494
18126TIP3   OH275792   5.419   4.372  12.659  0.2575  0.0146 -0.2921
18126TIP3    H175793   5.513   4.383  12.644  0.6386 -2.0345  0.2409
18126TIP3    H275794   5.391   4.311  12.591 -0.1960 -1.1247  0.8809
18127TIP3   OH275795   3.827   6.088  10.223 -0.2826  0.2618  0.2375
18127TIP3    H175796   3.768   6.013  10.227 -0.4329  0.4331  1.6893
18127TIP3    H275797   3.905   6.055  10.178 -0.9092 -0.3519 -0.4312
18128TIP3   OH275798   0.959   3.595  15.734 -0.1528  0.0391  0.4918
18128TIP3    H175799   0.937   3.507  15.764 -0.1103  0.4131  1.6443
18128TIP3    H275800   0.914   3.653  15.794 -1.0691  0.8328 -0.9057
18129TIP3   OH275801   0.235   5.247   3.988 -0.4744  0.0409 -0.4433
18129TIP3    H175802   0.170   5.185   4.019 -0.5140  0.9285  1.3369
18129TIP3    H275803   0.210   5.265   3.897 -1.9981 -0.5354 -0.1576
18130TIP3   OH275804   0.887   6.163   2.892  0.1173  0.2233  0.7707
18130TIP3    H175805   0.901   6.250   2.927 -1.9160 -0.0984  2.5832
18130TIP3    H275806   0.925   6.104   2.957 -1.4809 -0.3020  1.2852
18131TIP3   OH275807   2.449   3.877   3.908 -0.2714  0.1158  0.0259
18131TIP3    H175808   2.379   3.923   3.862  0.0522 -0.7671 -1.4293
18131TIP3    H275809   2.427   3.784   3.897  1.1410 -0.1768 -0.5105
18132TIP3   OH275810   4.445   2.417  13.722  0.0015  0.4112  0.3558
18132TIP3    H175811   4.394   2.408  13.803  1.2164  0.3916  1.1369
18132TIP3    H275812   4.488   2.502  13.731 -0.2815  0.6502 -0.5239
18133TIP3   OH275813   5.467   0.261  15.037  0.0322  0.5518 -0.3634
18133TIP3    H175814   5.433   0.333  15.090  2.7975  2.3054 -0.7709
18133TIP3    H275815   5.549   0.294  15.002  0.0922 -1.8712 -2.8201
18134TIP3   OH275816   3.258   5.586  16.427 -0.3938  0.3606 -0.2176
18134TIP3    H175817   3.343   5.627  16.409  0.5420 -1.2553  0.3195
18134TIP3    H275818   3.227   5.557  16.341  0.2937 -0.3118 -0.2473
18135TIP3   OH275819   4.475   6.079  14.304 -0.4686  0.2010 -0.1837
18135TIP3    H175820   4.541   6.014  14.328 -1.0008 -1.1504 -2.1491
18135TIP3    H275821   4.395   6.048  14.345 -0.6200 -0.1360 -0.7252
18136TIP3   OH275822   4.733   5.493   1.996 -0.2928  0.1529 -0.4509
18136TIP3    H175823   4.807   5.542   1.960  0.4488 -1.0412 -0.6011
18136TIP3    H275824   4.721   5.419   1.936 -0.3259 -0.7556  0.6424
18137TIP3   OH275825   6.608   1.687  11.436  0.0242  0.4922 -0.2490
18137TIP3    H175826   6.619   1.758  11.372 -1.6984 -1.1760 -2.5567
18137TIP3    H275827   6.518   1.658  11.425  0.1941 -1.0470  1.7615
18138TIP3   OH275828   4.057   5.735  14.552  0.0489 -0.3772 -0.0513
18138TIP3    H175829   4.089   5.673  14.487 -0.5753 -0.5101 -0.2352
18138TIP3    H275830   4.015   5.804  14.501  1.5860  0.7193  0.0850
18139TIP3   OH275831   5.095   2.456   2.423  0.3872 -0.2859 -0.2828
18139TIP3    H175832   5.050   2.488   2.501  0.7945 -1.4331  0.4411
18139TIP3    H275833   5.027   2.413   2.371  0.4720 -1.2513  0.3925
18140TIP3   OH275834   3.925   2.965   4.999  0.7344 -0.0870  0.0241
18140TIP3    H175835   3.900   2.873   4.997 -1.8565  0.5535 -1.1616
18140TIP3    H275836   3.878   3.004   4.925 -0.2613  2.6395  1.9468
18141TIP3   OH275837   4.903   0.635  13.850 -0.5043  0.4051 -0.3493
18141TIP3    H175838   4.832   0.695  13.876  0.0427  0.4483  1.1670
18141TIP3    H275839   4.893   0.626  13.755 -0.9306  2.5013 -0.5702
18142TIP3   OH275840   4.615   6.156  15.500  0.1237  0.0252 -0.1489
18142TIP3    H175841   4.559   6.215  15.552  1.2260  0.2353  0.8369
18142TIP3    H275842   4.666   6.215  15.444  2.6927  0.2809  2.2513
18143TIP3   OH275843   0.851   2.656  12.071 -0.1648  0.0380  0.2342
18143TIP3    H175844   0.771   2.618  12.036  0.5440 -0.7521 -0.6086
18143TIP3    H275845   0.917   2.588  12.059  0.4135  0.2321  1.9466
18144TIP3   OH275846   6.452   0.108   1.742 -0.0031  0.3626 -0.1152
18144TIP3    H175847   6.388   0.124   1.673 -0.1644 -0.7951 -0.2504
18144TIP3    H275848   6.403   0.119   1.824 -1.2874 -3.4817 -0.1658
18145TIP3   OH275849   5.981   1.936   0.165 -0.1245 -0.0320  0.7337
18145TIP3    H175850   5.946   1.914   0.079 -1.0693  3.4886  0.0833
18145TIP3    H275851   5.904   1.943   0.222  0.3103 -0.1585  1.3565
18146TIP3   OH275852   5.363   0.925   4.963 -0.3592 -0.1700 -0.4094
18146TIP3    H175853   5.341   0.995   4.902 -1.0221 -2.0822 -2.4763
18146TIP3    H275854   5.278   0.896   4.998 -0.1341 -0.3036  0.0422
18147TIP3   OH275855   2.112   1.572  16.432 -0.1642 -0.3222  0.5911
18147TIP3    H175856   2.101   1.667  16.438 -0.2815 -0.3724  1.1897
18147TIP3    H275857   2.171   1.549  16.504  1.0459 -0.5271 -0.4292
18148TIP3   OH275858   3.747   0.216   3.973 -0.6244  0.1531 -0.0452
18148TIP3    H175859   3.791   0.157   3.912 -1.2956  1.0523 -1.4554
18148TIP3    H275860   3.662   0.176   3.989 -0.1676 -0.4530  0.8956
18149TIP3   OH275861   5.372   3.486  14.719 -0.3135 -0.1127 -0.3669
18149TIP3    H175862   5.408   3.555  14.776  0.5283 -0.3721 -0.5752
18149TIP3    H275863   5.282   3.513  14.703 -0.3495  0.3261  0.5279
18150TIP3   OH275864   6.632   1.117   4.894 -0.2244  0.6071  0.5100
18150TIP3    H175865   6.677   1.168   4.962  1.4836  1.2271 -0.9830
18150TIP3    H275866   6.700   1.060   4.858 -0.6988  1.2008 -1.4989
18151TIP3   OH275867   4.061   0.266   5.286  0.0492 -0.3527  0.5581
18151TIP3    H175868   4.100   0.353   5.294 -0.0488 -0.1050 -1.1801
18151TIP3    H275869   3.974   0.275   5.325 -0.6568  0.8747 -1.1428
18152TIP3   OH275870   4.134   4.499  12.417  0.1267 -0.5138 -0.4116
18152TIP3    H175871   4.204   4.557  12.447 -0.4286  0.3299 -0.7286
18152TIP3    H275872   4.129   4.431  12.484  0.4200  0.1067  0.2512
18153TIP3   OH275873   0.243   1.567   6.060 -0.2388  0.1188 -0.4497
18153TIP3    H175874   0.165   1.555   6.006 -0.7290  1.1857 -0.0269
18153TIP3    H275875   0.235   1.657   6.093  0.4637 -0.2327  0.7284
18154TIP3   OH275876   6.670   3.501  11.503  0.2167  1.0744 -0.3036
18154TIP3    H175877   6.720   3.504  11.421 -1.8064 -0.1193 -1.6714
18154TIP3    H275878   6.696   3.417  11.543 -0.3895  0.6370 -0.8177
18155TIP3   OH275879   6.270   1.816  10.652 -0.0894 -0.2295  0.2205
18155TIP3    H175880   6.214   1.850  10.722  0.7577  1.5344  0.1005
18155TIP3    H275881   6.330   1.757  10.697 -0.6977 -0.5068  0.6877
18156TIP3   OH275882   3.076   0.453  14.838 -0.2517 -0.1692 -0.6544
18156TIP3    H175883   3.139   0.401  14.790 -0.5670  0.3580 -1.6552
18156TIP3    H275884   3.076   0.415  14.926 -1.1508 -2.4947 -1.5607
18157TIP3   OH275885   5.791   0.129  15.102 -0.1471 -0.3283 -0.2761
18157TIP3    H175886   5.846   0.055  15.075 -0.5837 -1.2392  1.1772
18157TIP3    H275887   5.702   0.094  15.103 -0.6823  0.8868 -1.7446
18158TIP3   OH275888   0.398   3.591  16.105  0.0004 -0.2694 -0.0157
18158TIP3    H175889   0.412   3.498  16.124 -3.1511 -1.4158 -2.3528
18158TIP3    H275890   0.464   3.612  16.039  0.0401 -1.2192 -0.2979
18159TIP3   OH275891   1.011   6.537  12.596  0.0680  0.2952 -0.6094
18159TIP3    H175892   1.033   6.601  12.529  2.2971  1.6028  1.1994
18159TIP3    H275893   0.959   6.586  12.660 -1.0095 -0.6079 -0.7663
18160TIP3   OH275894   0.801   0.933  16.459  0.3360  0.4008  0.7624
18160TIP3    H175895   0.870   0.930  16.525  1.0588  0.7643  0.0374
18160TIP3    H275896   0.793   1.025  16.436 -1.0188  0.4811  1.4727
18161TIP3   OH275897   5.173   2.395   1.279 -0.3118  0.4615  0.2076
18161TIP3    H175898   5.200   2.321   1.224 -0.8030  0.8833 -0.6105
18161TIP3    H275899   5.162   2.357   1.366 -1.2511 -0.5907 -0.3432
18162TIP3   OH275900   1.814   1.144   2.138 -0.5363  0.0563  0.4479
18162TIP3    H175901   1.821   1.050   2.119 -1.6626 -0.4667  2.3446
18162TIP3    H275902   1.897   1.166   2.180  0.2547  0.2619 -1.1266
18163TIP3   OH275903   5.919   0.200   2.834 -0.0479  0.1776 -0.5863
18163TIP3    H175904   6.012   0.199   2.854 -0.6138  0.1758  2.6419
18163TIP3    H275905   5.914   0.209   2.739  3.2257 -3.1314 -1.2467
18164TIP3   OH275906   0.125   2.701   3.620  0.7911 -0.2591 -0.2198
18164TIP3    H175907   0.091   2.781   3.579  2.2044  0.1943 -0.5733
18164TIP3    H275908   0.209   2.728   3.658  0.7945 -1.3341  0.5789
18165TIP3   OH275909   1.573   6.319   1.791 -0.0729  0.3328 -0.5695
18165TIP3    H175910   1.488   6.356   1.768 -0.6529 -0.3910  0.3340
18165TIP3    H275911   1.631   6.395   1.795 -0.6479  0.8299 -1.2702
18166TIP3   OH275912   4.647   3.549  14.278 -0.6801 -0.1020 -0.2778
18166TIP3    H175913   4.659   3.516  14.367 -1.0704  1.7859  0.5157
18166TIP3    H275914   4.563   3.511  14.250 -0.0885 -1.5012 -0.2661
18167TIP3   OH275915   2.080   0.065   2.665  0.2787  0.0566  0.0155
18167TIP3    H175916   2.145   0.037   2.730  0.2367  0.9362  0.4569
18167TIP3    H275917   2.000   0.020   2.691  0.8495 -1.5712 -0.9363
18168TIP3   OH275918   5.876   5.301  12.163 -0.4150 -0.0743 -0.0613
18168TIP3    H175919   5.938   5.373  12.154 -1.5550  0.7129 -2.5389
18168TIP3    H275920   5.907   5.234  12.103 -0.0134 -1.2134  1.3642
18169TIP3   OH275921   4.309   4.519   5.541 -0.0942 -0.2833 -0.4337
18169TIP3    H175922   4.378   4.502   5.606 -0.4112  1.5423  0.4503
18169TIP3    H275923   4.234   4.469   5.574  0.7243 -2.2459 -1.3769
18170TIP3   OH275924   0.246   3.019  12.833 -0.1399  0.1172  0.4451
18170TIP3    H175925   0.286   3.079  12.770 -1.3672  0.0566 -0.4455
18170TIP3    H275926   0.236   3.070  12.913  1.2200  0.2772  0.5231
18171TIP3   OH275927   1.961   1.250  14.201  0.4269 -0.2915  0.3242
18171TIP3    H175928   2.010   1.168  14.200  0.8681 -0.0414 -1.8450
18171TIP3    H275929   2.011   1.308  14.258  1.3234 -0.8212  0.0804
18172TIP3   OH275930   2.907   4.356  13.454 -0.9250 -0.2799  0.4943
18172TIP3    H175931   2.955   4.401  13.524  0.4593  0.1511 -0.6970
18172TIP3    H275932   2.836   4.415  13.431 -1.5326 -0.5261  1.6707
18173TIP3   OH275933   3.843   0.475   0.634 -0.1452  0.1051 -0.0199
18173TIP3    H175934   3.927   0.432   0.648 -0.2282 -0.4451 -1.1221
18173TIP3    H275935   3.780   0.424   0.685 -0.0861 -0.5307 -0.5757
18174TIP3   OH275936   5.977   2.890   1.827  0.0228 -0.0773 -0.5804
18174TIP3    H175937   5.979   2.898   1.732  0.3128  0.7678 -0.5097
18174TIP3    H275938   5.957   2.978   1.858 -3.7829 -0.9786  0.0508
18175TIP3   OH275939   2.610   4.606  15.283 -0.0959 -0.2254  0.4917
18175TIP3    H175940   2.528   4.643  15.315 -1.5217 -1.8534 -1.0595
18175TIP3    H275941   2.665   4.682  15.262 -1.1285  0.8931  1.6492
18176TIP3   OH275942   3.297   4.797   4.013 -0.1323  0.5663 -0.1431
18176TIP3    H175943   3.327   4.843   3.935  0.4368  2.0425  0.8891
18176TIP3    H275944   3.321   4.706   3.998  1.7158  1.1156 -0.9121
18177TIP3   OH275945   4.946   6.200   3.194 -0.0129  0.1432 -0.1259
18177TIP3    H175946   4.853   6.197   3.218 -0.5847 -1.8100 -2.1744
18177TIP3    H275947   4.970   6.108   3.179  1.9880  0.6877 -0.5933
18178TIP3   OH275948   2.983   6.068  10.506  1.2707 -0.1841  0.0416
18178TIP3    H175949   2.992   6.031  10.418  1.6681  0.9555 -0.4101
18178TIP3    H275950   2.892   6.052  10.529  0.9633  0.1684 -0.8916
18179TIP3   OH275951   4.505   4.138   0.282 -0.7898 -0.1226  0.3227
18179TIP3    H175952   4.556   4.143   0.201 -1.9017 -1.3803 -0.5028
18179TIP3    H275953   4.571   4.138   0.352  0.3236 -1.0883 -0.6720
18180TIP3   OH275954   5.622   2.284  15.391 -0.1498 -0.5320  0.3403
18180TIP3    H175955   5.664   2.266  15.306  0.4173 -1.8667  0.8764
18180TIP3    H275956   5.540   2.327  15.368 -0.1542 -1.1439 -0.9162
18181TIP3   OH275957   4.216   3.549  16.973  0.2828  0.3748  0.0680
18181TIP3    H175958   4.247   3.595  17.051  0.3856  0.0405  0.2266
18181TIP3    H275959   4.192   3.619  16.912 -2.2409  0.7334  1.3169
18182TIP3   OH275960   1.256   3.070   1.823 -0.3175  0.1875  0.2496
18182TIP3    H175961   1.226   3.147   1.871  2.1727  0.5806  1.3407
18182TIP3    H275962   1.186   3.006   1.833 -1.7900  1.7759  0.5832
18183TIP3   OH275963   1.616   0.063  11.126  0.3272  0.1792  0.5380
18183TIP3    H175964   1.654   0.009  11.195  1.0901  0.0160  0.0070
18183TIP3    H275965   1.642   0.152  11.147 -0.5988  0.3067  1.1984
18184TIP3   OH275966   4.578   2.727  12.155 -0.3013 -0.1461 -0.2273
18184TIP3    H175967   4.640   2.714  12.083 -1.2374 -0.8424 -0.9281
18184TIP3    H275968   4.549   2.818  12.145  0.2592  0.0432 -0.1662
18185TIP3   OH275969   4.285   4.773   3.991 -0.4645 -0.6598 -0.6127
18185TIP3    H175970   4.365   4.727   4.017 -0.5183 -1.1897 -1.3688
18185TIP3    H275971   4.276   4.756   3.897  0.2514  2.0365 -1.2235
18186TIP3   OH275972   2.292   5.520  11.328 -0.3520  0.4601 -0.2736
18186TIP3    H175973   2.257   5.433  11.345  0.2216  0.4122  0.7231
18186TIP3    H275974   2.383   5.515  11.355  0.0445  1.0111 -1.4311
18187TIP3   OH275975   4.781   3.600   1.256  0.0179 -0.0875  0.1406
18187TIP3    H175976   4.810   3.608   1.347 -1.5671  1.7948  0.5399
18187TIP3    H275977   4.693   3.565   1.262  0.2023 -0.7368 -0.7437
18188TIP3   OH275978   1.030   1.976  10.816 -0.1740 -0.3155  0.2521
18188TIP3    H175979   0.976   2.020  10.750 -0.1936  0.2376  0.6287
18188TIP3    H275980   0.976   1.903  10.845 -0.3825 -0.2505  0.0391
18189TIP3   OH275981   3.188   3.506   3.584  0.0881 -0.6102 -0.1230
18189TIP3    H175982   3.282   3.516   3.573  0.1005  0.6548  0.8929
18189TIP3    H275983   3.173   3.527   3.676 -1.2992  0.0943 -0.4924
18190TIP3   OH275984   0.214   2.435  14.910  0.1238 -0.3379  0.0275
18190TIP3    H175985   0.271   2.483  14.850 -1.3325  1.3530 -0.0698
18190TIP3    H275986   0.145   2.399  14.855  1.5523 -3.3255 -0.0236
18191TIP3   OH275987   6.714   2.226   5.088 -0.2256 -0.1104  0.4577
18191TIP3    H175988   6.647   2.162   5.116  0.4687 -0.2086  2.0113
18191TIP3    H275989   6.777   2.226   5.160 -0.0464  2.1108  0.3513
18192TIP3   OH275990   3.756   1.674   1.155  0.1075 -0.1959 -0.3759
18192TIP3    H175991   3.700   1.615   1.205 -0.0493  0.2933  0.0473
18192TIP3    H275992   3.709   1.758   1.156  0.7386  0.1662 -0.2019
18193TIP3   OH275993   2.044   2.348   0.639 -0.0679  0.4216 -0.1591
18193TIP3    H175994   2.034   2.264   0.683 -0.7130  0.9779  0.7725
18193TIP3    H275995   2.138   2.367   0.644 -0.2026  0.7739  1.5568
18194TIP3   OH275996   5.160   1.756   3.204  0.3322 -0.6693 -0.5131
18194TIP3    H175997   5.092   1.689   3.198 -0.1717 -0.1037 -1.5025
18194TIP3    H275998   5.184   1.759   3.296 -1.7914 -0.1166  0.0794
18195TIP3   OH275999   1.930   6.536   2.598 -0.2882  0.0102 -0.2204
18195TIP3    H176000   1.881   6.564   2.521  0.2167 -0.1242 -0.5915
18195TIP3    H276001   1.868   6.482   2.647 -0.7314  0.4084 -0.3357
18196TIP3   OH276002   2.790   3.708  14.403  0.1239  0.8866  0.4162
18196TIP3    H176003   2.711   3.656  14.420  0.7098  0.1565  0.9987
18196TIP3    H276004   2.851   3.681  14.472  0.2800  2.7289  1.0360
18197TIP3   OH276005   2.628   4.344  16.367 -0.0860 -0.2484 -0.5348
18197TIP3    H176006   2.645   4.361  16.459 -1.0717  1.3819 -0.6116
18197TIP3    H276007   2.550   4.288  16.367  0.3231 -0.8251 -0.3754
18198TIP3   OH276008   0.400   2.912   3.114  0.2736  0.4209 -0.3600
18198TIP3    H176009   0.346   2.837   3.141  1.9391 -0.3447  1.0314
18198TIP3    H276010   0.366   2.985   3.165 -0.9150  0.4802 -1.2052
18199TIP3   OH276011   2.877   0.717   5.732 -0.3193 -0.3850 -0.5697
18199TIP3    H176012   2.967   0.705   5.763 -0.3916 -0.7195 -0.4887
18199TIP3    H276013   2.850   0.801   5.770 -0.9204 -1.4414  1.5117
18200TIP3   OH276014   2.756   5.530   2.935 -0.1910 -0.8426  0.1038
18200TIP3    H176015   2.711   5.595   2.989  0.6203 -0.1395 -0.0437
18200TIP3    H276016   2.698   5.518   2.859 -1.4653 -2.0267  1.2009
18201TIP3   OH276017   4.128   0.410  15.299  0.3367  0.3099  0.5603
18201TIP3    H176018   4.143   0.318  15.280 -1.2759  0.0327  0.4538
18201TIP3    H276019   4.193   0.457  15.247  0.5600 -0.7274 -0.1118
18202TIP3   OH276020   2.427   0.954  11.681  0.0964  0.5338 -0.0922
18202TIP3    H176021   2.334   0.936  11.668 -0.1135 -0.4130  2.2864
18202TIP3    H276022   2.437   1.046  11.659 -1.8653  1.2166  1.6217
18203TIP3   OH276023   4.473   4.973  12.125 -0.0508  0.1163 -0.2623
18203TIP3    H176024   4.411   5.045  12.138 -0.2616 -0.2888  1.1683
18203TIP3    H276025   4.483   4.967  12.030 -0.2501  1.8296 -0.4225
18204TIP3   OH276026   3.166   2.593  12.639 -0.1096 -0.5161  0.1283
18204TIP3    H176027   3.209   2.585  12.724 -0.8770 -1.6441  0.4413
18204TIP3    H276028   3.231   2.561  12.576 -0.5741 -2.6540  0.6428
18205TIP3   OH276029   0.483   0.303  12.815  0.3047  0.4416  0.3751
18205TIP3    H176030   0.434   0.383  12.837 -0.1544  1.1837 -2.8177
18205TIP3    H276031   0.416   0.244  12.780  0.8547 -0.9236  1.5138
18206TIP3   OH276032   0.358   1.088  16.582 -1.0126 -0.0069  0.5155
18206TIP3    H176033   0.312   1.094  16.666 -2.0507  0.3693 -0.0634
18206TIP3    H276034   0.432   1.031  16.599 -1.8566 -0.8677  1.4120
18207TIP3   OH276035   4.065   4.336  16.634 -0.4472  0.6343 -0.0525
18207TIP3    H176036   4.027   4.268  16.690 -1.2511  0.7616 -0.4243
18207TIP3    H276037   4.159   4.332  16.651 -0.6754  0.7384  1.3747
18208TIP3   OH276038   5.336   5.595   3.950 -0.2216 -0.2677 -0.3870
18208TIP3    H176039   5.353   5.501   3.952  2.4364  0.1099 -0.6053
18208TIP3    H276040   5.420   5.634   3.973 -1.6254  2.0586  1.1466
18209TIP3   OH276041   0.873   2.665   1.391 -0.4438  0.1509 -0.1445
18209TIP3    H176042   0.788   2.709   1.384 -1.1873 -1.2758 -0.5102
18209TIP3    H276043   0.895   2.672   1.484 -1.1518  0.2004  0.0314
18210TIP3   OH276044   4.804   3.595  11.444  0.0582 -0.2122 -0.1544
18210TIP3    H176045   4.727   3.565  11.493 -0.7376  1.9982  0.0405
18210TIP3    H276046   4.779   3.584  11.352 -0.4921  0.4237 -0.0918
18211TIP3   OH276047   2.954   1.908   1.361  0.0351 -0.3407 -0.4444
18211TIP3    H176048   2.960   2.001   1.381 -0.0444 -0.6559  1.2434
18211TIP3    H276049   2.888   1.875   1.422  1.7709 -1.9252  0.6902
18212TIP3   OH276050   1.253   3.280  13.347  0.0894 -0.0991  0.2476
18212TIP3    H176051   1.307   3.350  13.383 -0.3354  1.4721 -1.9186
18212TIP3    H276052   1.170   3.322  13.326 -1.4214 -2.0565  1.8785
18213TIP3   OH276053   2.989   0.633   6.471 -0.1122  0.0884 -0.6243
18213TIP3    H176054   2.941   0.715   6.477  2.8405  1.8855  1.4563
18213TIP3    H276055   2.956   0.580   6.544  0.4142  0.9609  0.2775
18214TIP3   OH276056   6.218   5.986   4.435  0.3170  0.0743  0.3010
18214TIP3    H176057   6.280   6.058   4.427  0.9775 -0.2412  2.1916
18214TIP3    H276058   6.260   5.924   4.494 -0.6647 -1.4214 -0.4993
18215TIP3   OH276059   0.602   3.630   6.010  0.3321 -0.1841 -0.6177
18215TIP3    H176060   0.551   3.564   6.058  3.1138 -1.2212  1.1733
18215TIP3    H276061   0.551   3.711   6.019 -1.5357 -1.3634  0.0281
18216TIP3   OH276062   2.873   5.081   4.485  0.6429 -1.0075  0.5830
18216TIP3    H176063   2.807   5.011   4.480 -1.4542  0.8154  1.3053
18216TIP3    H276064   2.908   5.087   4.396 -0.3374 -1.8468  0.1102
18217TIP3   OH276065   0.005   1.153  16.388  0.3201  0.2131 -0.6183
18217TIP3    H176066   0.011   1.248  16.387 -0.4491  0.5146  3.5874
18217TIP3    H276067  -0.078   1.133  16.345  0.1471  1.5270 -0.9209
18218TIP3   OH276068   1.901   5.673  12.003 -0.0840 -0.5743  0.3686
18218TIP3    H176069   1.817   5.717  12.014  0.5232  0.6532  0.2373
18218TIP3    H276070   1.909   5.617  12.081 -0.2425  0.6215  1.2629
18219TIP3   OH276071   2.714   0.813  11.873 -0.3477 -0.1474  0.2511
18219TIP3    H176072   2.757   0.757  11.809  0.1064 -1.2662  1.4986
18219TIP3    H276073   2.636   0.765  11.899 -0.3321  0.1262  0.8105
18220TIP3   OH276074   4.234   0.665  11.960  0.2359  0.0892 -0.3913
18220TIP3    H176075   4.319   0.630  11.985  0.5287  1.0610  0.0195
18220TIP3    H276076   4.252   0.753  11.929 -0.4734 -0.1489 -1.5217
18221TIP3   OH276077   5.465   2.528  15.980 -0.0059 -0.2132 -0.2259
18221TIP3    H176078   5.499   2.481  15.904  0.8752 -0.3502  0.2418
18221TIP3    H276079   5.409   2.464  16.024 -1.0456  0.0679 -1.0925
18222TIP3   OH276080   0.998   1.889  15.221 -0.2447 -0.6351 -0.1452
18222TIP3    H176081   1.007   1.846  15.136 -2.1484 -0.0075 -0.7063
18222TIP3    H276082   1.085   1.881  15.261  0.4106 -1.8407 -1.7041
18223TIP3   OH276083   6.380   2.557   5.435 -0.4398 -0.1472  0.4371
18223TIP3    H176084   6.457   2.599   5.397  0.0933  0.2639  1.8986
18223TIP3    H276085   6.323   2.630   5.461  0.4864 -0.2034  2.9845
18224TIP3   OH276086   4.225   0.967   5.663  0.1744 -0.2532  0.7669
18224TIP3    H176087   4.280   0.953   5.586  0.7471 -0.9816  1.2907
18224TIP3    H276088   4.286   0.989   5.733 -0.0884 -1.8655  1.5439
18225TIP3   OH276089   6.104   3.907  12.677 -0.1835  0.2518  0.7360
18225TIP3    H176090   6.034   3.873  12.621  1.9426  0.2900 -2.1807
18225TIP3    H276091   6.100   4.002  12.664  3.3422  0.1087 -3.7034
18226TIP3   OH276092   4.832   5.764  11.720  0.2383  0.0119 -0.6444
18226TIP3    H176093   4.854   5.679  11.759 -1.3574  0.1276  0.6368
18226TIP3    H276094   4.747   5.786  11.758  0.0614  1.6389 -1.8739
18227TIP3   OH276095   6.389   5.719   0.460 -0.0590  0.3946 -0.8742
18227TIP3    H176096   6.386   5.721   0.556 -1.4474  1.3808 -0.9119
18227TIP3    H276097   6.482   5.710   0.440  0.1284 -1.8398  0.5551
18228TIP3   OH276098   6.075   6.146   2.795 -0.5276 -0.2582  0.2776
18228TIP3    H176099   6.050   6.163   2.704 -1.1634 -0.8234  0.3328
18228TIP3    H276100   6.016   6.076   2.823  0.0685 -0.5044  0.9405
18229TIP3   OH276101   1.234   2.992   3.979  0.0829 -0.2703 -0.7340
18229TIP3    H176102   1.186   2.918   3.943 -0.2176 -0.4284 -0.0313
18229TIP3    H276103   1.176   3.067   3.967 -0.3699 -0.4637  0.1287
18230TIP3   OH276104   6.278   1.502   3.418 -0.4027  0.0102  0.2461
18230TIP3    H176105   6.262   1.469   3.330 -2.3024  0.8701  0.2205
18230TIP3    H276106   6.294   1.596   3.407 -0.6448  0.1237  0.8074
18231TIP3   OH276107   1.448   4.094   5.037  0.1777 -0.3756 -0.8626
18231TIP3    H176108   1.379   4.028   5.026 -0.6512  0.2506  0.4511
18231TIP3    H276109   1.424   4.142   5.116  1.1600  1.0378 -1.3808
18232TIP3   OH276110   3.419   4.764   4.361  0.0433 -0.1125 -0.4669
18232TIP3    H176111   3.352   4.831   4.357  0.4245  0.2951 -0.2000
18232TIP3    H276112   3.501   4.812   4.371  0.6360 -0.4995 -2.9012
18233TIP3   OH276113   1.115   6.415   4.305  0.0545  0.3494 -0.3823
18233TIP3    H176114   1.082   6.406   4.394 -0.5633  0.4098 -0.5941
18233TIP3    H276115   1.037   6.405   4.250  0.5184 -0.3251 -0.9450
18234TIP3   OH276116   4.992   5.825  15.363 -0.2488  0.2505  0.0946
18234TIP3    H176117   5.051   5.861  15.297 -0.1983 -0.8073 -0.4597
18234TIP3    H276118   4.906   5.822  15.320  0.0701 -1.8531 -0.4974
18235TIP3   OH276119   1.198   3.891  13.179  0.1867 -0.4672 -0.1192
18235TIP3    H176120   1.220   3.858  13.092 -1.6995 -1.6859 -0.1836
18235TIP3    H276121   1.107   3.919  13.173  0.1345 -0.2047  1.3717
18236TIP3   OH276122   4.797   4.696   3.233 -0.1732 -0.2399  0.3512
18236TIP3    H176123   4.862   4.629   3.253  1.2625  0.8086 -0.5805
18236TIP3    H276124   4.843   4.757   3.175 -2.6612 -0.6994 -2.3327
18237TIP3   OH276125   2.048   5.491   3.881  0.2338  0.0428 -0.4426
18237TIP3    H176126   1.959   5.524   3.872  1.0309  2.2631 -0.6907
18237TIP3    H276127   2.049   5.411   3.829 -1.6362 -0.1091 -0.3218
18238TIP3   OH276128   3.516   2.001  11.939 -0.0709  0.2177  0.3395
18238TIP3    H176129   3.477   1.962  11.860  1.2925 -0.5498  0.0162
18238TIP3    H276130   3.511   1.931  12.005 -1.9302  1.1121  1.2286
18239TIP3   OH276131   5.798   2.400  14.278 -0.6054 -0.5848  0.2999
18239TIP3    H176132   5.826   2.402  14.370 -0.0289  1.0310  0.1280
18239TIP3    H276133   5.845   2.326  14.240  0.8617  0.0324  0.8267
18240TIP3   OH276134   2.287   5.407  13.076  0.3843  0.4829  0.1794
18240TIP3    H176135   2.363   5.447  13.118 -0.6286  2.4707  0.2516
18240TIP3    H276136   2.216   5.468  13.093 -0.8283 -0.3848 -1.4855
18241TIP3   OH276137   4.417   5.730   0.146 -0.2988 -0.8608  0.2080
18241TIP3    H176138   4.482   5.662   0.163 -0.4872 -0.7557  1.4655
18241TIP3    H276139   4.458   5.811   0.178 -0.0008 -0.3188 -1.4366
18242TIP3   OH276140   3.298   4.562   0.022  0.4691 -0.5805  0.4068
18242TIP3    H176141   3.318   4.471   0.044  0.3086 -0.8852 -0.6557
18242TIP3    H276142   3.209   4.558  -0.013  0.9751 -0.2515 -0.9844
18243TIP3   OH276143   5.536   0.686  16.390 -0.0912 -0.5821 -0.4248
18243TIP3    H176144   5.581   0.762  16.427  0.0503 -0.4737 -0.8182
18243TIP3    H276145   5.450   0.687  16.431 -0.6433  0.6697 -1.5493
18244TIP3   OH276146   3.382   6.713  12.413  0.0655  0.1752  0.6478
18244TIP3    H176147   3.334   6.762  12.480 -1.8344 -1.6880  0.7759
18244TIP3    H276148   3.315   6.690  12.348  1.2210 -0.7390 -0.2602
18245TIP3   OH276149   5.771   5.323  11.792 -0.2444 -0.5367  0.7400
18245TIP3    H176150   5.819   5.248  11.827  2.9975  0.4293 -1.2189
18245TIP3    H276151   5.806   5.398  11.840 -0.1514  0.1417 -0.3544
18246TIP3   OH276152   4.896   5.567  11.239 -0.0300 -0.4438 -0.0759
18246TIP3    H176153   4.836   5.640  11.222 -0.2288 -0.4948  0.3888
18246TIP3    H276154   4.854   5.518  11.310  0.1952 -0.9043 -0.2601
18247TIP3   OH276155   2.371   5.054   4.068 -0.2580 -0.1434 -0.0688
18247TIP3    H176156   2.413   4.974   4.035  0.0983 -0.0287  0.0968
18247TIP3    H276157   2.366   5.040   4.163  0.2375  0.2287  0.0162
18248TIP3   OH276158   3.452   4.329   1.874  0.3010 -0.3076 -0.5908
18248TIP3    H176159   3.483   4.238   1.870  0.6864 -0.2580  0.6080
18248TIP3    H276160   3.495   4.365   1.952 -3.4165 -0.4853  1.8108
18249TIP3   OH276161   5.185   1.248   1.680  0.1736 -0.1115  0.9719
18249TIP3    H176162   5.190   1.162   1.639  0.1363  0.7240 -0.8632
18249TIP3    H276163   5.274   1.283   1.675 -0.1416  0.6105  0.2019
18250TIP3   OH276164   5.962   1.984  14.036  0.0565 -0.4332  0.4636
18250TIP3    H176165   5.909   1.963  13.959 -0.5847 -1.4828  1.1605
18250TIP3    H276166   6.044   1.935  14.023  2.3353  3.5245 -2.1082
18251TIP3   OH276167   5.530   1.826  12.185  0.2506 -0.0512 -0.1545
18251TIP3    H176168   5.438   1.800  12.178 -0.3414  2.0054 -0.6611
18251TIP3    H276169   5.564   1.822  12.096  0.3435  0.2570 -0.1340
18252TIP3   OH276170   4.249   3.164  15.604 -0.3359  0.1548 -0.2080
18252TIP3    H176171   4.194   3.242  15.614 -1.2903 -0.4861 -0.3471
18252TIP3    H276172   4.220   3.125  15.522  0.5039 -0.0675 -0.4067
18253TIP3   OH276173   0.018   0.698   1.187  0.1751  0.2623 -0.1653
18253TIP3    H176174   0.018   0.747   1.104  2.4197  0.5953 -0.0316
18253TIP3    H276175   0.107   0.707   1.220 -0.7740  0.5913  2.5854
18254TIP3   OH276176   4.206   4.799  16.276  0.0621  0.0998  0.1123
18254TIP3    H176177   4.250   4.743  16.213 -0.0242  0.7700 -0.5499
18254TIP3    H276178   4.243   4.886  16.262 -0.0488  0.2885  0.8978
18255TIP3   OH276179   6.290   4.043   4.148  0.2120  0.3392 -0.1772
18255TIP3    H176180   6.351   4.042   4.075  0.5304  1.1630  0.0654
18255TIP3    H276181   6.204   4.032   4.108  0.3396  1.2799 -0.7324
18256TIP3   OH276182   6.322   4.964  15.035  0.3101 -0.2188 -0.5225
18256TIP3    H176183   6.349   4.904  15.105 -1.8556  0.9059  1.4082
18256TIP3    H276184   6.231   4.941  15.018 -0.2408  1.7856 -0.5016
18257TIP3   OH276185   1.243   3.624   2.776 -0.1013  0.4287 -0.3674
18257TIP3    H176186   1.305   3.612   2.704  0.7223 -1.1917  0.5604
18257TIP3    H276187   1.245   3.718   2.794  0.4438  0.7115 -1.7617
18258TIP3   OH276188   3.158   3.081  12.348 -0.1387  0.3202  0.8105
18258TIP3    H176189   3.065   3.099  12.358 -0.3236  0.4224 -0.8351
18258TIP3    H276190   3.164   2.986  12.353 -0.2546  0.3456  1.4642
18259TIP3   OH276191   0.345   0.956   1.436  0.0257 -0.1054 -0.3068
18259TIP3    H176192   0.422   1.010   1.417  0.4510 -0.1832  1.0455
18259TIP3    H276193   0.284   0.974   1.365  1.0634  0.4049 -1.0994
18260TIP3   OH276194   0.115   3.762  15.810 -0.6091  0.1023 -0.0295
18260TIP3    H176195   0.183   3.776  15.745 -1.2355  2.6352 -0.2278
18260TIP3    H276196   0.156   3.788  15.893 -0.4563 -1.1776  0.3196
18261TIP3   OH276197   2.360   1.711   5.461  0.7687  0.2757 -0.2743
18261TIP3    H176198   2.426   1.714   5.392  0.4452 -1.8900 -0.7448
18261TIP3    H276199   2.301   1.784   5.441  1.5688  0.6542 -1.3407
18262TIP3   OH276200   4.389   4.466   6.273 -0.1127 -0.7384 -0.1007
18262TIP3    H176201   4.339   4.547   6.273  1.5414  0.4175  2.3137
18262TIP3    H276202   4.326   4.399   6.298 -1.3753 -0.1460 -1.5273
18263TIP3   OH276203   1.563   6.140  16.946  0.0898 -0.0214 -0.0587
18263TIP3    H176204   1.648   6.147  16.902  1.0471 -0.4854  1.6183
18263TIP3    H276205   1.518   6.068  16.902  1.4565 -1.1918  0.3847
18264TIP3   OH276206   0.119   3.573  13.899 -0.0281 -0.7035  0.1508
18264TIP3    H176207   0.096   3.650  13.951  0.5961 -1.2207  1.2297
18264TIP3    H276208   0.039   3.553  13.850 -0.3737  0.2871  0.2797
18265TIP3   OH276209   0.718   2.421  15.150 -0.2266 -0.2673 -0.2231
18265TIP3    H176210   0.684   2.450  15.234 -0.0915 -0.7957  0.0211
18265TIP3    H276211   0.641   2.389  15.102 -0.5881  1.6732 -1.0165
18266TIP3   OH276212   2.206   3.050  16.950  0.2802 -0.2912  0.4891
18266TIP3    H176213   2.139   3.065  16.883  0.3585 -0.0434  0.4652
18266TIP3    H276214   2.255   3.132  16.954 -0.4429  0.1181  1.6508
18267TIP3   OH276215   3.392   6.375  12.878 -0.1155 -0.2256  0.4201
18267TIP3    H176216   3.327   6.310  12.850  0.6981 -0.1158 -1.9381
18267TIP3    H276217   3.409   6.427  12.799  1.7416  0.7045  1.3775
18268TIP3   OH276218   2.096   1.106  14.882 -0.1216 -0.3562  0.2352
18268TIP3    H176219   2.138   1.192  14.881 -0.6322 -0.1016 -0.4378
18268TIP3    H276220   2.161   1.047  14.920  0.6520  0.1140 -0.3480
18269TIP3   OH276221   1.735   5.955   5.005  0.5103 -0.1128 -0.4050
18269TIP3    H176222   1.830   5.946   5.002  0.5719  0.4087  0.0101
18269TIP3    H276223   1.707   5.890   5.070  0.5632 -0.3811 -0.6468
18270TIP3   OH276224   5.939   0.486   4.727  0.1959 -0.1153  0.0643
18270TIP3    H176225   6.026   0.494   4.764 -0.2191 -3.2829  2.1208
18270TIP3    H276226   5.879   0.499   4.800 -0.9284 -0.8236 -0.6827
18271TIP3   OH276227   0.865   2.579   5.170  0.1527  0.1660  0.2017
18271TIP3    H176228   0.898   2.654   5.221  0.6943  0.4151 -0.5033
18271TIP3    H276229   0.782   2.556   5.213  0.2204  0.8579  0.7266
18272TIP3   OH276230   4.048   1.388  10.459 -0.0069  0.0092 -0.0546
18272TIP3    H176231   4.063   1.372  10.366  0.7883  0.5100 -0.0226
18272TIP3    H276232   4.093   1.317  10.503  0.0549  0.0575 -0.0398
18273TIP3   OH276233   6.076   1.619   2.951 -0.2373 -0.2318 -0.2672
18273TIP3    H176234   6.036   1.590   2.869 -0.1219 -1.5059  0.0943
18273TIP3    H276235   6.163   1.649   2.925 -0.7489  0.8282 -0.8048
18274TIP3   OH276236   4.773   6.806   2.281  0.1085 -0.1146  0.1882
18274TIP3    H176237   4.809   6.853   2.357  3.4926 -0.5334 -0.9926
18274TIP3    H276238   4.735   6.727   2.319 -0.2835  0.7346  1.6507
18275TIP3   OH276239   0.589   3.243   5.732 -0.0677 -0.3082  0.1306
18275TIP3    H176240   0.673   3.220   5.773 -0.7800 -0.9196  1.2777
18275TIP3    H276241   0.609   3.248   5.638  1.0041 -1.5862  0.2615
18276TIP3   OH276242   5.851   5.387   1.367  0.2954 -0.0543 -0.1232
18276TIP3    H176243   5.923   5.331   1.396  0.7166  0.0188 -1.0054
18276TIP3    H276244   5.860   5.467   1.419  0.4833 -0.2827  0.1991
18277TIP3   OH276245   5.471   6.171  16.463 -0.2641 -0.2026 -0.2259
18277TIP3    H176246   5.415   6.243  16.433 -1.5389 -1.0916 -0.0959
18277TIP3    H276247   5.507   6.201  16.546 -1.6018 -0.0780  0.3469
18278TIP3   OH276248   6.449   3.575   1.287 -0.0917 -0.0127 -0.2242
18278TIP3    H176249   6.478   3.630   1.360 -0.1680 -0.4616  0.1439
18278TIP3    H276250   6.368   3.535   1.318 -0.6844  0.5941 -0.9442
18279TIP3   OH276251   1.898   5.769  11.546 -0.2689  0.0719  0.1870
18279TIP3    H176252   1.838   5.792  11.617 -0.3416 -0.9794  0.4859
18279TIP3    H276253   1.894   5.673  11.541  1.3340 -0.0269  0.1893
18280TIP3   OH276254   2.743   1.646   3.765 -0.0925  0.5917 -0.1472
18280TIP3    H176255   2.732   1.628   3.859  3.8996  2.2139  0.8664
18280TIP3    H276256   2.806   1.580   3.736 -3.0853 -1.4940 -2.5361
18281TIP3   OH276257   6.100   2.937   1.277 -0.1692  0.3038 -1.0325
18281TIP3    H176258   6.195   2.933   1.275  0.1305  2.1030  2.5208
18281TIP3    H276259   6.078   3.011   1.221  0.6214  0.5929 -0.9705
18282TIP3   OH276260   6.683   5.743   2.537 -0.3830 -0.0051  0.5480
18282TIP3    H176261   6.681   5.830   2.497  0.2287 -0.1915  0.1086
18282TIP3    H276262   6.603   5.740   2.591 -1.0857  0.3397 -0.4406
18283TIP3   OH276263   3.997   1.488   1.041 -0.0644  0.0526 -0.0685
18283TIP3    H176264   4.021   1.566   1.090  1.0482 -0.7850  0.7569
18283TIP3    H276265   3.906   1.471   1.066 -0.0139  0.5498  0.4660
18284TIP3   OH276266   5.682   1.848  16.772  0.3979 -0.8506 -0.5474
18284TIP3    H176267   5.635   1.765  16.769  0.1761 -0.7112 -1.2865
18284TIP3    H276268   5.740   1.846  16.696  1.6553 -1.0389  0.3739
18285TIP3   OH276269   4.076   5.117   1.159  0.4794 -0.0003  0.7587
18285TIP3    H176270   4.062   5.130   1.252  3.0270  0.3569  1.1615
18285TIP3    H276271   4.090   5.206   1.124  0.4852 -0.2104  0.2148
18286TIP3   OH276272   3.018   2.952  14.842 -0.2390 -0.3788  0.1031
18286TIP3    H176273   3.019   3.048  14.840 -0.8670 -0.3810 -0.3451
18286TIP3    H276274   3.105   2.929  14.875 -0.5387  0.3707  1.5249
18287TIP3   OH276275   5.890   2.338   5.141  0.9899  0.0695 -0.4379
18287TIP3    H176276   5.961   2.391   5.176 -0.8194  2.7438 -0.5225
18287TIP3    H276277   5.810   2.381   5.172 -0.6392 -0.8100 -3.1021
18288TIP3   OH276278   2.223   3.709   6.494  0.1495  0.7187 -0.5375
18288TIP3    H176279   2.239   3.677   6.583  2.3040 -0.2909 -1.2351
18288TIP3    H276280   2.128   3.711   6.487 -0.0774  0.5493  1.6948
18289TIP3   OH276281   2.843   2.137  10.439  0.3918 -0.3715  0.0642
18289TIP3    H176282   2.916   2.198  10.432  0.2052  0.1154  1.8192
18289TIP3    H276283   2.860   2.088  10.519 -1.8069  0.6373  1.2381
18290TIP3   OH276284   0.648   4.891  12.086  0.4201  0.4620 -0.4577
18290TIP3    H176285   0.624   4.803  12.057  0.7567 -0.9311  2.9804
18290TIP3    H276286   0.565   4.932  12.110  0.3858  0.5535 -0.7300
18291TIP3   OH276287   3.531   3.558   5.875 -0.5195  0.1530 -0.2117
18291TIP3    H176288   3.621   3.531   5.894 -0.3314 -0.3151 -1.6695
18291TIP3    H276289   3.483   3.475   5.867 -0.7955  0.3639 -0.7454
18292TIP3   OH276290   6.367   5.287   3.519 -0.2904  0.1741  0.4002
18292TIP3    H176291   6.302   5.340   3.565 -0.3643  1.5511 -1.2129
18292TIP3    H276292   6.316   5.221   3.472 -0.3492 -0.0350  0.7510
18293TIP3   OH276293   3.595   6.692   3.949 -0.5746 -0.3247  0.2620
18293TIP3    H176294   3.616   6.709   4.041  2.1104 -1.8060  0.0352
18293TIP3    H276295   3.640   6.610   3.929 -3.5042 -1.6044 -1.6471
18294TIP3   OH276296   0.436   0.326  13.478  0.0978 -0.1559  0.4497
18294TIP3    H176297   0.447   0.231  13.476 -1.3472 -0.3454 -1.2540
18294TIP3    H276298   0.477   0.353  13.560  1.5224 -2.1039  0.4438
18295TIP3   OH276299   4.068   1.920  12.353  1.1635  0.6372 -0.0315
18295TIP3    H176300   4.131   1.986  12.326  0.0714  1.4381 -0.6837
18295TIP3    H276301   4.119   1.839  12.359  2.2363  1.2588 -0.5613
18296TIP3   OH276302   3.065   5.620  11.815  0.3821  0.4144 -0.0667
18296TIP3    H176303   3.112   5.559  11.759 -0.1525  0.1214 -0.2044
18296TIP3    H276304   3.134   5.672  11.858  0.8854 -0.9844  0.8666
18297TIP3   OH276305   2.243   5.369   3.433 -0.5752 -0.5801  0.4345
18297TIP3    H176306   2.309   5.302   3.417  1.7234  1.5052  0.6622
18297TIP3    H276307   2.177   5.354   3.365  0.5544 -2.1892 -0.3676
18298TIP3   OH276308   2.905   2.437   5.982 -0.6472  0.0209  0.2321
18298TIP3    H176309   2.828   2.492   5.965 -1.7393 -0.7951  2.1538
18298TIP3    H276310   2.953   2.486   6.049 -0.1768 -0.0816 -0.0324
18299TIP3   OH276311   4.588   4.795   1.595  0.0513 -0.5607 -0.0701
18299TIP3    H176312   4.493   4.800   1.586 -0.1184 -0.0137  1.6031
18299TIP3    H276313   4.619   4.760   1.511 -1.5386  0.0207 -0.9376
18300TIP3   OH276314   4.799   6.786   5.518 -0.0909  0.4048 -0.8329
18300TIP3    H176315   4.788   6.874   5.554 -1.4825  0.0486 -0.3205
18300TIP3    H276316   4.789   6.798   5.423 -0.0904  0.8241 -0.7810
18301TIP3   OH276317   4.751   5.533  10.817 -0.0988  0.0187  0.2933
18301TIP3    H176318   4.811   5.484  10.874  1.2095  2.4374  1.1712
18301TIP3    H276319   4.809   5.583  10.759 -1.2079  2.0222  0.7947
18302TIP3   OH276320   5.278   2.006  16.167  0.6028 -0.2774  0.1375
18302TIP3    H176321   5.318   2.001  16.254  1.1116 -2.0440 -0.1644
18302TIP3    H276322   5.348   2.035  16.109  0.2264  1.0416  0.3092
18303TIP3   OH276323   5.996   1.130   4.313  0.4094 -0.3913  0.1249
18303TIP3    H176324   6.087   1.161   4.315  0.0735  0.5831  0.8342
18303TIP3    H276325   5.944   1.206   4.340 -0.9499  0.1586 -3.5563
18304TIP3   OH276326   4.183   6.590  12.207 -0.2603  0.5032  0.1347
18304TIP3    H176327   4.231   6.661  12.164  0.2193  0.3600  0.4259
18304TIP3    H276328   4.170   6.621  12.297  1.4804 -0.4696  0.7764
18305TIP3   OH276329   2.917   0.075  12.764  0.1210  1.2952 -0.6416
18305TIP3    H176330   2.994   0.124  12.795  0.6265  0.2177 -0.1070
18305TIP3    H276331   2.923   0.079  12.669  1.1836  0.7442 -0.6167
18306TIP3   OH276332   3.599   0.630  14.395  0.5984 -0.3310  0.1765
18306TIP3    H176333   3.666   0.634  14.326  0.3692  1.0115 -0.0021
18306TIP3    H276334   3.646   0.604  14.473  1.3215  0.4651  0.0223
18307TIP3   OH276335   5.760   4.246  16.309 -0.1144 -0.7385 -0.6964
18307TIP3    H176336   5.759   4.230  16.403  0.9504 -0.8225 -0.6843
18307TIP3    H276337   5.677   4.211  16.277 -1.5353  1.3095  0.5187
18308TIP3   OH276338   0.640   2.849   2.505 -0.2460 -0.2982  0.4837
18308TIP3    H176339   0.733   2.842   2.484 -0.4360 -0.7019 -0.2684
18308TIP3    H276340   0.636   2.914   2.575  0.5760 -0.0855  0.3451
18309TIP3   OH276341   2.131   4.420  11.153 -0.0733 -0.3039 -0.5992
18309TIP3    H176342   2.122   4.513  11.176 -1.1318 -0.1323 -1.5934
18309TIP3    H276343   2.210   4.416  11.100 -0.8250  0.3210 -1.8262
18310TIP3   OH276344   3.637   3.150   6.098  0.1950 -0.3458  0.6526
18310TIP3    H176345   3.590   3.095   6.161  0.1954 -1.0324  0.0756
18310TIP3    H276346   3.572   3.170   6.031 -0.0235  1.0366  1.2443
18311TIP3   OH276347   1.864   5.323   5.431  0.3405  0.2235  0.4312
18311TIP3    H176348   1.863   5.416   5.451 -0.7289  0.7641 -1.7783
18311TIP3    H276349   1.782   5.307   5.384  0.0805 -2.0356  1.4920
18312TIP3   OH276350   4.351   2.397   2.746 -0.3310 -0.3116  0.4312
18312TIP3    H176351   4.405   2.424   2.820 -0.7586 -1.9908  1.3906
18312TIP3    H276352   4.408   2.339   2.695 -0.1279  0.6228 -0.4324
18313TIP3   OH276353   0.387   1.172  15.695 -0.6257  0.4676  0.2771
18313TIP3    H176354   0.336   1.098  15.729  1.6352 -0.9757  0.6914
18313TIP3    H276355   0.431   1.137  15.618 -0.7752  1.8942 -0.4773
18314TIP3   OH276356   0.455   4.009  15.636  0.4440 -0.3747 -0.5066
18314TIP3    H176357   0.519   4.042  15.699 -0.8193  0.7423  0.2446
18314TIP3    H276358   0.464   4.068  15.561 -2.1959  2.2730  1.0488
18315TIP3   OH276359   4.172   3.163  13.481  0.4830  0.2223 -0.2337
18315TIP3    H176360   4.138   3.205  13.560 -0.9971  0.0053 -0.7139
18315TIP3    H276361   4.200   3.076  13.510 -2.0288 -0.6796 -0.2524
18316TIP3   OH276362   1.395   0.001  12.328 -0.2605  0.1866 -0.4436
18316TIP3    H176363   1.339  -0.066  12.366  0.0983 -0.5805 -1.2278
18316TIP3    H276364   1.364   0.009  12.237 -1.0892  1.9577 -0.0591
18317TIP3   OH276365   5.386   4.833   3.746  0.0715 -0.0728 -0.1592
18317TIP3    H176366   5.442   4.895   3.698 -0.5121  0.7535  0.2040
18317TIP3    H276367   5.304   4.881   3.760 -0.3314 -0.8749  0.2844
18318TIP3   OH276368   2.705   6.248   1.172 -0.1362  0.3303  0.6822
18318TIP3    H176369   2.710   6.253   1.076  2.4016  3.4037  0.7797
18318TIP3    H276370   2.647   6.320   1.196 -0.0473  0.1337  1.4907
18319TIP3   OH276371   1.674   2.870  15.819  0.6006  0.0945 -0.1363
18319TIP3    H176372   1.678   2.840  15.728 -1.3003 -0.9633  0.0706
18319TIP3    H276373   1.749   2.828  15.861  0.4765 -0.8759 -0.8404
18320TIP3   OH276374   0.713   4.310  12.923 -0.4464 -0.1016 -0.5273
18320TIP3    H176375   0.795   4.345  12.888  0.2106 -1.6973 -0.6596
18320TIP3    H276376   0.707   4.346  13.011 -0.2735  1.0532 -0.9686
18321TIP3   OH276377   4.874   4.942   6.664 -0.2562 -0.1213 -0.2491
18321TIP3    H176378   4.784   4.927   6.692 -0.0069  1.0619  1.3689
18321TIP3    H276379   4.923   4.867   6.699 -0.2929  0.3147  0.7929
18322TIP3   OH276380   1.355   0.681  10.820  0.1596  0.5695  0.0274
18322TIP3    H176381   1.410   0.756  10.796  1.2165 -0.0164  0.5721
18322TIP3    H276382   1.404   0.605  10.790 -0.6396  0.0591 -0.0059
18323TIP3   OH276383   0.574   4.304   2.384 -0.5733 -0.0442 -0.8044
18323TIP3    H176384   0.619   4.228   2.347 -1.6289 -1.3371  0.4456
18323TIP3    H276385   0.604   4.377   2.330  2.4391 -0.9011 -0.4941
18324TIP3   OH276386   2.041   6.421  16.646 -0.5353 -0.0056  0.7971
18324TIP3    H176387   2.120   6.379  16.680  0.2380 -1.4153 -2.3271
18324TIP3    H276388   2.074   6.492  16.590 -1.6322  1.1908  1.6171
18325TIP3   OH276389   4.014   1.437   2.719 -0.3315 -0.3032  0.4864
18325TIP3    H176390   4.075   1.445   2.645 -0.8924  0.0704  0.0623
18325TIP3    H276391   3.935   1.483   2.691 -0.8752 -0.9192  0.9721
18326TIP3   OH276392   4.571   4.178   5.138 -0.7725 -0.2755 -0.4572
18326TIP3    H176393   4.613   4.101   5.174  0.7830  0.6852 -0.1397
18326TIP3    H276394   4.558   4.157   5.045  0.3148 -0.6457 -0.5386
18327TIP3   OH276395   5.756   4.956  14.529  0.7133  0.5400 -0.6766
18327TIP3    H176396   5.672   4.912  14.547  0.8328 -0.4991 -2.4938
18327TIP3    H276397   5.758   5.029  14.592 -0.0777 -1.2531  1.5806
18328TIP3   OH276398   4.407   6.012   3.554 -0.9381  0.5033  0.0012
18328TIP3    H176399   4.437   6.011   3.463 -0.6365 -0.8443  0.0931
18328TIP3    H276400   4.372   6.101   3.567 -0.0848  1.0323 -1.1250
18329TIP3   OH276401   1.436   2.221  14.276  0.0418  0.2848  0.3619
18329TIP3    H176402   1.384   2.287  14.322  0.6722  0.7867  0.3695
18329TIP3    H276403   1.465   2.265  14.196  0.3239 -0.0429  0.2798
18330TIP3   OH276404   3.140   1.778  11.539 -0.1262  0.2353 -0.0901
18330TIP3    H176405   3.209   1.753  11.478 -0.3998  1.3222 -0.8631
18330TIP3    H276406   3.179   1.763  11.626  0.4844 -0.7281 -0.5111
18331TIP3   OH276407   0.767   1.715  16.573 -0.0157 -0.6764  0.2205
18331TIP3    H176408   0.846   1.668  16.599 -0.4328 -1.9902 -0.7583
18331TIP3    H276409   0.736   1.668  16.495 -1.7180 -0.1689  0.5459
18332TIP3   OH276410   1.984   5.859   1.350  0.0592 -0.0709 -0.4017
18332TIP3    H176411   1.984   5.954   1.347 -0.6397 -0.0137  0.9295
18332TIP3    H276412   1.923   5.833   1.280 -1.2457  0.5321  0.4727
18333TIP3   OH276413   0.292   0.261   1.375  0.0790 -0.0493 -0.2892
18333TIP3    H176414   0.255   0.300   1.454 -1.0379 -1.3510 -0.1214
18333TIP3    H276415   0.368   0.315   1.354  1.2029 -0.4450  2.4324
18334TIP3   OH276416   1.691   6.092   5.701 -0.2846  0.1871 -0.1434
18334TIP3    H176417   1.695   6.034   5.776  3.9126  0.4149  0.0215
18334TIP3    H276418   1.673   6.178   5.738  0.4808  0.0850  0.4911
18335TIP3   OH276419   5.071   1.163  12.875  0.5848  0.5245  0.5986
18335TIP3    H176420   5.050   1.246  12.832 -1.0904  0.1280  0.5803
18335TIP3    H276421   5.025   1.167  12.959 -1.1511 -1.1390 -0.1955
18336TIP3   OH276422   6.282   3.280   2.457  0.0137 -0.1200  0.5478
18336TIP3    H176423   6.198   3.267   2.501  0.4347  0.1807  1.4735
18336TIP3    H276424   6.306   3.193   2.425 -1.3761  0.0573 -1.1223
18337TIP3   OH276425   2.954   1.716  11.376 -0.0452 -0.3352  0.1083
18337TIP3    H176426   2.867   1.685  11.402  0.2457 -0.3775  1.0597
18337TIP3    H276427   3.012   1.687  11.447  0.9001 -1.0683 -0.9380
18338TIP3   OH276428   0.513   2.151   0.732 -0.0373 -0.1228 -0.2645
18338TIP3    H176429   0.475   2.106   0.807  1.4061 -2.8107 -1.0119
18338TIP3    H276430   0.438   2.168   0.674 -0.8628  0.0899  0.8291
18339TIP3   OH276431   2.786   1.741  15.261 -0.2712 -0.5075 -0.0410
18339TIP3    H176432   2.758   1.774  15.346 -2.0951 -1.1629 -0.3347
18339TIP3    H276433   2.759   1.808  15.199 -0.0726 -0.5964 -0.2245
18340TIP3   OH276434   2.347   6.467  10.973 -0.1214 -0.1098 -0.0703
18340TIP3    H176435   2.422   6.518  10.945  0.5158 -0.3832  1.0432
18340TIP3    H276436   2.367   6.377  10.945 -0.1600 -0.1307 -0.0323
18341TIP3   OH276437   1.754   4.246  15.429  0.1412 -0.2262  0.8926
18341TIP3    H176438   1.834   4.207  15.462 -0.0186  0.0732  1.6519
18341TIP3    H276439   1.780   4.290  15.348  0.7688 -0.0186  1.2019
18342TIP3   OH276440   4.980   0.431  10.811  0.3497  0.3177  0.7704
18342TIP3    H176441   5.001   0.371  10.740  0.5848  1.3669 -0.0699
18342TIP3    H276442   4.894   0.402  10.842  0.7437 -0.8431  0.8224
18343TIP3   OH276443   5.543   5.505  12.823  0.1456 -0.1927 -0.5625
18343TIP3    H176444   5.513   5.559  12.750 -1.0492 -0.8039 -0.5424
18343TIP3    H276445   5.540   5.416  12.789  1.9573 -0.3031 -0.5488
18344TIP3   OH276446   5.767   4.792   2.622  0.0534 -0.3515 -0.2881
18344TIP3    H176447   5.716   4.772   2.700  2.0246  0.2094  1.2384
18344TIP3    H276448   5.778   4.887   2.625  1.9304 -0.5298  0.0073
18345TIP3   OH276449   3.045   1.975   3.885  0.5572  0.3180  0.1310
18345TIP3    H176450   3.101   1.898   3.896  1.2021  0.9250  1.3786
18345TIP3    H276451   3.100   2.038   3.839  0.5338  0.5192  0.3732
18346TIP3   OH276452   3.945   4.172  15.352  0.1346  0.2649  0.1839
18346TIP3    H176453   3.953   4.111  15.426 -1.2787 -1.8104 -1.2559
18346TIP3    H276454   3.992   4.129  15.281 -0.8226  0.8853 -0.8514
18347TIP3   OH276455   0.294   1.215   0.598 -0.3630 -0.3998  0.1253
18347TIP3    H176456   0.280   1.224   0.692 -0.0854 -1.0246  0.2277
18347TIP3    H276457   0.232   1.148   0.570  0.9719 -1.7348  0.2357
18348TIP3   OH276458   4.891   0.077  11.715 -0.2685  0.3842 -0.4642
18348TIP3    H176459   4.955   0.013  11.684 -2.0762 -1.1771 -1.1766
18348TIP3    H276460   4.819   0.024  11.749 -0.9029  2.0793  1.0174
18349TIP3   OH276461   1.231   5.863   5.745 -0.3204  0.1409 -0.2471
18349TIP3    H176462   1.251   5.900   5.659 -1.5011 -0.1711 -0.6773
18349TIP3    H276463   1.161   5.800   5.728 -0.1514 -0.3685  0.8619
18350TIP3   OH276464   0.578   6.549  13.702  0.3168  0.3845 -0.0496
18350TIP3    H176465   0.655   6.557  13.759  1.2381  0.8267 -1.3199
18350TIP3    H276466   0.570   6.455  13.686 -0.4740  0.1616  1.4680
18351TIP3   OH276467   5.532   4.141  11.688 -0.1256  0.1609  0.6686
18351TIP3    H176468   5.441   4.146  11.659  0.5308  1.6685 -1.3921
18351TIP3    H276469   5.528   4.101  11.775 -2.7998  0.8436  0.9406
18352TIP3   OH276470   0.727   3.182  12.687  0.3155  0.3208  0.2163
18352TIP3    H176471   0.716   3.190  12.782  2.1300  1.1822  0.3820
18352TIP3    H276472   0.815   3.214  12.670 -0.5475  1.7471 -1.9703
18353TIP3   OH276473   5.040   4.791  14.208  0.6732 -0.2062 -0.9489
18353TIP3    H176474   5.135   4.779  14.203  0.4265 -2.1526 -1.6105
18353TIP3    H276475   5.018   4.773  14.300  1.0598  1.5639 -0.4675
18354TIP3   OH276476   6.358   3.831   6.460  0.1390 -0.5075  0.0183
18354TIP3    H176477   6.441   3.825   6.414 -0.0469 -1.7179 -0.1983
18354TIP3    H276478   6.301   3.879   6.400  0.2208 -1.0934 -0.5388
18355TIP3   OH276479   1.762   2.949  12.902 -0.3972 -0.7586 -0.3153
18355TIP3    H176480   1.802   2.903  12.829  0.0084  0.7026 -1.0560
18355TIP3    H276481   1.828   3.011  12.931 -0.4294 -1.5195  1.5349
18356TIP3   OH276482   4.353   3.040   2.358 -0.3689 -0.3543  0.3188
18356TIP3    H176483   4.300   3.070   2.432 -0.2621 -0.5858  0.4951
18356TIP3    H276484   4.291   3.020   2.289 -0.7126 -2.4521  1.1489
18357TIP3   OH276485   2.628   6.410  10.875 -0.5379  0.1207 -0.4803
18357TIP3    H176486   2.563   6.342  10.891  0.3567 -0.5504  0.4044
18357TIP3    H276487   2.694   6.368  10.820  0.7251 -0.1867  1.1998
18358TIP3   OH276488   6.787   6.604  12.911 -0.1213  0.2090 -0.5310
18358TIP3    H176489   6.754   6.661  12.842  0.7293  0.1147 -1.0218
18358TIP3    H276490   6.713   6.547  12.932 -0.6186  0.7268 -0.8387
18359TIP3   OH276491   1.545   0.219   0.871 -0.5072  0.4595 -0.2287
18359TIP3    H176492   1.556   0.214   0.776 -1.9592 -1.1730 -0.3596
18359TIP3    H276493   1.579   0.136   0.903  1.2669  1.5612  0.8688
18360TIP3   OH276494   5.218   2.095   3.255 -0.8879 -0.2783  0.1876
18360TIP3    H176495   5.237   2.021   3.313  0.9191  1.2368  1.6564
18360TIP3    H276496   5.258   2.070   3.171  0.2503 -0.7349  0.8483
18361TIP3   OH276497   2.678   4.377   3.005  0.0944 -0.3469  0.4468
18361TIP3    H176498   2.629   4.400   3.084 -0.0049 -1.3067  0.6816
18361TIP3    H276499   2.741   4.448   2.993  0.1427 -0.2193  1.4131
18362TIP3   OH276500   3.575   4.088   1.810  0.2428 -0.0690  0.1876
18362TIP3    H176501   3.546   4.037   1.735  3.1263 -0.9721 -0.4516
18362TIP3    H276502   3.563   4.031   1.886 -0.6774  0.0273  0.1180
18363TIP3   OH276503   4.785   4.916   0.397  0.4870 -0.4621  0.0482
18363TIP3    H176504   4.881   4.922   0.392  0.3814  0.6551 -0.9771
18363TIP3    H276505   4.757   4.902   0.307 -0.2266 -2.9077  0.5698
18364TIP3   OH276506   6.716   4.456  14.919 -0.1128  0.1707  0.3514
18364TIP3    H176507   6.668   4.374  14.920  1.1086 -0.5793  0.1085
18364TIP3    H276508   6.791   4.439  14.861  0.3717  1.3309  0.6029
18365TIP3   OH276509   2.372   1.492  16.551  0.0466 -0.4105  0.2205
18365TIP3    H176510   2.406   1.482  16.640 -0.1332 -1.1372  0.2117
18365TIP3    H276511   2.381   1.586  16.533 -1.2448  0.0042  1.5328
18366TIP3   OH276512   2.956   0.012  13.485 -0.2167 -0.3429  0.0974
18366TIP3    H176513   3.036   0.063  13.476  0.4973 -1.5491 -0.7910
18366TIP3    H276514   2.906   0.056  13.553  0.8688  0.8655  0.1392
18367TIP3   OH276515   3.840   2.334  11.780  0.0479  0.3575 -0.2841
18367TIP3    H176516   3.798   2.268  11.835  1.8264  0.0442  0.7786
18367TIP3    H276517   3.772   2.359  11.717 -0.4978 -2.9988 -1.2365
18368TIP3   OH276518   4.749   2.960   4.155 -0.6166 -0.3411 -0.8859
18368TIP3    H176519   4.734   3.040   4.106 -0.3934 -0.4421 -1.1237
18368TIP3    H276520   4.661   2.924   4.170 -0.8019  0.5447  0.2490
18369TIP3   OH276521   5.278   3.181   5.990 -0.1085  0.0607 -0.0234
18369TIP3    H176522   5.242   3.252   6.043  0.2653  0.1217  0.1522
18369TIP3    H276523   5.344   3.224   5.934 -1.0780  0.1470 -1.1425
18370TIP3   OH276524   4.598   0.581  14.030  0.5329  0.2463  0.1496
18370TIP3    H176525   4.638   0.655  13.983 -1.3390 -0.3353 -2.6251
18370TIP3    H276526   4.672   0.527  14.057  1.8306  1.8465 -0.0246
18371TIP3   OH276527   1.045   3.464   5.749  0.6350  0.0939 -0.0110
18371TIP3    H176528   0.968   3.515   5.774  0.6834  0.0949  0.1398
18371TIP3    H276529   1.115   3.499   5.804  1.2145  1.4913 -1.5659
18372TIP3   OH276530   3.388   2.586   5.996  0.0254 -0.1431  0.1212
18372TIP3    H176531   3.432   2.660   6.039 -0.6885  0.8185 -0.7508
18372TIP3    H276532   3.409   2.596   5.903 -0.4859 -0.7528 -0.0642
18373TIP3   OH276533   2.048   3.937  16.999 -0.3654 -0.5712  0.3236
18373TIP3    H176534   2.012   4.012  16.951  0.3739 -1.0693 -1.0516
18373TIP3    H276535   2.038   3.961  17.091 -0.9672  0.8210 -0.0758
18374TIP3   OH276536   5.954   0.785   2.813 -0.0384 -0.2231 -0.0334
18374TIP3    H176537   5.948   0.774   2.908  1.4927  0.4597  0.1715
18374TIP3    H276538   5.945   0.880   2.799  1.0549 -0.1676 -0.4381
18375TIP3   OH276539   3.255   3.191   4.295 -0.3186 -0.3377 -0.0102
18375TIP3    H176540   3.166   3.192   4.260 -0.2283 -1.2388 -0.2920
18375TIP3    H276541   3.250   3.245   4.374 -1.2624 -0.8535  0.3112
18376TIP3   OH276542   0.380   4.623  13.225  0.0360 -0.6115  0.1381
18376TIP3    H176543   0.453   4.585  13.273 -0.0561 -0.9840 -0.0171
18376TIP3    H276544   0.417   4.650  13.141  0.0250 -0.6758  0.1127
18377TIP3   OH276545   3.699   6.178   4.904 -0.2586 -0.5358  0.0300
18377TIP3    H176546   3.635   6.119   4.945  0.3892 -1.2239  0.0612
18377TIP3    H276547   3.731   6.130   4.828  0.8741 -0.5812  0.5100
18378TIP3   OH276548   3.588   3.562  11.249 -0.0060 -0.1188 -0.4156
18378TIP3    H176549   3.658   3.510  11.209  1.7493  0.4707  1.6993
18378TIP3    H276550   3.625   3.650  11.254 -0.7890  0.1426  1.0241
18379TIP3   OH276551   6.537   6.671  12.492  0.7511 -0.0731  0.1097
18379TIP3    H176552   6.599   6.683  12.564  0.1799  0.1513  0.5741
18379TIP3    H276553   6.460   6.632  12.533 -0.3513  1.8754  0.0155
18380TIP3   OH276554   2.865   0.096   4.916  0.0359 -0.1105 -0.2997
18380TIP3    H176555   2.861   0.004   4.941  0.5337 -0.1416 -0.3264
18380TIP3    H276556   2.946   0.103   4.865 -0.1110  0.2976 -0.4806
18381TIP3   OH276557   2.806   0.425  10.538  0.1945 -0.0621 -0.4845
18381TIP3    H176558   2.894   0.396  10.563 -0.3066 -1.3387 -0.1152
18381TIP3    H276559   2.821   0.494  10.473  1.4904  1.5882  1.4501
18382TIP3   OH276560   6.167   4.762   5.488  0.5880 -0.1731  0.1085
18382TIP3    H176561   6.195   4.695   5.550 -0.1315  0.3174  0.9847
18382TIP3    H276562   6.165   4.843   5.538  1.6758  0.5706 -1.0031
18383TIP3   OH276563   6.059   2.566  11.048  0.6664 -0.7253 -0.1272
18383TIP3    H176564   6.091   2.602  10.966  0.0977  1.7540  0.6539
18383TIP3    H276565   6.073   2.636  11.112 -0.0540 -2.1145  1.6395
18384TIP3   OH276566   1.869   6.663  16.784 -0.0118 -0.2206 -1.1772
18384TIP3    H176567   1.956   6.704  16.779 -0.8209  1.7383 -0.1460
18384TIP3    H276568   1.874   6.605  16.859 -0.1281  1.3899  0.1355
18385TIP3   OH276569   1.880   3.185  14.169  0.2045 -0.2139  0.1469
18385TIP3    H176570   1.799   3.179  14.119  0.1060  0.9575  0.1269
18385TIP3    H276571   1.857   3.238  14.245  0.2690 -2.2300  1.6580
18386TIP3   OH276572   4.128   0.227   0.998 -0.3236  0.0996 -0.3528
18386TIP3    H176573   4.109   0.198   1.087 -0.0859  0.9982  0.0072
18386TIP3    H276574   4.203   0.286   1.008 -1.0090  1.1008 -0.9918
18387TIP3   OH276575   4.903   5.569  16.791 -0.6249 -0.3113  0.0964
18387TIP3    H176576   4.922   5.597  16.880  0.6761  0.6056 -0.4357
18387TIP3    H276577   4.864   5.646  16.748  1.9616  0.4680 -1.0603
18388TIP3   OH276578   5.904   1.802  10.262 -0.4525 -0.3991 -0.2333
18388TIP3    H176579   5.904   1.891  10.229  0.4450 -0.4732 -0.4541
18388TIP3    H276580   5.812   1.784  10.284 -0.6541  0.5290 -0.2958
18389TIP3   OH276581   2.014   1.735  16.773  0.0951  0.0647 -0.7499
18389TIP3    H176582   1.960   1.705  16.700  0.1310 -1.6473 -0.1141
18389TIP3    H276583   1.952   1.771  16.836 -0.0512  0.4267 -1.0981
18390TIP3   OH276584   6.473   1.488   4.248  0.4325  0.1391  0.5722
18390TIP3    H176585   6.507   1.512   4.334  0.9866 -0.6177  0.5743
18390TIP3    H276586   6.471   1.393   4.248 -0.8637  0.1416  0.2357
18391TIP3   OH276587   3.180   2.439  15.761 -0.4756 -0.1033  0.2423
18391TIP3    H176588   3.209   2.483  15.840  0.8898  2.3546 -1.4889
18391TIP3    H276589   3.253   2.383  15.735 -1.2429 -1.5484  1.1114
18392TIP3   OH276590   2.283   1.364   5.882  0.2702 -0.2934 -0.3588
18392TIP3    H176591   2.376   1.380   5.866  0.3610  0.8460  1.0704
18392TIP3    H276592   2.279   1.337   5.974 -0.9485  1.4011  0.1454
18393TIP3   OH276593   2.220   1.221  12.772  0.0940 -0.5871 -0.4850
18393TIP3    H176594   2.145   1.182  12.727 -0.5397  0.4613 -0.3695
18393TIP3    H276595   2.185   1.248  12.857  0.5363  0.1529 -0.5327
18394TIP3   OH276596   2.794   1.898  16.304 -0.0525 -0.2955  0.1136
18394TIP3    H176597   2.729   1.850  16.254 -0.6013  0.0388  0.4987
18394TIP3    H276598   2.776   1.990  16.285  0.7256 -0.2149 -0.2939
18395TIP3   OH276599   6.139   5.622   3.808  0.1459 -0.2027 -0.3845
18395TIP3    H176600   6.177   5.698   3.763 -1.1583  1.0443  0.5334
18395TIP3    H276601   6.058   5.655   3.846 -1.3077 -2.4921 -1.3208
18396TIP3   OH276602   3.728   3.057   5.184 -0.0940 -0.1520  0.8424
18396TIP3    H176603   3.738   2.996   5.111  0.3794  1.6359 -0.6774
18396TIP3    H276604   3.804   3.114   5.179 -0.7991  0.9398  1.8380
18397TIP3   OH276605   4.332   1.020   1.971  0.0237 -0.4251 -0.1808
18397TIP3    H176606   4.275   1.090   1.940  1.7674  0.4810 -1.5088
18397TIP3    H276607   4.282   0.940   1.955 -0.7837  0.3114 -1.5523
18398TIP3   OH276608   2.166   4.467  16.817  0.9053 -0.1534  0.0235
18398TIP3    H176609   2.094   4.466  16.881  0.3784 -1.9768 -0.5412
18398TIP3    H276610   2.142   4.536  16.755  0.5556  0.4609  0.8228
18399TIP3   OH276611   1.252   1.776  16.069 -0.5546 -0.5354  0.2718
18399TIP3    H176612   1.239   1.766  16.164 -0.5765 -0.6966  0.2515
18399TIP3    H276613   1.240   1.688  16.034  1.1426 -0.8173  0.3048
18400TIP3   OH276614   5.690   4.922   6.368 -0.5202 -0.4314  0.1180
18400TIP3    H176615   5.731   4.956   6.448 -0.9306  1.5802 -0.4687
18400TIP3    H276616   5.596   4.929   6.384 -0.6242  1.0007 -0.8784
18401TIP3   OH276617   5.419   2.630  13.519  0.0396 -0.1006  0.1752
18401TIP3    H176618   5.426   2.719  13.554 -0.9300 -0.6594  1.8928
18401TIP3    H276619   5.373   2.641  13.435  1.0323  1.1093 -0.2424
18402TIP3   OH276620   4.786   5.272  13.490  0.0586 -0.2196 -0.0916
18402TIP3    H176621   4.702   5.280  13.445 -0.7804 -0.0327  1.4312
18402TIP3    H276622   4.768   5.304  13.579  1.0786 -2.5113  1.0075
18403TIP3   OH276623   4.510   2.369   1.556 -0.8982  0.5517  0.1555
18403TIP3    H176624   4.524   2.463   1.547 -0.7233  0.4715 -0.5017
18403TIP3    H276625   4.421   2.354   1.521 -0.6835  0.3933 -0.3345
18404TIP3   OH276626   0.993   4.046   5.068  0.1935 -0.4102  0.0835
18404TIP3    H176627   0.951   4.119   5.114  1.5946  0.3368  0.2468
18404TIP3    H276628   0.977   4.064   4.976 -1.7067 -1.3354  0.1950
18405TIP3   OH276629   2.720   0.284  10.988  0.2762 -0.7603  0.4952
18405TIP3    H176630   2.671   0.324  10.916 -0.3898 -3.4957 -0.7114
18405TIP3    H276631   2.791   0.237  10.944  2.1239  0.5016  1.9856
18406TIP3   OH276632   4.196   2.986  13.889  0.5769 -0.0154 -0.5618
18406TIP3    H176633   4.198   2.891  13.876  1.0965  0.1052 -1.3891
18406TIP3    H276634   4.124   2.999  13.951  0.0857 -0.8922 -0.9209
18407TIP3   OH276635   4.023   3.238  11.614 -0.0431 -0.2815 -0.0152
18407TIP3    H176636   4.049   3.179  11.543 -0.6932 -1.9987  1.0988
18407TIP3    H276637   4.106   3.266  11.653  0.2926 -0.1118 -0.8387
18408TIP3   OH276638   0.763   6.711  17.007  0.8356  0.0743  0.4677
18408TIP3    H176639   0.754   6.673  17.095  0.2309 -1.7739 -0.3418
18408TIP3    H276640   0.688   6.677  16.959  1.2820  0.8820 -0.8362
18409TIP3   OH276641   2.772   1.245  13.481 -0.3019  0.1386  0.8163
18409TIP3    H176642   2.806   1.259  13.393  0.4002 -0.8863  0.9006
18409TIP3    H276643   2.681   1.275  13.477  0.3266  2.0715  0.3322
18410TIP3   OH276644   5.868   1.470  16.246 -0.4702 -0.3206  0.2555
18410TIP3    H176645   5.829   1.535  16.188 -2.8584 -0.3061  1.7778
18410TIP3    H276646   5.915   1.521  16.312 -0.0132 -0.2623 -0.1077
18411TIP3   OH276647   5.370   4.690  10.948 -0.5626  0.0955 -0.3801
18411TIP3    H176648   5.289   4.661  10.991 -0.0138 -0.1673  0.4832
18411TIP3    H276649   5.349   4.686  10.854 -0.8552 -2.1134 -0.2625
18412TIP3   OH276650   4.046   1.139   2.254  0.3651 -0.3240  0.0751
18412TIP3    H176651   4.125   1.189   2.277  2.0383 -2.4841 -0.6485
18412TIP3    H276652   3.978   1.206   2.245  1.8650  1.5535  1.5968
18413TIP3   OH276653   5.376   4.018  15.825 -0.2036  0.1550 -0.1312
18413TIP3    H176654   5.379   3.956  15.752 -1.9239  0.6639 -0.6889
18413TIP3    H276655   5.286   4.050  15.825  0.0862  1.0565  1.4897
18414TIP3   OH276656   4.434   1.930   4.157  0.2367 -0.4187 -0.1892
18414TIP3    H176657   4.440   1.993   4.085 -1.4334 -0.3992 -0.3313
18414TIP3    H276658   4.474   1.975   4.231 -0.1056  0.4581 -0.5278
18415TIP3   OH276659   0.620   5.555   5.221 -1.2877  0.1108 -0.1017
18415TIP3    H176660   0.699   5.582   5.267 -0.5081  0.6164 -1.6900
18415TIP3    H276661   0.649   5.485   5.162 -1.8600  0.8395 -1.2719
18416TIP3   OH276662   4.839   3.990   1.874  0.1788  0.2595 -0.3427
18416TIP3    H176663   4.808   3.947   1.954  0.7243  1.3316  0.4818
18416TIP3    H276664   4.759   4.023   1.832  0.0013  1.3643  0.7862
18417TIP3   OH276665   6.436   1.874  12.916 -0.2391  0.0540 -0.4648
18417TIP3    H176666   6.347   1.842  12.930  0.6005 -1.4721  2.0630
18417TIP3    H276667   6.484   1.798  12.883  0.6467  0.1361  0.5982
18418TIP3   OH276668   6.600   2.087   0.050 -0.5432  0.5635  0.5576
18418TIP3    H176669   6.563   2.148   0.114 -1.1923  0.9992 -0.2164
18418TIP3    H276670   6.632   2.143  -0.021  0.7957  0.1336  0.7816
18419TIP3   OH276671   0.593   6.708  10.348  0.2383 -0.2484  0.6131
18419TIP3    H176672   0.621   6.628  10.391 -1.3383  0.1630  2.5369
18419TIP3    H276673   0.618   6.778  10.408 -3.3203  0.2452  1.8083
18420TIP3   OH276674   5.283   4.613   5.377 -0.4708  0.0754  0.5644
18420TIP3    H176675   5.228   4.567   5.313 -0.7744  0.9287  0.1850
18420TIP3    H276676   5.331   4.544   5.422  1.6382 -0.4684 -2.2625
18421TIP3   OH276677   4.228   6.141  12.784 -0.2589 -0.2509  0.6487
18421TIP3    H176678   4.203   6.230  12.808 -2.1546 -1.1467  2.2702
18421TIP3    H276679   4.158   6.112  12.725  0.1608 -0.7994  0.4110
18422TIP3   OH276680   6.090   1.352  12.014  0.0571 -0.0711 -1.0258
18422TIP3    H176681   6.076   1.259  11.998 -1.5741  0.0649 -0.5661
18422TIP3    H276682   6.018   1.395  11.969 -1.0529  0.7319  1.3644
18423TIP3   OH276683   3.719   0.701  16.924 -0.5422 -0.1623  0.0042
18423TIP3    H176684   3.648   0.765  16.928  0.0397  0.4244  2.5586
18423TIP3    H276685   3.794   0.751  16.891 -0.8705 -0.3990 -1.1693
18424TIP3   OH276686   5.629   2.351  13.651  0.1169  0.0669  0.2220
18424TIP3    H176687   5.651   2.414  13.720  1.1030 -0.8000  0.7312
18424TIP3    H276688   5.551   2.307  13.682  1.1947 -1.1115  1.3674
18425TIP3   OH276689   2.536   1.053   3.568 -0.5681 -0.6994 -0.3545
18425TIP3    H176690   2.476   0.983   3.592  1.0574 -2.5927 -1.5068
18425TIP3    H276691   2.621   1.025   3.602 -0.3334  2.3525  2.1098
18426TIP3   OH276692   6.780   5.195  16.429  0.0871  0.5774  0.4046
18426TIP3    H176693   6.790   5.280  16.470 -0.1779  0.3247  1.0128
18426TIP3    H276694   6.822   5.204  16.343  2.2164  0.6322  1.3685
18427TIP3   OH276695   5.624   1.824  14.612 -0.3700  0.3397  0.1916
18427TIP3    H176696   5.544   1.853  14.570 -0.8207 -0.9758  0.1166
18427TIP3    H276697   5.692   1.832  14.545 -1.0652 -1.6718 -0.8066
18428TIP3   OH276698   0.805   1.272  11.537 -0.1467 -0.1514 -0.1991
18428TIP3    H176699   0.769   1.250  11.623  0.0843 -4.1711 -0.9301
18428TIP3    H276700   0.898   1.250  11.543  0.4356  1.8316 -0.8834
18429TIP3   OH276701   5.211   2.379  12.532 -0.2482  0.5393 -0.2989
18429TIP3    H176702   5.288   2.419  12.573 -0.2601 -1.2056  1.5856
18429TIP3    H276703   5.247   2.311  12.475 -0.3453  0.5967 -0.4283
18430TIP3   OH276704   3.207   6.685  14.876  0.2161 -0.0262  0.2513
18430TIP3    H176705   3.136   6.748  14.883  1.0719  1.0280 -0.2384
18430TIP3    H276706   3.181   6.628  14.803  0.0913  0.6476 -0.2409
18431TIP3   OH276707   4.982   2.014  15.119  0.3117 -0.0421 -0.0099
18431TIP3    H176708   4.914   2.022  15.053  1.8939  3.6702 -1.4465
18431TIP3    H276709   4.962   2.081  15.183  0.9084 -1.0637  1.3086
18432TIP3   OH276710   5.788   3.344   2.255 -0.1295 -0.0334  0.2800
18432TIP3    H176711   5.812   3.435   2.267  1.2727 -0.4435  0.8347
18432TIP3    H276712   5.847   3.312   2.187 -0.2966 -0.6362  0.4065
18433TIP3   OH276713   5.589   5.216   3.505 -0.4749 -0.5403  0.1563
18433TIP3    H176714   5.603   5.311   3.507  0.1754 -0.6363  0.6472
18433TIP3    H276715   5.573   5.197   3.413  0.0869 -0.0382 -0.0579
18434TIP3   OH276716   0.428   6.797  15.488  1.1218  0.4264  0.6083
18434TIP3    H176717   0.409   6.710  15.453 -0.0923  0.0890  2.0004
18434TIP3    H276718   0.360   6.853  15.453  0.9765  0.4728  0.9558
18435TIP3   OH276719   3.580   5.026   4.715 -0.4180 -0.1815  0.1397
18435TIP3    H176720   3.634   5.085   4.768 -2.0018  0.6190  0.9417
18435TIP3    H276721   3.561   5.076   4.636  0.3377 -0.6233 -0.3292
18436TIP3   OH276722   1.992   2.713  14.943  0.0601 -0.2908  0.0410
18436TIP3    H176723   1.911   2.764  14.938  0.1706 -0.0613  0.4714
18436TIP3    H276724   1.964   2.622  14.932 -0.0434 -0.0847 -1.5223
18437TIP3   OH276725   5.322   2.739   4.267 -0.7433  0.0138  0.0073
18437TIP3    H176726   5.287   2.819   4.306  0.3226  0.3030  0.4085
18437TIP3    H276727   5.352   2.687   4.341  2.1840  0.9788 -0.3503
18438TIP3   OH276728   4.712   1.880   1.808  0.1745 -0.3705 -0.9187
18438TIP3    H176729   4.684   1.851   1.722  1.0051 -1.4969 -0.8208
18438TIP3    H276730   4.767   1.810   1.842 -0.8209 -0.3587  0.8889
18439TIP3   OH276731   4.399   4.871   0.928  0.0547 -0.3482  0.1613
18439TIP3    H176732   4.448   4.822   0.862  1.3875  0.9632  0.1276
18439TIP3    H276733   4.416   4.963   0.908 -0.1069  0.1037  1.8736
18440TIP3   OH276734   6.632   6.639   2.305  0.1937  0.6844 -0.0475
18440TIP3    H176735   6.650   6.733   2.296  0.0045  0.9942  2.2157
18440TIP3    H276736   6.556   6.634   2.362 -0.0030 -0.8599 -0.3963
18441TIP3   OH276737   4.904   3.437  15.420 -0.1526 -0.3526  0.3591
18441TIP3    H176738   4.957   3.394  15.353 -0.4782  1.1162 -0.8971
18441TIP3    H276739   4.876   3.520  15.380 -0.7355  0.3797  2.1462
18442TIP3   OH276740   3.119   1.162  13.262  0.2016  0.4380  0.7784
18442TIP3    H176741   3.069   1.082  13.280 -1.8845  1.5241  0.1979
18442TIP3    H276742   3.178   1.138  13.191 -0.1390 -0.6858  0.8477
18443TIP3   OH276743   0.179   6.077  16.691 -0.1444  0.2320 -0.5798
18443TIP3    H176744   0.099   6.128  16.678 -2.2734 -2.7239 -0.3441
18443TIP3    H276745   0.149   5.997  16.736  2.9098 -1.1754 -0.7783
18444TIP3   OH276746   1.323   6.449   1.465  0.4514 -0.6652 -0.3461
18444TIP3    H176747   1.330   6.455   1.370 -1.4922 -0.4338 -0.5109
18444TIP3    H276748   1.340   6.538   1.496 -0.1078 -0.4652 -0.5916
18445TIP3   OH276749   3.367   4.263   6.005 -0.2081  0.0214  0.4729
18445TIP3    H176750   3.394   4.191   5.950 -0.8430  0.2108 -0.0975
18445TIP3    H276751   3.277   4.243   6.030  0.2066 -0.2954  1.8392
18446TIP3   OH276752   2.203   0.049  12.729 -0.4875  0.0276 -0.0371
18446TIP3    H176753   2.128  -0.007  12.711 -1.0742 -0.6884  3.8415
18446TIP3    H276754   2.262  -0.006  12.780  1.8982  1.1495 -1.4008
18447TIP3   OH276755   6.175   0.470   1.967 -0.2727  0.9801  0.0002
18447TIP3    H176756   6.122   0.478   2.046  1.2928 -1.1275  1.3567
18447TIP3    H276757   6.260   0.507   1.991 -0.3906  2.3458 -1.4657
18448TIP3   OH276758   4.052   1.856  10.839  0.4343  0.0282  0.0430
18448TIP3    H176759   3.980   1.793  10.845  0.8686 -0.5286 -0.4694
18448TIP3    H276760   4.127   1.804  10.810  0.7062  0.8399 -0.7589
18449TIP3   OH276761   1.965   1.023   4.575 -0.3660 -0.2227  0.6610
18449TIP3    H176762   2.057   1.008   4.552 -0.7168 -1.8489  0.1163
18449TIP3    H276763   1.917   0.997   4.496 -1.1981  4.3458 -0.5977
18450TIP3   OH276764   0.573   0.195   5.201  0.0204 -0.6454  0.3801
18450TIP3    H176765   0.579   0.224   5.110 -0.4427  1.3811  0.9551
18450TIP3    H276766   0.521   0.262   5.245  0.8333 -1.1982  2.3039
18451TIP3   OH276767   1.967   2.667   3.680  0.7311 -0.5469 -0.2905
18451TIP3    H176768   2.046   2.629   3.718  1.0975  0.7117  0.2958
18451TIP3    H276769   1.911   2.687   3.756  1.1312  1.2627 -0.4105
18452TIP3   OH276770   4.780   6.189  11.689 -0.0469  0.4073 -0.3552
18452TIP3    H176771   4.796   6.102  11.727  0.0370  1.4704  2.2006
18452TIP3    H276772   4.731   6.236  11.756 -1.8624  1.7504 -2.4829
18453TIP3   OH276773   2.415   2.811   3.129 -0.1177  1.2715 -0.9088
18453TIP3    H176774   2.404   2.757   3.050  2.6098 -3.4195  1.4365
18453TIP3    H276775   2.326   2.821   3.164 -0.9017 -4.1599 -0.4305
18454TIP3   OH276776   2.299   3.190   2.771 -0.3803  0.2429 -0.2304
18454TIP3    H176777   2.295   3.097   2.794  0.9613 -0.1918 -1.5188
18454TIP3    H276778   2.279   3.191   2.677 -2.7111  1.5643  0.2230
18455TIP3   OH276779   2.628   5.323   1.774 -0.6414  0.6198 -0.1237
18455TIP3    H176780   2.598   5.304   1.685 -1.9584  2.3155 -0.0942
18455TIP3    H276781   2.554   5.298   1.830  0.8669 -2.2899  0.7770
18456TIP3   OH276782   2.504   4.249   0.753 -0.0913  0.5863  0.2071
18456TIP3    H176783   2.597   4.240   0.734 -0.1592 -1.3057  0.5538
18456TIP3    H276784   2.494   4.339   0.784  1.6899  0.6807  0.6277
18457TIP3   OH276785   3.216   1.510  16.914  0.5763  0.6773  0.6898
18457TIP3    H176786   3.155   1.573  16.953 -2.3691 -0.7818 -1.1432
18457TIP3    H276787   3.210   1.527  16.820  2.9117  0.2907  0.4226
18458TIP3   OH276788   3.709   3.973   5.077  0.4442  0.2449 -0.3378
18458TIP3    H176789   3.756   4.038   5.023  0.4919 -0.1130 -0.7375
18458TIP3    H276790   3.633   3.950   5.024  0.3853  0.0350 -0.1590
18459TIP3   OH276791   2.144   3.951   4.440  0.1527  0.3759 -0.1676
18459TIP3    H176792   2.077   3.923   4.502  0.3963 -2.0025 -0.9092
18459TIP3    H276793   2.102   4.022   4.390 -1.1037  0.2535  0.6724
18460TIP3   OH276794   0.503   0.782   4.100 -0.2149  0.3991  0.7865
18460TIP3    H176795   0.455   0.748   4.176 -0.7911  0.8539  0.6311
18460TIP3    H276796   0.456   0.862   4.076 -0.2021  0.1128 -0.2182
18461TIP3   OH276797   2.462   0.075   3.790 -0.2865  0.7030  0.1129
18461TIP3    H176798   2.461   0.114   3.877  2.5319  0.2668  0.4357
18461TIP3    H276799   2.525   0.003   3.797 -2.4185 -1.4855 -1.4784
18462TIP3   OH276800   6.622   6.512   0.570  0.4893 -0.1947  0.3837
18462TIP3    H176801   6.716   6.491   0.566  0.7390  0.9632 -0.4219
18462TIP3    H276802   6.586   6.473   0.490  0.7088  1.1742 -0.4213
18463TIP3   OH276803   5.516   0.404  15.352  0.1073 -0.0676 -0.0775
18463TIP3    H176804   5.607   0.377  15.339  0.1070  0.0719 -0.3720
18463TIP3    H276805   5.518   0.500  15.344  0.1297  0.0441  1.0849
18464TIP3   OH276806   3.931   5.903  15.617 -0.1958  0.3565 -0.6204
18464TIP3    H176807   3.881   5.901  15.535  0.3674 -0.7878 -0.9549
18464TIP3    H276808   3.960   5.813  15.630 -0.2683  0.5233  0.8481
18465TIP3   OH276809   4.501   1.936  15.626  0.4960  0.2959  0.6412
18465TIP3    H176810   4.504   1.850  15.583 -2.1083 -0.2386  1.3436
18465TIP3    H276811   4.556   1.926  15.704 -0.2547 -0.9870  1.0435
18466TIP3   OH276812   5.795   2.848  13.587  0.4545 -0.6194 -0.4185
18466TIP3    H176813   5.775   2.769  13.636  0.4554 -1.1979 -1.3259
18466TIP3    H276814   5.822   2.817  13.501 -0.9905  0.3962 -1.2959
18467TIP3   OH276815   1.829   0.241   4.730  0.4376 -0.0624 -0.6477
18467TIP3    H176816   1.761   0.185   4.766  1.2989  0.0230  1.2268
18467TIP3    H276817   1.782   0.315   4.691 -0.6933 -1.8046 -2.8158
18468TIP3   OH276818   1.439   4.547   4.793 -0.3456 -0.2773  0.0469
18468TIP3    H176819   1.518   4.580   4.750  0.4600 -2.5728 -0.3637
18468TIP3    H276820   1.368   4.572   4.734  0.2825  0.1611 -0.5449
18469TIP3   OH276821   0.941   0.835   3.150  0.6610  0.0291 -0.1722
18469TIP3    H176822   0.901   0.860   3.066  2.0188 -0.9613 -1.1594
18469TIP3    H276823   1.034   0.823   3.129  1.1549  0.4806  1.6515
18470TIP3   OH276824   0.306   6.032   1.737  0.1796  0.0939 -0.0524
18470TIP3    H176825   0.256   5.973   1.793  1.3729 -1.1968 -0.2840
18470TIP3    H276826   0.250   6.108   1.725 -2.5796 -2.0578 -1.9048
18471TIP3   OH276827   1.342   2.750   6.219 -0.2970 -0.5760  0.0957
18471TIP3    H176828   1.309   2.838   6.238  1.2102  0.0330  0.0308
18471TIP3    H276829   1.343   2.745   6.124  2.3427  0.4985 -0.0279
18472TIP3   OH276830   3.230   2.750  15.453  0.2298  0.1434 -0.4129
18472TIP3    H176831   3.176   2.823  15.482 -0.4691 -0.3539 -0.4336
18472TIP3    H276832   3.320   2.784  15.454 -0.0644  0.9264 -0.2150
18473TIP3   OH276833   5.734   1.957  10.838  0.1839 -0.3478  0.2870
18473TIP3    H176834   5.711   2.037  10.885  0.6727 -0.9973  1.6814
18473TIP3    H276835   5.649   1.921  10.810 -0.2375 -0.6294  1.8484
18474TIP3   OH276836   6.563   2.292   3.200 -0.1894  0.4736 -0.0466
18474TIP3    H176837   6.653   2.321   3.186 -0.1835  1.2643  1.4763
18474TIP3    H276838   6.531   2.271   3.112  1.9968 -1.5028 -0.4621
18475TIP3   OH276839   2.429   2.974   1.950  0.2220 -1.0164 -0.0853
18475TIP3    H176840   2.428   2.989   2.045 -1.5524  1.5079 -0.4075
18475TIP3    H276841   2.379   3.047   1.914  1.7825 -1.2782 -3.0846
18476TIP3   OH276842   6.066   3.984  13.138  0.0726 -0.3584 -0.3238
18476TIP3    H176843   6.139   3.937  13.098  1.3074  0.7280  0.5921
18476TIP3    H276844   6.087   3.987  13.231 -1.2862 -0.2579 -0.0017
18477TIP3   OH276845   4.153   2.084   1.649  0.3981 -0.1498 -0.3152
18477TIP3    H176846   4.224   2.137   1.686  2.1423 -1.7018 -1.2415
18477TIP3    H276847   4.133   2.020   1.718  0.6161 -0.3313 -0.4175
18478TIP3   OH276848   1.442   6.615   2.361  0.5010  0.3418  0.5277
18478TIP3    H176849   1.385   6.680   2.319  0.5121  0.4256  0.6423
18478TIP3    H276850   1.413   6.613   2.452 -1.1454 -1.5866  0.0391
18479TIP3   OH276851   5.313   1.307  12.634  0.5241  0.4853  0.4587
18479TIP3    H176852   5.268   1.251  12.698 -0.3714  1.0751  0.3594
18479TIP3    H276853   5.403   1.274  12.633 -0.4087 -2.3749 -1.1939
18480TIP3   OH276854   1.685   5.219  11.320 -0.5241  0.2537  0.2054
18480TIP3    H176855   1.627   5.239  11.246 -0.2493 -2.0589 -0.6982
18480TIP3    H276856   1.773   5.233  11.285 -0.4149 -0.2756  0.2690
18481TIP3   OH276857   6.346   1.651   1.077  0.0219 -0.0020 -0.5148
18481TIP3    H176858   6.435   1.656   1.113 -0.4430  1.3655  0.5247
18481TIP3    H276859   6.314   1.741   1.079 -2.3340 -0.7699  1.6331
18482TIP3   OH276860   2.492   6.165   4.079  0.1936  0.0660  0.0503
18482TIP3    H176861   2.498   6.256   4.109 -3.0800  1.4241 -2.7714
18482TIP3    H276862   2.530   6.166   3.991  1.4067 -1.6956  0.5033
18483TIP3   OH276863   0.251   0.708  13.062 -0.2979  0.1735 -0.5912
18483TIP3    H176864   0.174   0.754  13.028  0.6923  1.1213 -1.6156
18483TIP3    H276865   0.214   0.637  13.115 -1.8786  1.5862  0.3118
18484TIP3   OH276866   0.774   0.072   3.958 -0.5179  0.7215 -0.0706
18484TIP3    H176867   0.778  -0.013   3.914  0.0319  0.9972 -0.5557
18484TIP3    H276868   0.737   0.052   4.044  0.8929 -0.2306  0.3473
18485TIP3   OH276869   2.341   2.271  10.629 -0.5367  0.2426  0.0848
18485TIP3    H176870   2.269   2.227  10.584 -1.8603  3.0195 -0.7388
18485TIP3    H276871   2.358   2.349  10.577 -1.8784  3.5087  3.9992
18486TIP3   OH276872   5.865   0.911  15.940  0.3305  0.0834 -0.1560
18486TIP3    H176873   5.808   0.909  15.862 -0.5195 -1.5561  0.4644
18486TIP3    H276874   5.940   0.857  15.916  0.8358  0.8601 -0.3667
18487TIP3   OH276875   1.609   6.556  11.054 -0.0453 -0.6059  0.3658
18487TIP3    H176876   1.578   6.586  11.140  1.4405 -0.2410  0.8050
18487TIP3    H276877   1.633   6.464  11.068 -0.7215 -0.8304  0.0798
18488TIP3   OH276878   0.946   0.225  11.576  0.6528 -0.2520  0.4262
18488TIP3    H176879   0.900   0.308  11.565  0.9643 -0.0397  0.6957
18488TIP3    H276880   0.933   0.179  11.493  0.9965  0.3334  0.0378
18489TIP3   OH276881   6.800   4.673  13.900  0.6375  0.1602  0.3241
18489TIP3    H176882   6.762   4.617  13.968 -0.9530 -1.6107 -1.8843
18489TIP3    H276883   6.835   4.612  13.836  2.0181  1.7776 -0.5267
18490TIP3   OH276884   0.008   5.952  14.710  0.5800 -0.6723 -0.3751
18490TIP3    H176885   0.024   6.046  14.719 -1.3234 -0.4008  0.9532
18490TIP3    H276886   0.093   5.915  14.686  1.3719  1.3762 -0.9323
18491TIP3   OH276887   1.274   6.487  11.534  0.0142  0.0785  0.2074
18491TIP3    H176888   1.369   6.471  11.539 -0.0811 -0.4280  0.5280
18491TIP3    H276889   1.235   6.400  11.547 -0.5384  0.5532  2.1031
18492TIP3   OH276890   1.248   1.122   5.469  0.2459  0.1639  0.2859
18492TIP3    H176891   1.269   1.079   5.552  0.3760 -0.2667  0.0338
18492TIP3    H276892   1.290   1.068   5.402  0.6032  0.8073 -0.0237
18493TIP3   OH276893   3.376   2.469   2.924 -0.1103  0.2528 -0.0249
18493TIP3    H176894   3.355   2.497   2.835 -1.6145 -0.1376  0.1747
18493TIP3    H276895   3.355   2.545   2.979 -0.5680  0.0254  0.1257
18494TIP3   OH276896   6.139   4.867  11.029 -0.3602 -0.3499 -0.5052
18494TIP3    H176897   6.193   4.859  10.951  0.3080  1.2740 -0.2489
18494TIP3    H276898   6.103   4.956  11.025 -1.0702 -0.5632  0.5585
18495TIP3   OH276899   2.327   3.032  10.995  0.1623 -0.3312  0.1951
18495TIP3    H176900   2.387   3.057  10.925 -0.0225 -1.4059 -0.3666
18495TIP3    H276901   2.331   2.936  10.997 -3.3182 -0.6620 -1.4974
18496TIP3   OH276902   2.519   0.325  14.294  0.5514  0.2524 -0.0250
18496TIP3    H176903   2.445   0.311  14.235  0.4242 -1.4091  0.4716
18496TIP3    H276904   2.594   0.338  14.236  0.6345 -2.4638 -0.6635
18497TIP3   OH276905   2.806   3.332   0.357 -0.4058  0.1716  0.3138
18497TIP3    H176906   2.746   3.259   0.344 -0.7327  0.7626 -1.9313
18497TIP3    H276907   2.882   3.294   0.401 -1.3403 -1.1002  0.8940
18498TIP3   OH276908   0.170   2.486   2.261  0.8074 -0.4588  0.3169
18498TIP3    H176909   0.261   2.463   2.282  0.8208 -0.9611 -0.2797
18498TIP3    H276910   0.119   2.411   2.288  0.8170 -1.0967 -1.3184
18499TIP3   OH276911   0.793   5.492  12.303  0.3497  0.0868 -0.0440
18499TIP3    H176912   0.732   5.530  12.366  0.6426 -0.9887  0.9220
18499TIP3    H276913   0.802   5.400  12.330  2.1369  0.1317 -0.3575
18500TIP3   OH276914   6.215   0.306  12.487  0.1490 -0.2886  0.1916
18500TIP3    H176915   6.271   0.230  12.502  1.5890  0.6350 -0.2760
18500TIP3    H276916   6.197   0.340  12.575  0.6899 -0.3417  0.3282
18501TIP3   OH276917   4.917   5.409   5.984 -0.2762  0.2391 -0.1266
18501TIP3    H176918   4.946   5.490   5.941  0.7048 -0.1960 -0.3307
18501TIP3    H276919   4.998   5.362   6.002 -0.6268  0.4500  2.3578
18502TIP3   OH276920   4.413   2.544  16.858 -0.4070  0.5875 -0.0147
18502TIP3    H176921   4.437   2.634  16.837 -4.0626  1.1730 -2.7581
18502TIP3    H276922   4.406   2.500  16.773 -0.9174 -1.6131  1.0905
18503TIP3   OH276923   3.471   4.720   2.673  0.0368  0.4330 -0.8068
18503TIP3    H176924   3.500   4.766   2.595  0.9801  0.2830 -0.5507
18503TIP3    H276925   3.382   4.690   2.652  0.5697 -0.2828 -2.1131
18504TIP3   OH276926   0.390   2.716   1.346 -0.2347 -0.1935 -0.8732
18504TIP3    H176927   0.319   2.660   1.314 -1.1084  0.1100  0.4840
18504TIP3    H276928   0.346   2.785   1.395  0.9613  0.5414 -0.8060
18505TIP3   OH276929   3.325   1.295   2.552 -0.3377  0.1152  0.3116
18505TIP3    H176930   3.277   1.213   2.559 -1.1663  0.3994 -1.3839
18505TIP3    H276931   3.333   1.310   2.458 -1.2207  2.5312  0.5488
18506TIP3   OH276932   3.555   0.738   6.447 -0.5302 -0.0333 -0.4789
18506TIP3    H176933   3.599   0.740   6.532  1.3498 -0.8622 -1.3666
18506TIP3    H276934   3.604   0.801   6.394 -2.3254  1.2414 -0.6884
18507TIP3   OH276935   3.356   5.913   0.056 -0.0761 -0.2602  0.3530
18507TIP3    H176936   3.278   5.871   0.092 -0.0966 -0.7388 -0.2412
18507TIP3    H276937   3.323   5.984   0.002 -0.0928 -0.3570  0.2365
18508TIP3   OH276938   1.117   2.221   3.792  0.1681  0.2356  0.6200
18508TIP3    H176939   1.028   2.250   3.774  1.0182  1.3215 -2.5973
18508TIP3    H276940   1.115   2.127   3.778 -0.0725  0.5453 -1.7747
18509TIP3   OH276941   5.383   3.164   3.574 -0.1881 -0.0402 -0.3653
18509TIP3    H176942   5.342   3.121   3.649  0.3858 -2.6825 -1.4625
18509TIP3    H276943   5.466   3.118   3.562  0.6111  1.6025 -1.4919
18510TIP3   OH276944   4.797   0.997  16.369 -0.8186  0.1228 -0.7118
18510TIP3    H176945   4.875   0.952  16.401 -1.2912 -0.4257 -0.2994
18510TIP3    H276946   4.818   1.020  16.279  0.3504  1.2365 -0.1867
18511TIP3   OH276947   4.313   4.593  16.136 -0.3997  0.4187 -0.1178
18511TIP3    H176948   4.256   4.535  16.186 -0.6722  0.6687 -0.1385
18511TIP3    H276949   4.400   4.556  16.148 -0.8290 -1.3364 -1.9826
18512TIP3   OH276950   3.195   4.533   1.624 -0.1501  0.2471 -0.6340
18512TIP3    H176951   3.160   4.612   1.583  0.6446 -0.1777 -2.2092
18512TIP3    H276952   3.282   4.558   1.654 -0.8411  0.6401  1.1386
18513TIP3   OH276953   2.377   2.980  12.068  0.1282 -0.0918  0.1127
18513TIP3    H176954   2.379   2.913  12.000 -1.8558 -0.4712  0.3652
18513TIP3    H276955   2.326   2.941  12.139 -0.0208  1.2291  0.7740
18514TIP3   OH276956   5.590   1.460   5.240 -0.7741 -0.3882  0.1313
18514TIP3    H176957   5.622   1.550   5.231 -1.9491  0.0191 -0.1916
18514TIP3    H276958   5.618   1.416   5.159 -2.0406  0.2978 -0.7075
18515TIP3   OH276959   1.207   3.750  14.574  0.2061  0.2115 -0.3335
18515TIP3    H176960   1.283   3.805  14.596  0.5820 -0.8174  1.1227
18515TIP3    H276961   1.190   3.700  14.654 -0.2331 -1.6447 -1.5052
18516TIP3   OH276962   5.277   1.225  14.633  0.0739 -0.1722 -0.1251
18516TIP3    H176963   5.287   1.179  14.716  1.2731 -0.1752 -0.2639
18516TIP3    H276964   5.364   1.257  14.612  0.2285 -1.7815 -2.3015
18517TIP3   OH276965   3.379   0.571   5.652  0.2558 -0.2183 -0.5060
18517TIP3    H176966   3.469   0.597   5.631  0.5946  0.9719  2.1246
18517TIP3    H276967   3.389   0.501   5.717 -0.7104  0.3585  0.2829
18518TIP3   OH276968   5.411   3.167  12.678 -0.7281 -0.1636 -0.2806
18518TIP3    H176969   5.421   3.199  12.588  0.7243 -0.6053 -0.3143
18518TIP3    H276970   5.495   3.187  12.720 -0.4122 -2.2545  0.2087
18519TIP3   OH276971   6.364   5.141  11.204 -0.5148 -0.0258 -0.3900
18519TIP3    H176972   6.416   5.061  11.190  1.3144  1.1092 -0.3818
18519TIP3    H276973   6.330   5.131  11.293  2.5219  0.6388  0.9839
18520TIP3   OH276974   5.568   3.489   6.517  0.5282  0.8844 -0.4390
18520TIP3    H176975   5.615   3.522   6.595 -1.3271  0.7963  0.7730
18520TIP3    H276976   5.637   3.480   6.451  2.0817  1.5686  0.9809
18521TIP3   OH276977   1.027   1.169  11.408 -0.5741  0.0199  0.4292
18521TIP3    H176978   1.113   1.147  11.444 -1.2717 -0.6397  1.7577
18521TIP3    H276979   1.007   1.097  11.348  0.6866  1.2314 -1.5634
18522TIP3   OH276980   2.502   5.448   1.100 -0.2972  0.1869  0.0400
18522TIP3    H176981   2.590   5.482   1.116  0.6984 -0.7085 -2.9037
18522TIP3    H276982   2.446   5.526   1.102  0.6958  0.9102  0.9920
18523TIP3   OH276983   1.416   4.494   0.830 -0.1044 -0.2566  0.0237
18523TIP3    H176984   1.433   4.443   0.909  1.8354  0.0581 -0.1656
18523TIP3    H276985   1.499   4.496   0.784 -1.1534 -0.3100 -1.9873
18524TIP3   OH276986   5.367   4.210   2.860 -0.7657  0.1141  0.0799
18524TIP3    H176987   5.309   4.148   2.815 -1.5796 -0.0601  1.3293
18524TIP3    H276988   5.392   4.165   2.941  0.1408  0.6838  0.1323
18525TIP3   OH276989   1.215   4.060   0.276 -0.1467  0.4659 -0.5690
18525TIP3    H176990   1.301   4.099   0.294  0.4974 -1.7139  1.8057
18525TIP3    H276991   1.163   4.131   0.240  1.2540  3.2174  2.2911
18526TIP3   OH276992   4.804   3.512   1.827 -0.0881  0.5084 -0.2998
18526TIP3    H176993   4.733   3.574   1.845 -1.5528 -1.2600  0.4028
18526TIP3    H276994   4.829   3.530   1.736  0.7812  3.2514  0.4145
18527TIP3   OH276995   1.625   6.556  14.470 -0.1343 -0.2948  0.2732
18527TIP3    H176996   1.624   6.651  14.459  0.1536 -0.2249  0.8082
18527TIP3    H276997   1.632   6.543  14.565  1.5269 -0.8303  0.1075
18528TIP3   OH276998   4.761   4.425   2.520  0.5330 -0.2019  0.0658
18528TIP3    H176999   4.782   4.347   2.571  3.1107 -0.6388 -1.4808
18528TIP3    H277000   4.805   4.496   2.564  0.3329 -0.0643  0.0473
18529TIP3   OH277001   0.674   0.256   4.321  0.2922  0.0273  0.1960
18529TIP3    H177002   0.630   0.230   4.402  1.0643  0.2901  0.7171
18529TIP3    H277003   0.764   0.276   4.349  0.1815  1.5694 -0.4689
18530TIP3   OH277004   3.290   6.073   0.362 -0.0941  0.3174 -0.1291
18530TIP3    H177005   3.247   6.042   0.283 -0.7298 -1.1617  0.7585
18530TIP3    H277006   3.372   6.024   0.365 -0.0369  0.4277  0.0788
18531TIP3   OH277007   6.496   0.567   6.177  0.7119 -0.0233 -0.5087
18531TIP3    H177008   6.436   0.591   6.107  1.0745 -4.0455 -2.5103
18531TIP3    H277009   6.583   0.574   6.137  1.2069  0.7459  0.6547
18532TIP3   OH277010   1.912   1.362   3.004  0.9461  0.4184  0.2547
18532TIP3    H177011   1.820   1.339   3.021  0.7996  0.5386 -0.3498
18532TIP3    H277012   1.908   1.425   2.932  1.5810 -0.8499 -0.9513
18533TIP3   OH277013   5.158   1.231  12.044  0.0644  0.0127 -0.3115
18533TIP3    H177014   5.144   1.166  11.975 -1.3426  0.2960 -0.3165
18533TIP3    H277015   5.072   1.272  12.056  0.7173  1.2399  0.3265
18534TIP3   OH277016   5.291   0.273   0.310  0.1256  0.6767  0.3007
18534TIP3    H177017   5.323   0.186   0.336  1.3878  0.6984 -1.0419
18534TIP3    H277018   5.349   0.299   0.238 -1.0231  2.1013 -0.1529
18535TIP3   OH277019   6.412   0.979   3.814  0.7725  0.1025  0.5278
18535TIP3    H177020   6.462   1.056   3.786  0.9228  0.1864  1.0135
18535TIP3    H277021   6.445   0.960   3.902  0.4723 -0.2928  0.5565
18536TIP3   OH277022   1.198   4.740  11.935 -0.2335  0.3180 -0.7480
18536TIP3    H177023   1.250   4.817  11.912  2.5192 -1.3122 -0.4259
18536TIP3    H277024   1.124   4.742  11.875  1.3251  1.6465 -2.7676
18537TIP3   OH277025   0.764   2.939  14.651  0.1177  0.0758  0.1545
18537TIP3    H177026   0.754   2.998  14.577 -2.5347  1.6640  1.6459
18537TIP3    H277027   0.701   2.869  14.636  1.6583 -1.2546 -0.4711
18538TIP3   OH277028   4.104   1.333   4.712 -0.6943 -0.0909  0.2151
18538TIP3    H177029   4.183   1.299   4.671 -1.3006 -1.6529  0.2785
18538TIP3    H277030   4.037   1.266   4.696 -2.4636  1.8850 -1.2332
18539TIP3   OH277031   4.231   4.750   0.675  0.0769  0.1297  0.0015
18539TIP3    H177032   4.159   4.711   0.624  0.1455 -0.0066  0.0095
18539TIP3    H277033   4.187   4.806   0.739 -0.0143  0.2196 -0.1381
18540TIP3   OH277034   3.070   5.697  12.162 -0.0757 -0.7060 -0.0336
18540TIP3    H177035   3.136   5.721  12.096 -0.8469  1.8245  0.0310
18540TIP3    H277036   3.003   5.650  12.112 -0.0392  0.0666 -0.8466
18541TIP3   OH277037   1.663   2.998  17.000 -0.6646  0.3359 -0.6434
18541TIP3    H177038   1.746   3.031  17.035 -1.7319  0.8563  1.6269
18541TIP3    H277039   1.632   3.067  16.942  0.1848  0.4135 -1.0188
18542TIP3   OH277040   5.050   4.592  11.761  0.3200  0.1299  0.0744
18542TIP3    H177041   5.003   4.548  11.832  1.9530 -0.7055  0.6824
18542TIP3    H277042   5.127   4.630  11.804  1.6349 -0.8600 -1.3192
18543TIP3   OH277043   1.144   2.755  16.802  0.3394 -0.0905  0.2017
18543TIP3    H177044   1.223   2.768  16.856 -0.1038 -1.5047  1.2495
18543TIP3    H277045   1.080   2.815  16.839  0.3431 -0.3288  0.5966
18544TIP3   OH277046   1.295   6.368   2.341 -0.0829 -0.3530 -0.2841
18544TIP3    H177047   1.361   6.435   2.357 -1.2918  1.2454 -1.5901
18544TIP3    H277048   1.236   6.373   2.417 -0.5688  0.6030 -0.7082
18545TIP3   OH277049   4.510   6.440   2.825  0.0809 -0.1623 -0.1324
18545TIP3    H177050   4.418   6.441   2.797  0.3807  0.4787 -1.1600
18545TIP3    H277051   4.560   6.440   2.743  0.9962  0.4594  0.4101
18546TIP3   OH277052   0.984   5.138   4.984 -0.4062  0.4343  0.3765
18546TIP3    H177053   0.995   5.076   4.912  1.9923  0.4031  0.6626
18546TIP3    H277054   0.904   5.110   5.029 -0.7214 -0.9112 -0.9464
18547TIP3   OH277055   0.236   5.597  13.684  0.4974  0.0296  0.6006
18547TIP3    H177056   0.154   5.618  13.640  0.7585 -0.5500 -0.1925
18547TIP3    H277057   0.240   5.502  13.684  0.6436  0.0222  1.6441
18548TIP3   OH277058   0.160   2.898   4.843 -0.5442  0.2064  0.0266
18548TIP3    H177059   0.236   2.925   4.894 -1.0482 -0.0711  0.9339
18548TIP3    H277060   0.099   2.861   4.907 -1.2983  0.0935 -0.7353
18549TIP3   OH277061   1.096   1.557  17.052  0.3347 -0.4294  0.3983
18549TIP3    H177062   1.116   1.499  16.978 -0.9860 -1.2088  0.6132
18549TIP3    H277063   1.001   1.565  17.051  0.4904  2.1540  0.1127
18550TIP3   OH277064   4.536   0.631  12.882 -0.3749  0.3791 -0.0999
18550TIP3    H177065   4.623   0.667  12.865 -0.2768  0.2489  0.1152
18550TIP3    H277066   4.553   0.541  12.911 -0.6547 -0.1166 -1.3851
18551TIP3   OH277067   2.772   6.202   6.457  0.2178 -0.1435  0.2489
18551TIP3    H177068   2.760   6.293   6.485  0.4038  0.4823 -1.5507
18551TIP3    H277069   2.799   6.209   6.365 -2.3581 -2.1017 -0.7671
18552TIP3   OH277070   2.408   2.556  12.660 -0.4120  0.1511 -0.5742
18552TIP3    H177071   2.465   2.507  12.599 -2.5569 -0.8232 -1.9181
18552TIP3    H277072   2.356   2.612  12.603 -0.1501  1.7699  0.7205
18553TIP3   OH277073   5.026   0.756  11.403  0.1724  0.5409  0.1133
18553TIP3    H177074   4.939   0.793  11.387 -1.1461 -2.1749  0.5737
18553TIP3    H277075   5.045   0.705  11.324 -0.1666 -1.5470  1.3108
18554TIP3   OH277076   5.029   4.938  12.898  0.0978 -0.0682 -0.4083
18554TIP3    H177077   4.997   4.848  12.900  0.3583 -0.1963  2.6280
18554TIP3    H277078   4.950   4.991  12.910  0.2643 -0.1192  1.2075
18555TIP3   OH277079   3.077   3.903   3.763 -0.2424 -0.3476  0.4167
18555TIP3    H177080   3.059   3.937   3.851 -2.4084 -0.9909  0.2845
18555TIP3    H277081   3.031   3.818   3.760 -0.5162 -0.1864 -1.4293
18556TIP3   OH277082   5.002   6.809   3.974  0.6504 -0.3564 -0.5056
18556TIP3    H177083   5.057   6.872   3.926 -1.2876  1.3003 -0.7328
18556TIP3    H277084   4.939   6.778   3.908 -0.0445 -0.5165  0.2228
18557TIP3   OH277085   0.981   1.681  12.433  0.0061 -0.5257  0.6441
18557TIP3    H177086   0.963   1.627  12.356 -0.2955  0.5172 -0.0351
18557TIP3    H277087   1.066   1.721  12.416 -0.0388 -0.3257  0.8738
18558TIP3   OH277088   1.926   1.050  11.159  0.3919  0.2523 -0.1560
18558TIP3    H177089   1.832   1.036  11.149  0.2821 -0.0227  1.0745
18558TIP3    H277090   1.953   0.985  11.224  1.6415 -0.3912 -1.2702
18559TIP3   OH277091   1.107   6.781   2.901  0.2864 -0.2311  0.4922
18559TIP3    H177092   1.060   6.864   2.901  0.4068 -0.1575 -0.3877
18559TIP3    H277093   1.060   6.727   2.965 -0.7592 -0.0246 -0.0713
18560TIP3   OH277094   6.131   3.673   5.701 -0.9746 -0.4514  0.5190
18560TIP3    H177095   6.069   3.703   5.635 -1.2823 -1.5071  0.3215
18560TIP3    H277096   6.121   3.578   5.703 -0.2704 -0.5212  1.3914
18561TIP3   OH277097   2.689   5.404  11.970  0.1219 -0.4499  0.2316
18561TIP3    H177098   2.701   5.389  11.876  0.3289 -0.2113  0.2189
18561TIP3    H277099   2.615   5.348  11.994  0.6971 -1.2618  0.1346
18562TIP3   OH277100   5.465   5.934   2.010 -0.3534  0.7189 -0.0588
18562TIP3    H177101   5.560   5.945   2.004 -0.3426  2.0478  1.6505
18562TIP3    H277102   5.440   5.891   1.928  1.5543  1.4457 -1.0747
18563TIP3   OH277103   0.243   6.478   4.068 -0.3946 -0.2627  0.2084
18563TIP3    H177104   0.197   6.478   3.983  0.2603 -1.5820 -0.1730
18563TIP3    H277105   0.331   6.507   4.047 -0.3936 -0.0261  0.5402
18564TIP3   OH277106   2.043   5.248   2.978  0.3202  0.7030  0.2228
18564TIP3    H177107   1.973   5.228   2.917 -0.1963  2.5768  0.1302
18564TIP3    H277108   1.999   5.283   3.055  1.0822  0.5099  0.7609
18565TIP3   OH277109   5.277   2.111  11.600  0.2098  0.3379 -0.4024
18565TIP3    H177110   5.311   2.135  11.687 -0.1507 -0.1308 -0.1246
18565TIP3    H277111   5.330   2.162  11.539  1.3196 -0.2744  0.0169
18566TIP3   OH277112   3.262   4.517   3.440  0.1521  0.4563 -0.2029
18566TIP3    H177113   3.241   4.611   3.439 -1.6238  0.0857 -0.0126
18566TIP3    H277114   3.193   4.478   3.493  0.4342 -1.0711 -0.9250
18567TIP3   OH277115   0.661   5.455   6.261 -0.3466 -0.6796  0.5458
18567TIP3    H177116   0.751   5.457   6.295  1.0515 -0.8162 -2.7489
18567TIP3    H277117   0.637   5.363   6.262 -0.2514 -0.7032  0.9359
18568TIP3   OH277118   1.148   2.110   6.539  0.5172 -0.4308  0.1546
18568TIP3    H177119   1.227   2.161   6.523  0.8164 -1.3096 -1.3360
18568TIP3    H277120   1.093   2.168   6.592  0.6567  1.6137 -1.7916
18569TIP3   OH277121   0.641   2.548  13.987 -0.0180 -0.2927 -0.7610
18569TIP3    H177122   0.550   2.531  13.961  0.1185 -0.4928 -1.1045
18569TIP3    H277123   0.678   2.598  13.914 -0.5410  1.9452  0.3823
18570TIP3   OH277124   4.323   2.763   1.495  0.4493 -0.3565 -0.2735
18570TIP3    H177125   4.404   2.729   1.533 -1.4102 -1.1274  3.4976
18570TIP3    H277126   4.258   2.695   1.513 -2.0537  2.2883  1.5881
18571TIP3   OH277127   5.440   0.270   0.668  0.0176 -0.2660  0.1990
18571TIP3    H177128   5.350   0.288   0.694  0.0361 -1.5059  1.2048
18571TIP3    H277129   5.467   0.348   0.620 -2.4439 -0.8879 -2.4634
18572TIP3   OH277130   6.227   5.612  16.970  0.3626  0.0554 -0.0414
18572TIP3    H177131   6.185   5.686  16.926  0.0118  0.7041  1.3360
18572TIP3    H277132   6.156   5.568  17.016  1.1550  1.6591  3.0329
18573TIP3   OH277133   2.184   4.369   1.743  0.6483 -0.4529  1.0321
18573TIP3    H177134   2.272   4.350   1.776  1.8427  0.4633 -1.3977
18573TIP3    H277135   2.183   4.465   1.734 -0.0022 -0.5848 -0.4875
18574TIP3   OH277136   1.882   6.724  13.081  0.1599  0.2209 -0.1286
18574TIP3    H177137   1.956   6.750  13.026  0.8587 -0.9256  0.2374
18574TIP3    H277138   1.905   6.757  13.168  0.0152  0.2726 -0.1102
18575TIP3   OH277139   2.122   6.570   3.607  0.5208 -0.2000 -0.2832
18575TIP3    H177140   2.057   6.511   3.644 -0.2068  0.8770  0.2059
18575TIP3    H277141   2.074   6.622   3.543  1.3107 -0.6008 -1.2334
18576TIP3   OH277142   0.676   0.020  13.968  0.3503  0.1055  0.3173
18576TIP3    H177143   0.614  -0.051  13.980 -0.0504  0.3708 -0.1634
18576TIP3    H277144   0.732  -0.008  13.895 -0.4315  0.6959 -0.5363
18577TIP3   OH277145   4.271   6.392   2.699  0.1536  0.2898 -0.3124
18577TIP3    H177146   4.219   6.361   2.773  1.2456  0.2322  0.4695
18577TIP3    H277147   4.230   6.474   2.673 -0.1192  0.4322  0.5275
18578TIP3   OH277148   1.387   5.699  11.431  0.7306 -0.1511  0.3253
18578TIP3    H177149   1.440   5.630  11.391 -1.2015 -1.2561 -0.4802
18578TIP3    H277150   1.314   5.711  11.370 -0.0848  1.1255  1.4998
18579TIP3   OH277151   0.506   1.095  10.583 -0.0067  0.5399  0.0875
18579TIP3    H177152   0.428   1.130  10.541  0.8895  0.2624 -1.8975
18579TIP3    H277153   0.568   1.168  10.582  0.8459 -0.1721 -1.3476
18580TIP3   OH277154   0.373   0.267   0.812  0.0709  0.3848 -0.0102
18580TIP3    H177155   0.352   0.216   0.733  0.0719  0.9573 -0.3876
18580TIP3    H277156   0.340   0.355   0.793 -0.2384  0.4397  0.7763
18581TIP3   OH277157   2.633   6.237   0.105  0.2181 -0.2671  0.4030
18581TIP3    H177158   2.572   6.309   0.092  0.9197  0.6979  2.0873
18581TIP3    H277159   2.601   6.191   0.182  0.3643 -1.1256 -0.0381
18582TIP3   OH277160   1.518   5.916   1.134 -0.2635 -0.0506 -0.1795
18582TIP3    H177161   1.453   5.911   1.205  0.4971 -0.4894  0.4987
18582TIP3    H277162   1.597   5.949   1.175  0.1711 -0.2478 -0.8376
18583TIP3   OH277163   6.606   6.074  12.007  0.3881  0.0396  0.0626
18583TIP3    H177164   6.624   6.053  12.099  2.1635  0.1710 -0.2041
18583TIP3    H277165   6.562   6.158  12.010  1.6204  0.6985  0.7784
18584TIP3   OH277166   6.291   6.192  12.467 -0.1385 -0.3775 -0.2324
18584TIP3    H177167   6.365   6.251  12.482 -0.4031  0.2675 -1.3724
18584TIP3    H277168   6.299   6.166  12.376 -0.7376 -1.1250 -0.0824
18585TIP3   OH277169   5.794   1.226  15.691  0.5239  0.1515  0.7271
18585TIP3    H177170   5.816   1.266  15.775 -0.6364 -1.4564  1.8668
18585TIP3    H277171   5.866   1.165  15.674  1.6751  1.7343 -0.4069
18586TIP3   OH277172   0.632   2.791   4.830  0.0063  0.1979 -0.4414
18586TIP3    H177173   0.668   2.707   4.803  0.4861  0.0660  0.5372
18586TIP3    H277174   0.553   2.802   4.778 -0.4508 -1.2041 -0.0784
18587TIP3   OH277175   6.643   6.495   0.995 -0.0799  0.4166 -0.6676
18587TIP3    H177176   6.738   6.487   0.988 -0.1943  0.1268 -2.3497
18587TIP3    H277177   6.610   6.405   0.994 -0.4572  0.5340 -2.3794
18588TIP3   OH277178   3.281   4.925   1.301  0.1971 -0.3736 -0.5496
18588TIP3    H177179   3.264   4.887   1.215 -2.5597  0.0718 -0.2689
18588TIP3    H277180   3.318   4.853   1.352  0.0247 -1.1786 -1.5261
18589TIP3   OH277181   5.810   6.092  11.257 -0.7341 -0.1098  0.0803
18589TIP3    H177182   5.850   6.033  11.194  0.5658  1.2834 -0.4795
18589TIP3    H277183   5.838   6.180  11.229 -0.4680  0.5966  2.2984
18590TIP3   OH277184   2.901   2.048  15.567 -0.1145 -0.4438  0.8196
18590TIP3    H177185   2.840   1.992  15.615 -1.0733 -0.4558 -0.3604
18590TIP3    H277186   2.940   2.104  15.634 -0.6186 -1.1749  1.7484
18591TIP3   OH277187   3.623   6.768  12.273  0.1704 -0.5482  0.2460
18591TIP3    H177188   3.620   6.863  12.261 -0.4388 -0.6581 -0.5031
18591TIP3    H277189   3.544   6.747  12.323 -0.1923 -0.7691 -0.4088
18592TIP3   OH277190   2.792   1.051   0.755  0.8625 -0.1622  0.1311
18592TIP3    H177191   2.838   1.026   0.676  0.7317 -1.2685  0.3787
18592TIP3    H277192   2.861   1.068   0.819  0.9616  0.4490 -0.1342
18593TIP3   OH277193   5.316   6.709   3.918 -0.4306  0.1778 -0.1749
18593TIP3    H177194   5.324   6.781   3.856  1.3731 -1.2962 -1.8169
18593TIP3    H277195   5.359   6.740   3.998  0.9809  0.6851 -1.1055
18594TIP3   OH277196   1.872   4.850  11.935  0.2413  0.2316 -0.2959
18594TIP3    H177197   1.859   4.813  12.022 -0.9163  0.8608 -0.1865
18594TIP3    H277198   1.899   4.941  11.951  1.1220  0.0317 -0.5886
18595TIP3   OH277199   5.326   3.988  14.650  0.6483  0.2081 -0.2153
18595TIP3    H177200   5.301   3.998  14.558  0.3174 -1.7870 -0.3836
18595TIP3    H277201   5.247   4.011  14.699 -0.6069 -2.7239 -0.6343
18596TIP3   OH277202   4.719   3.211  15.623  0.3579  0.3910  0.1693
18596TIP3    H177203   4.720   3.197  15.717  1.0077 -0.3554  0.0643
18596TIP3    H277204   4.669   3.292  15.611 -0.1729  0.2116  1.1061
18597TIP3   OH277205   2.823   1.175   1.701  0.0349  0.6886  0.1202
18597TIP3    H177206   2.796   1.242   1.764  0.9295  0.5037  0.7281
18597TIP3    H277207   2.852   1.101   1.755  0.0476  0.2161 -0.5230
18598TIP3   OH277208   2.768   3.735  11.888 -0.7216 -0.4704  0.8065
18598TIP3    H177209   2.717   3.655  11.897 -2.2446  0.4986  1.3273
18598TIP3    H277210   2.771   3.752  11.794 -0.6053 -1.0069  0.7140
18599TIP3   OH277211   0.099   0.488  10.300  0.4951  0.6138  0.0642
18599TIP3    H177212   0.170   0.505  10.362  0.3590  1.1586  0.0733
18599TIP3    H277213   0.024   0.467  10.356 -0.3159  3.5335  0.2510
18600TIP3   OH277214   4.472   5.988   1.093  0.4567  0.5988  0.4604
18600TIP3    H177215   4.508   5.955   1.175  0.6993 -0.9236 -0.2307
18600TIP3    H277216   4.485   5.917   1.030  0.1373  1.6728 -0.8681
18601TIP3   OH277217   5.006   3.282   2.816 -0.1297 -0.1498  0.1343
18601TIP3    H177218   5.046   3.353   2.764  1.5221 -0.7933  0.4501
18601TIP3    H277219   5.030   3.302   2.906  0.8064 -1.3633  0.1759
18602TIP3   OH277220   1.318   5.819   5.054  0.0405  0.5499 -0.1402
18602TIP3    H177221   1.255   5.888   5.034 -1.2760 -0.8199 -0.9123
18602TIP3    H277222   1.283   5.741   5.011  1.9972 -0.3975 -0.1411
18603TIP3   OH277223   4.556   6.217  11.471  0.4492  0.1355  0.0333
18603TIP3    H177224   4.646   6.231  11.502 -0.6382  0.3347  3.5856
18603TIP3    H277225   4.505   6.284  11.517 -1.6446 -0.5687 -1.1743
18604TIP3   OH277226   0.427   3.810  14.984  0.2227  0.0084 -0.0472
18604TIP3    H177227   0.501   3.865  15.011  1.5869 -1.4577 -0.5697
18604TIP3    H277228   0.426   3.816  14.889  0.6475 -1.1359 -0.1390
18605TIP3   OH277229   1.327   2.016  11.110  0.5913 -0.3335  0.2061
18605TIP3    H177230   1.408   2.015  11.059 -0.5496 -0.3858 -1.6945
18605TIP3    H277231   1.280   1.937  11.083 -0.9086  0.6251 -0.1246
18606TIP3   OH277232   5.446   5.052   5.914  0.0227 -0.2858 -0.9078
18606TIP3    H177233   5.442   4.960   5.887  0.9317 -0.7100  0.2862
18606TIP3    H277234   5.519   5.055   5.977 -0.3498  1.1443 -0.5090
18607TIP3   OH277235   3.195   4.451  11.381 -0.7174 -0.1407 -0.2975
18607TIP3    H177236   3.191   4.369  11.332  2.6732  0.4266 -1.8032
18607TIP3    H277237   3.261   4.435  11.448 -0.2496  1.2259 -0.4058
18608TIP3   OH277238   6.307   2.117   6.166  0.1797  0.0372  0.0011
18608TIP3    H177239   6.219   2.080   6.180  0.8332 -1.5770  0.0343
18608TIP3    H277240   6.366   2.044   6.182  1.4489  0.5788 -1.9799
18609TIP3   OH277241   1.039   4.164  14.557  0.0997 -0.0964 -0.8793
18609TIP3    H177242   0.949   4.196  14.563  0.7752  2.5661 -2.9413
18609TIP3    H277243   1.088   4.218  14.618  0.1737 -2.6901  1.5632
18610TIP3   OH277244   5.055   3.848  16.264 -0.0384  0.4584  0.1514
18610TIP3    H177245   5.086   3.926  16.219  1.1029  0.4580  0.8800
18610TIP3    H277246   4.967   3.871  16.295 -0.2900  0.9257 -0.8640
18611TIP3   OH277247   3.078   5.156  15.883 -0.0789  0.0392 -0.0350
18611TIP3    H177248   3.040   5.122  15.964  0.5195 -0.6474 -0.0307
18611TIP3    H277249   3.140   5.223  15.912 -1.1023  1.0042 -0.0303
18612TIP3   OH277250   6.676   6.667   5.434 -0.3941  0.3566  0.2838
18612TIP3    H177251   6.768   6.692   5.445 -0.3462  0.1086  0.4550
18612TIP3    H277252   6.628   6.727   5.492 -0.0236 -1.8498  3.0911
18613TIP3   OH277253   2.409   2.185   5.829  0.2685  0.1674 -1.0373
18613TIP3    H177254   2.429   2.245   5.901  3.0156  0.6938 -2.1076
18613TIP3    H277255   2.336   2.226   5.783 -0.5379  0.5787  0.5487
18614TIP3   OH277256   6.599   1.303   0.823 -0.2644  0.5307  0.3133
18614TIP3    H177257   6.513   1.260   0.821 -1.0388  2.0014 -0.2671
18614TIP3    H277258   6.620   1.317   0.730  2.1260 -2.5416  0.2197
18615TIP3   OH277259   1.020   2.385  15.544  0.5974 -0.7512  0.8155
18615TIP3    H177260   1.115   2.377  15.546  0.5079 -2.7338 -0.3645
18615TIP3    H277261   0.989   2.298  15.568 -0.8931 -0.5325 -0.2055
18616TIP3   OH277262   2.839   1.276  13.948 -0.0699  0.0027  0.0434
18616TIP3    H177263   2.864   1.294  14.039  0.6467 -0.0720 -0.1295
18616TIP3    H277264   2.763   1.332  13.932 -1.0152 -0.9187  1.0811
18617TIP3   OH277265   0.204   2.430   6.102 -0.3614 -0.8640 -0.3848
18617TIP3    H177266   0.166   2.343   6.103 -0.4677 -0.8302  0.9366
18617TIP3    H277267   0.296   2.416   6.080 -0.0610 -1.4855  1.1312
18618TIP3   OH277268   2.842   1.924   2.866  1.0459  0.2071  0.2631
18618TIP3    H177269   2.834   1.999   2.924 -1.6694  0.7479 -0.6776
18618TIP3    H277270   2.890   1.958   2.790 -1.5069  1.5562 -0.8625
18619TIP3   OH277271   3.128   0.018  14.060  0.3717  0.0419 -0.0131
18619TIP3    H177272   3.054   0.080  14.051 -0.4739 -0.9590 -0.1434
18619TIP3    H277273   3.154  -0.001  13.971  2.0418  1.8024  0.0401
18620TIP3   OH277274   1.898   5.044  12.526  0.2765  0.4911  0.0892
18620TIP3    H177275   1.948   4.990  12.465  0.1280  0.6162 -0.1416
18620TIP3    H277276   1.895   4.992  12.606  1.3973  0.7791  0.3465
18621TIP3   OH277277   4.393   4.953  17.085  0.1390  0.1634 -0.1624
18621TIP3    H177278   4.479   4.976  17.121  0.2123 -2.2222  1.4838
18621TIP3    H277279   4.331   4.977  17.153 -0.4360  1.0018 -0.9546
18622TIP3   OH277280   2.728   3.002  14.789  0.2970  0.1125  0.2206
18622TIP3    H177281   2.816   3.004  14.825 -0.1135  0.1471  1.2534
18622TIP3    H277282   2.675   2.958  14.855 -0.1777 -1.3378 -1.0562
18623TIP3   OH277283   0.711   4.664   3.743  0.2544  1.1177  0.3220
18623TIP3    H177284   0.662   4.738   3.780 -0.5165  1.2229 -0.8414
18623TIP3    H277285   0.717   4.601   3.814 -2.3627  0.7223  0.3017
18624TIP3   OH277286   4.285   4.649   4.459  0.2096  0.0276 -0.0331
18624TIP3    H177287   4.211   4.694   4.418  0.1885  0.4139  0.4253
18624TIP3    H277288   4.339   4.720   4.494 -0.0973 -0.3154  1.1778
18625TIP3   OH277289   3.307   1.866   5.981 -1.1748  0.3461  0.4715
18625TIP3    H177290   3.284   1.951   6.017 -2.8398 -0.0853  0.5175
18625TIP3    H277291   3.332   1.813   6.057 -1.2735  0.4644  0.5864
18626TIP3   OH277292   4.485   2.785   4.537  0.5193 -0.2288  0.3187
18626TIP3    H177293   4.441   2.808   4.618  1.2906 -0.0343  0.6955
18626TIP3    H277294   4.502   2.691   4.544 -1.0557 -0.6022 -0.4434
18627TIP3   OH277295   0.155   4.507   4.940  0.5770  0.1667  0.1348
18627TIP3    H177296   0.208   4.529   5.017  1.7024  0.7583 -0.7786
18627TIP3    H277297   0.131   4.592   4.902  0.1765 -0.1212 -0.2707
18628TIP3   OH277298   6.352   2.583   4.876 -0.1098 -0.2232  0.0644
18628TIP3    H177299   6.436   2.628   4.875 -0.7333  0.9961 -0.2522
18628TIP3    H277300   6.360   2.516   4.808  0.6371 -0.1971  0.1172
18629TIP3   OH277301   3.168   5.353  13.544 -0.7629 -0.1314 -0.4211
18629TIP3    H177302   3.258   5.345  13.511 -0.4621 -0.1048  0.3693
18629TIP3    H277303   3.149   5.267  13.582 -0.3279  0.4625  1.2077
18630TIP3   OH277304   4.700   3.128  11.201 -0.3477  0.0583 -0.6380
18630TIP3    H177305   4.730   3.102  11.114 -0.4894  1.6516 -1.1855
18630TIP3    H277306   4.780   3.155  11.246 -0.5038  0.9745 -0.9040
18631TIP3   OH277307   3.431   0.715   0.183 -0.3219  0.0690  0.1075
18631TIP3    H177308   3.490   0.789   0.168  1.7985 -1.3148  1.1238
18631TIP3    H277309   3.457   0.650   0.117 -0.7955 -0.5258  0.4932
18632TIP3   OH277310   2.635   0.755   1.506 -0.0512  0.1612 -0.2546
18632TIP3    H177311   2.659   0.840   1.467 -1.1353  0.7409  0.3058
18632TIP3    H277312   2.604   0.703   1.433 -1.6750  1.1006 -0.2733
18633TIP3   OH277313   6.386   1.700  13.233  0.5144 -0.0167 -0.1266
18633TIP3    H177314   6.330   1.742  13.168  0.1981 -0.1917  0.0336
18633TIP3    H277315   6.340   1.621  13.258  0.9043 -0.2403 -0.1024
18634TIP3   OH277316   4.498   0.003  13.154 -0.3573 -0.0035 -0.0663
18634TIP3    H177317   4.412  -0.039  13.158 -0.2385 -0.1864  0.8022
18634TIP3    H277318   4.520   0.002  13.061 -1.0900 -0.3731 -0.2502
18635TIP3   OH277319   0.372   6.379  16.417  0.3218  0.2424  0.2401
18635TIP3    H177320   0.332   6.311  16.471 -1.6374  0.8233 -0.4109
18635TIP3    H277321   0.438   6.333  16.366 -1.9532 -1.5277 -1.2622
18636TIP3   OH277322   4.715   6.397  17.040  0.0689 -0.4792  0.1284
18636TIP3    H177323   4.628   6.418  17.073 -0.5667  2.5372 -2.8790
18636TIP3    H277324   4.700   6.342  16.964  0.6859  0.4295 -0.6838
18637TIP3   OH277325   1.219   3.559  13.118 -0.7287 -0.3350  0.3063
18637TIP3    H177326   1.176   3.622  13.060  0.9181  0.3616 -0.2321
18637TIP3    H277327   1.159   3.485  13.122 -1.3771  0.0373 -1.4612
18638TIP3   OH277328   5.240   5.667   6.474 -0.1404  0.1361 -0.3306
18638TIP3    H177329   5.309   5.692   6.535  0.3380 -0.3859 -0.6563
18638TIP3    H277330   5.286   5.630   6.399 -0.8006 -0.8818 -0.2463
18639TIP3   OH277331   4.811   4.233  16.238  0.9130 -0.5792  0.5053
18639TIP3    H177332   4.897   4.267  16.215  0.1959  1.1644  0.2665
18639TIP3    H277333   4.764   4.230  16.155  0.6489 -1.2775  0.6758
18640TIP3   OH277334   2.079   1.281  13.034  0.2430 -0.2652 -0.0497
18640TIP3    H177335   2.146   1.242  13.088 -0.1567 -1.0126 -0.0866
18640TIP3    H277336   2.061   1.366  13.075  0.7492 -0.3328  0.3155
18641TIP3   OH277337   1.650   5.195  13.626  0.2154 -0.2054 -0.2846
18641TIP3    H177338   1.621   5.169  13.539  0.4478 -1.1882 -0.0846
18641TIP3    H277339   1.717   5.261  13.610  0.9159 -1.0392 -0.8930
18642TIP3   OH277340   2.061   2.586  13.914 -0.0860 -0.1694  0.0542
18642TIP3    H177341   2.027   2.529  13.983  1.5363  1.1311  2.0590
18642TIP3    H277342   2.080   2.669  13.958  1.6668  0.5108 -1.8061
18643TIP3   OH277343   2.544   3.457   6.804 -0.1952  0.1960  0.6893
18643TIP3    H177344   2.571   3.503   6.724 -1.9234 -0.5508 -0.3872
18643TIP3    H277345   2.623   3.454   6.858  0.9950  0.8255 -0.9384
18644TIP3   OH277346   4.801   5.436  14.147  0.0727 -0.2010  0.7338
18644TIP3    H177347   4.876   5.383  14.173  0.4586  0.7307  1.6088
18644TIP3    H277348   4.737   5.423  14.218 -0.1869 -0.1873  0.5050
18645TIP3   OH277349   3.672   3.006   0.475  0.5404  0.5925  0.1081
18645TIP3    H177350   3.635   3.006   0.563  1.4503 -2.4650  0.5844
18645TIP3    H277351   3.723   2.926   0.470  1.1083  1.0287 -2.9931
18646TIP3   OH277352   6.473   6.320  12.038 -0.3401  0.6550 -0.3496
18646TIP3    H177353   6.557   6.342  11.997  0.9730 -0.9441  1.3156
18646TIP3    H277354   6.421   6.400  12.030  1.3375  1.7045 -1.4067
18647TIP3   OH277355   2.065   3.675  13.715 -0.3572 -0.3066 -0.2243
18647TIP3    H177356   2.043   3.701  13.805 -0.8031 -2.1709  0.2447
18647TIP3    H277357   2.152   3.712  13.700 -0.3303  0.1325  0.9366
18648TIP3   OH277358   3.196   2.718   4.602 -0.6985  0.6031  0.6804
18648TIP3    H177359   3.203   2.631   4.562 -1.4680  1.5068 -1.6047
18648TIP3    H277360   3.275   2.764   4.573 -1.0447  1.1416  0.5770
18649TIP3   OH277361   0.198   2.777   0.282 -0.2116 -0.0468 -0.3556
18649TIP3    H177362   0.239   2.697   0.251  1.0971  1.1200 -1.7964
18649TIP3    H277363   0.219   2.780   0.376  1.8570 -0.2069 -0.7601
18650TIP3   OH277364   3.470   6.055  10.753  0.4378 -0.0306 -0.0380
18650TIP3    H177365   3.438   6.133  10.797  0.7731  0.0897 -0.0042
18650TIP3    H277366   3.475   5.989  10.822  2.2787  0.5326  0.4299
18651TIP3   OH277367   4.208   3.977  13.325  0.3173  0.3641  0.1472
18651TIP3    H177368   4.186   3.907  13.262 -0.3611  1.0296 -0.3798
18651TIP3    H277369   4.246   3.931  13.399  1.5511 -0.4178 -0.9151
18652TIP3   OH277370   6.354   6.579  11.040  0.0048  0.8977 -0.0423
18652TIP3    H177371   6.304   6.499  11.057  0.9665  0.3731  0.3752
18652TIP3    H277372   6.355   6.625  11.124 -2.1687  2.3291 -0.7165
18653TIP3   OH277373   4.709   2.350   1.335  0.0584  0.0199  0.1667
18653TIP3    H177374   4.763   2.397   1.398  0.7654  0.2057 -0.5600
18653TIP3    H277375   4.640   2.309   1.388  0.5982  0.2196  1.0440
18654TIP3   OH277376   4.487   1.700  12.099  0.1768 -0.2574  0.1356
18654TIP3    H177377   4.540   1.779  12.098  0.9476 -0.7421  0.9649
18654TIP3    H277378   4.492   1.666  12.010  0.5608  0.1634 -0.0029
18655TIP3   OH277379   0.716   5.833   5.163 -0.4853  0.2366 -0.5860
18655TIP3    H177380   0.654   5.760   5.160  1.1608 -1.2275 -0.5315
18655TIP3    H277381   0.734   5.846   5.256  1.6757 -1.5566 -0.6607
18656TIP3   OH277382   3.353   2.993   1.850  0.0388 -0.3428  0.5334
18656TIP3    H177383   3.292   3.063   1.827  0.5926  0.9034  2.5079
18656TIP3    H277384   3.407   2.981   1.772 -0.8043  0.6463 -0.2277
18657TIP3   OH277385   6.684   6.787  12.700  0.3610  0.0765  0.4269
18657TIP3    H177386   6.661   6.861  12.756  0.2279  1.2987 -1.1704
18657TIP3    H277387   6.759   6.818  12.649 -0.4543 -0.4081 -1.1273
18658TIP3   OH277388   4.595   5.900  10.704 -0.0089 -0.1442 -0.1841
18658TIP3    H177389   4.669   5.868  10.652 -0.4921 -1.7124  0.0320
18658TIP3    H277390   4.540   5.948  10.641 -1.3194 -3.1978 -1.5723
18659TIP3   OH277391   0.281   1.196   2.476  0.6011  0.0022  0.0154
18659TIP3    H177392   0.359   1.162   2.519 -0.5090 -2.8180  0.0118
18659TIP3    H277393   0.218   1.208   2.547  0.8589  1.8986 -0.0306
18660TIP3   OH277394   3.160   0.331   5.767 -0.2831  0.2621  0.0689
18660TIP3    H177395   3.235   0.385   5.790  1.1001 -0.2437 -2.8011
18660TIP3    H277396   3.097   0.346   5.837  1.4629  2.7111  1.2556
18661TIP3   OH277397   3.294   5.311   1.071  0.2074 -0.4018 -0.0456
18661TIP3    H177398   3.254   5.381   1.020  0.9932 -1.2806 -1.9541
18661TIP3    H277399   3.232   5.238   1.065  0.5870 -0.7081 -0.2563
18662TIP3   OH277400   5.161   2.755  11.580  0.2476  0.2562  0.0182
18662TIP3    H177401   5.174   2.662  11.563  0.2943  0.4570 -1.1436
18662TIP3    H277402   5.249   2.793  11.572  0.1021  0.5188 -0.3563
18663TIP3   OH277403   4.851   3.083  12.124 -0.0500  0.2045 -0.3837
18663TIP3    H177404   4.876   2.994  12.147  0.5024 -0.0163 -1.7789
18663TIP3    H277405   4.756   3.079  12.111  0.2522 -0.7270 -2.6684
18664TIP3   OH277406   5.365   2.831  14.778 -0.4521 -0.1574 -0.4766
18664TIP3    H177407   5.406   2.804  14.696 -0.2172  1.0417 -0.7605
18664TIP3    H277408   5.387   2.760  14.839  0.5638 -0.3863 -1.0786
18665TIP3   OH277409   2.759   1.915   3.388  0.5466 -0.0783 -0.5495
18665TIP3    H177410   2.785   1.826   3.414  2.5449  0.0579 -1.8939
18665TIP3    H277411   2.822   1.940   3.322 -1.0631  1.7006 -1.5100
18666TIP3   OH277412   2.715   3.441  14.178  0.4950  0.1388  0.2741
18666TIP3    H177413   2.679   3.353  14.173  1.3306 -0.1432 -2.2401
18666TIP3    H277414   2.741   3.452  14.269 -2.7261 -0.8721  1.4340
18667TIP3   OH277415   3.836   4.795   2.346 -0.1248  0.1858 -0.4894
18667TIP3    H177416   3.843   4.700   2.335  4.1045  0.0982  1.0759
18667TIP3    H277417   3.873   4.831   2.266 -0.6467  0.5049 -0.5905
18668TIP3   OH277418   0.124   3.072   4.625  0.3672  0.1985 -0.6724
18668TIP3    H177419   0.129   3.026   4.709  4.0898 -1.1123 -1.4299
18668TIP3    H277420   0.070   3.015   4.570  1.1499 -0.9846 -0.2622
18669TIP3   OH277421   2.043   2.017   2.360  0.2644  0.2580  0.2467
18669TIP3    H177422   2.029   2.105   2.326  0.7201  0.7492  1.3048
18669TIP3    H277423   1.993   2.014   2.441 -1.3025 -1.1058 -0.7016
18670TIP3   OH277424   1.457   3.955  12.587 -0.4299  0.6318  0.2955
18670TIP3    H177425   1.483   4.035  12.540 -1.2735  0.0973 -1.1316
18670TIP3    H277426   1.481   3.884  12.528  0.9989 -0.2580  1.8704
18671TIP3   OH277427   2.873   4.963  12.892 -0.3943  0.2756  0.1346
18671TIP3    H177428   2.935   5.005  12.832 -0.4787  0.0044 -0.1483
18671TIP3    H277429   2.811   5.033  12.916  1.5198  1.2967  2.5435
18672TIP3   OH277430   2.184   1.580  14.962 -0.1478 -0.2729  0.5069
18672TIP3    H177431   2.276   1.584  14.935 -0.5839 -0.9564 -1.2008
18672TIP3    H277432   2.156   1.492  14.939 -1.1354 -0.2160  1.4076
18673TIP3   OH277433   0.356   0.053  11.143  0.1482  0.0959  0.0074
18673TIP3    H177434   0.308   0.033  11.063  1.3313  2.8942 -1.5534
18673TIP3    H277435   0.448   0.043  11.119  0.5840  2.4574  0.4661
18674TIP3   OH277436   4.768   1.431   1.726 -0.3940  0.0944  0.4268
18674TIP3    H177437   4.775   1.522   1.697  0.1140 -0.3880 -1.0399
18674TIP3    H277438   4.760   1.380   1.646  0.2830 -1.2452  1.1699
18675TIP3   OH277439   2.602   4.334   5.302  0.5235 -0.0204  0.1365
18675TIP3    H177440   2.554   4.251   5.313 -1.0980  0.6707 -1.2482
18675TIP3    H277441   2.534   4.400   5.294  1.5864  0.8702 -3.1114
18676TIP3   OH277442   4.850   6.343  10.142  0.4096  0.0048  0.2719
18676TIP3    H177443   4.913   6.285  10.184 -0.7173 -1.6634 -0.2642
18676TIP3    H277444   4.848   6.420  10.198  2.0715 -0.3618  0.9133
18677TIP3   OH277445   2.400   2.235   4.159  0.2968 -0.3999  0.4928
18677TIP3    H177446   2.428   2.285   4.236  2.1404 -0.5312 -0.0642
18677TIP3    H277447   2.397   2.144   4.189 -0.1988 -0.3203  0.7113
18678TIP3   OH277448   2.842   4.573  14.962  0.0592  0.0345  0.2119
18678TIP3    H177449   2.916   4.537  15.011  0.3258  1.4796  0.9182
18678TIP3    H277450   2.768   4.519  14.989  0.5152 -0.2550  0.9251
18679TIP3   OH277451   4.418   0.038   4.286  0.3326 -0.1024  0.0548
18679TIP3    H177452   4.455   0.100   4.223 -0.5555  0.0196 -0.3642
18679TIP3    H277453   4.467   0.054   4.367  1.2750 -0.0431 -0.5043
18680TIP3   OH277454   3.904   3.623   5.618 -0.1590  0.3030 -0.1970
18680TIP3    H177455   3.958   3.700   5.637  1.4223 -0.3998 -1.5316
18680TIP3    H277456   3.814   3.655   5.621  0.3163  1.6271  1.6948
18681TIP3   OH277457   2.424   5.068  14.538 -0.1611 -0.4479  0.3838
18681TIP3    H177458   2.370   5.133  14.582  0.8684 -0.3005  1.4991
18681TIP3    H277459   2.428   4.995  14.600  1.2172 -0.2867  0.5174
18682TIP3   OH277460   3.748   3.133   2.396 -0.2220  0.0409  0.4128
18682TIP3    H177461   3.731   3.050   2.440  1.8334 -0.4640  0.3507
18682TIP3    H277462   3.756   3.197   2.466 -1.4281  0.1529  0.4783
18683TIP3   OH277463   1.711   1.673  15.907 -0.2939 -0.9962  0.8226
18683TIP3    H177464   1.643   1.677  15.840 -0.6236 -2.4990  1.0256
18683TIP3    H277465   1.677   1.611  15.972  0.5363 -0.4793  1.7851
18684TIP3   OH277466   0.449   0.881  12.993  0.5235  0.0631 -0.5466
18684TIP3    H177467   0.374   0.824  13.009  2.3342 -2.9037 -1.6504
18684TIP3    H277468   0.473   0.913  13.080  0.2053 -2.0609  0.4035
18685TIP3   OH277469   1.601   1.218  13.102 -0.1139 -0.9981 -0.1492
18685TIP3    H177470   1.657   1.167  13.160  1.7597 -0.5285 -1.4464
18685TIP3    H277471   1.532   1.252  13.159  2.1743  0.2956  2.0461
18686TIP3   OH277472   4.064   2.079  13.842  0.5815  0.3838  0.1574
18686TIP3    H177473   3.977   2.040  13.852 -0.5420  2.3001 -1.3512
18686TIP3    H277474   4.072   2.137  13.918 -0.6465  2.1624 -0.9947
18687TIP3   OH277475   5.154   0.512   2.680 -0.5357 -0.1903 -0.0912
18687TIP3    H177476   5.161   0.587   2.739  2.1873  1.4393 -2.2954
18687TIP3    H277477   5.226   0.454   2.706 -0.9118 -0.7206 -0.2105
18688TIP3   OH277478   6.615   2.184   1.591  0.0753 -0.0080  0.0444
18688TIP3    H177479   6.527   2.180   1.554  0.6025  0.2353 -1.2989
18688TIP3    H277480   6.650   2.269   1.562  1.0628 -0.4795 -0.2051
18689TIP3   OH277481   2.209   5.723   3.910 -0.0992  0.1990  0.1437
18689TIP3    H177482   2.151   5.800   3.906  0.3400  0.5492  0.4203
18689TIP3    H277483   2.150   5.649   3.899 -0.3795  0.6166 -1.4348
18690TIP3   OH277484   0.012   3.142  15.056  0.0784 -0.0108 -0.6686
18690TIP3    H177485   0.070   3.114  15.126 -0.3956  0.8468  0.0966
18690TIP3    H277486  -0.065   3.177  15.101  0.0743  1.2327 -1.5974
18691TIP3   OH277487   0.451   4.813  16.618 -0.4794 -0.7508  0.2883
18691TIP3    H177488   0.479   4.879  16.681 -1.4266 -0.8165  0.7936
18691TIP3    H277489   0.530   4.793  16.568 -0.2210  0.9286 -0.0343
18692TIP3   OH277490   4.835   6.496  11.318  0.5014 -0.1119 -0.2782
18692TIP3    H177491   4.753   6.535  11.348  0.6480  0.0655 -0.1070
18692TIP3    H277492   4.842   6.414  11.367 -0.3691 -0.9234 -1.4575
18693TIP3   OH277493   2.341   1.624   1.038 -0.0184 -0.2806  0.3453
18693TIP3    H177494   2.390   1.545   1.061 -1.8846 -2.0284 -1.2839
18693TIP3    H277495   2.272   1.628   1.105 -0.9239 -1.0399 -0.5134
18694TIP3   OH277496   6.673   4.317   2.710  0.1292  0.5289 -0.3612
18694TIP3    H177497   6.703   4.227   2.697 -1.3375  0.0312 -0.5626
18694TIP3    H277498   6.628   4.316   2.794  1.7951  1.5787  0.5867
18695TIP3   OH277499   3.067   1.342   2.884 -0.1478  0.7588 -0.1599
18695TIP3    H177500   3.076   1.396   2.804  0.0365  0.8303 -0.0918
18695TIP3    H277501   3.123   1.266   2.868 -0.1691  0.7367 -0.1295
18696TIP3   OH277502   4.006   4.560  14.593  0.2838 -0.5854 -0.2867
18696TIP3    H177503   4.085   4.609  14.615 -0.8135  1.0351  0.2267
18696TIP3    H277504   3.945   4.626  14.561 -0.8231 -1.8234 -0.8424
18697TIP3   OH277505   5.476   0.647   5.262 -0.0536 -0.0150 -0.2228
18697TIP3    H177506   5.509   0.557   5.266 -0.6204 -0.2844 -1.2658
18697TIP3    H277507   5.493   0.675   5.172  1.8405  1.6208  0.5827
18698TIP3   OH277508   5.403   5.823   1.445 -0.0116 -0.2225 -0.2010
18698TIP3    H177509   5.443   5.847   1.362  1.0141 -0.6641  0.1468
18698TIP3    H277510   5.434   5.734   1.462  1.8818  0.7318  1.8493
18699TIP3   OH277511   0.309   3.390   4.704  0.0148 -0.5463 -0.6806
18699TIP3    H177512   0.248   3.440   4.758 -1.4313 -1.5589 -1.3221
18699TIP3    H277513   0.362   3.341   4.768 -0.0479  0.0853 -0.1323
18700TIP3   OH277514   6.535   4.121  16.510 -0.1277 -0.5585  0.1324
18700TIP3    H177515   6.467   4.134  16.444 -1.3588  0.5579  1.5631
18700TIP3    H277516   6.617   4.137  16.463 -1.0281  1.7956 -0.8166
18701TIP3   OH277517   4.974   4.949   4.912 -0.1924 -0.2098  0.2983
18701TIP3    H177518   4.968   5.011   4.840 -0.2141  0.0928  0.5618
18701TIP3    H277519   4.948   4.865   4.874  1.1075 -0.3269 -0.3993
18702TIP3   OH277520   2.488   6.431   5.027  0.5377 -0.8275 -0.1203
18702TIP3    H177521   2.453   6.387   5.104  0.9014  0.1705  0.6338
18702TIP3    H277522   2.569   6.385   5.007  1.4848  0.1342  1.3224
18703TIP3   OH277523   2.753   2.866  12.428  0.0540 -0.2558  0.0025
18703TIP3    H177524   2.750   2.777  12.394 -0.3912 -0.0449 -0.5280
18703TIP3    H277525   2.789   2.857  12.516  1.4947 -0.7792 -0.6186
18704TIP3   OH277526   0.478   5.971   0.280 -0.1966 -0.0431 -0.0250
18704TIP3    H177527   0.434   5.889   0.303  1.0670 -0.3437  1.5559
18704TIP3    H277528   0.507   5.959   0.190 -1.7742 -0.5190 -0.4926
18705TIP3   OH277529   1.540   2.425   2.215 -0.0497 -0.2735 -0.3203
18705TIP3    H177530   1.513   2.511   2.183  2.5203  0.1901 -1.4744
18705TIP3    H277531   1.516   2.365   2.145 -0.4707 -0.2976 -0.1630
18706TIP3   OH277532   4.378   3.504   2.507  0.2489 -0.2869 -0.0679
18706TIP3    H177533   4.449   3.454   2.546  0.2808  0.8700  1.4380
18706TIP3    H277534   4.300   3.479   2.557  0.0608  0.3050 -0.0480
18707TIP3   OH277535   0.698   6.298  13.437 -0.4292 -0.5176 -0.1615
18707TIP3    H177536   0.619   6.267  13.481  0.7845 -0.9153  1.8690
18707TIP3    H277537   0.770   6.268  13.493  1.0072  3.3114  0.3312
18708TIP3   OH277538   0.834   2.415  13.022  0.3188 -0.2047  0.0787
18708TIP3    H177539   0.906   2.418  13.085  0.2841  0.5090  0.0997
18708TIP3    H277540   0.755   2.417  13.076  0.2875  0.6923  0.0225
18709TIP3   OH277541   0.942   4.179   0.951 -0.2889 -0.3918  0.1614
18709TIP3    H177542   0.978   4.143   0.870  0.2522  0.4519  0.0075
18709TIP3    H277543   0.850   4.196   0.932 -0.2080 -0.3752 -0.2154
18710TIP3   OH277544   4.509   4.912  15.487  0.1643  0.6555  0.0892
18710TIP3    H177545   4.483   4.884  15.400  0.9002  3.8970 -1.3252
18710TIP3    H277546   4.427   4.918  15.536 -0.2949 -0.8183 -0.4269
18711TIP3   OH277547   4.194   2.081  13.611  0.5319 -0.0384  0.6103
18711TIP3    H177548   4.124   2.045  13.556  0.7831 -1.5492  1.2363
18711TIP3    H277549   4.151   2.099  13.695  0.7235 -0.2217  0.7474
18712TIP3   OH277550   0.028   5.693   4.132  0.1046  0.4733 -0.3840
18712TIP3    H177551   0.070   5.777   4.148  1.7297 -0.2044 -0.9185
18712TIP3    H277552  -0.018   5.705   4.049 -0.7310  1.1781  0.1486
18713TIP3   OH277553   5.745   1.140   4.786  0.3033  0.3672 -0.2359
18713TIP3    H177554   5.662   1.171   4.749 -2.0462  0.4850  4.4142
18713TIP3    H277555   5.739   1.045   4.785  0.6848  0.3410 -0.8997
18714TIP3   OH277556   0.658   4.172   4.965  0.2068 -0.8009 -0.0187
18714TIP3    H177557   0.616   4.125   4.894  1.4565 -0.2589 -1.1625
18714TIP3    H277558   0.587   4.197   5.023 -1.0611  0.1512 -1.8955
18715TIP3   OH277559   3.738   4.832  13.452  0.1133 -0.4203  0.3861
18715TIP3    H177560   3.765   4.877  13.373  0.8709  0.9879  1.3929
18715TIP3    H277561   3.761   4.740  13.437  0.6470 -0.1014 -0.8393
18716TIP3   OH277562   6.551   5.882  16.810  0.0021  0.4960 -0.6193
18716TIP3    H177563   6.510   5.948  16.753 -1.0076 -0.1705 -0.6815
18716TIP3    H277564   6.495   5.805  16.802 -0.7008  0.6560  1.9967
18717TIP3   OH277565   4.050   5.652   5.044 -0.5206 -0.3567 -0.1682
18717TIP3    H177566   4.081   5.569   5.082  0.5412  0.0182 -0.1663
18717TIP3    H277567   4.084   5.719   5.103  0.8265  0.2081 -1.5286
18718TIP3   OH277568   1.908   3.470   1.237  0.4484  0.4037 -0.1956
18718TIP3    H177569   1.899   3.565   1.230 -3.3125  0.1331 -1.5661
18718TIP3    H277570   1.830   3.442   1.286  0.5053 -2.0876 -1.3659
18719TIP3   OH277571   4.893   6.234   1.340  0.4855  0.1224  0.6591
18719TIP3    H177572   4.966   6.284   1.376  2.2603 -1.6436 -0.2755
18719TIP3    H277573   4.861   6.288   1.268  0.3155  1.2900  1.5834
18720TIP3   OH277574   4.081   0.413  16.794 -0.2632 -0.8333  0.3514
18720TIP3    H177575   4.046   0.452  16.713 -0.4762 -1.9595 -0.1217
18720TIP3    H277576   4.176   0.414  16.781 -0.1660  0.7408  0.9375
18721TIP3   OH277577   1.436   3.309   1.809 -0.1694 -0.2816  0.6013
18721TIP3    H177578   1.353   3.352   1.831 -0.4162 -0.6602  0.4066
18721TIP3    H277579   1.412   3.219   1.790 -0.0126  0.0879 -1.5381
18722TIP3   OH277580   2.062   6.033   0.885  0.0141  0.4065 -0.4107
18722TIP3    H177581   2.092   5.959   0.937  0.0626  1.5651  1.3225
18722TIP3    H277582   2.134   6.096   0.891  0.2789  0.3460 -2.4555
18723TIP3   OH277583   5.147   4.265  15.713 -0.5557  0.1208  0.0836
18723TIP3    H177584   5.106   4.302  15.792  1.7841 -0.2301  1.5692
18723TIP3    H277585   5.205   4.335  15.682  1.2343 -0.9369  0.8497
18724TIP3   OH277586   3.359   6.397   0.229  0.0285  0.3650 -0.0664
18724TIP3    H177587   3.399   6.310   0.222 -1.5423 -0.3566 -0.3180
18724TIP3    H277588   3.424   6.456   0.189  1.0834 -0.6880  0.0539
18725TIP3   OH277589   2.316   6.686  12.894 -0.5669 -0.6649 -0.7946
18725TIP3    H177590   2.404   6.649  12.903 -0.1363  0.5602  0.3156
18725TIP3    H277591   2.260   6.624  12.942 -0.1118 -0.7792 -0.3976
18726TIP3   OH277592   1.180   1.785   3.035 -0.0151 -0.1476  0.2152
18726TIP3    H177593   1.124   1.782   2.957 -0.0602 -1.1435  0.2687
18726TIP3    H277594   1.146   1.858   3.086 -0.2161  0.2920 -0.5302
18727TIP3   OH277595   4.811   1.309  11.350 -0.0889 -0.1204  0.1432
18727TIP3    H177596   4.842   1.293  11.439 -1.3234 -1.0381  0.4512
18727TIP3    H277597   4.831   1.401  11.333 -1.1055  0.4920  1.9296
18728TIP3   OH277598   1.764   0.845  15.587  0.6487  0.3893 -0.2313
18728TIP3    H177599   1.748   0.939  15.575  0.7739  0.4467  0.0420
18728TIP3    H277600   1.835   0.825  15.526  1.3621  0.7014  0.4827
18729TIP3   OH277601   2.228   4.757   2.888 -0.5558  0.0252  0.4300
18729TIP3    H177602   2.219   4.678   2.835 -1.8775 -0.3105  1.1136
18729TIP3    H277603   2.154   4.812   2.863  1.1094  1.7558 -1.0895
18730TIP3   OH277604   6.734   4.277   0.217  0.0141 -0.0440 -0.3641
18730TIP3    H177605   6.683   4.358   0.222  1.3298  0.7454  1.4602
18730TIP3    H277606   6.683   4.213   0.267  0.3811  0.4851  0.6903
18731TIP3   OH277607   1.808   2.702  14.448  0.2121  0.0284  0.5866
18731TIP3    H177608   1.813   2.791  14.483  0.0801  0.2076  0.1587
18731TIP3    H277609   1.887   2.659  14.480  0.6452  0.5214  0.2004
18732TIP3   OH277610   5.715   5.003   4.743 -0.0498  0.0023 -0.4936
18732TIP3    H177611   5.682   4.990   4.832 -0.0501  0.0685 -0.4834
18732TIP3    H277612   5.670   4.937   4.690  0.4554 -0.4873 -0.3233
18733TIP3   OH277613   1.595   3.458   4.267  0.1026 -0.2117  0.3251
18733TIP3    H177614   1.674   3.452   4.214 -1.0070  0.1332 -1.4563
18733TIP3    H277615   1.544   3.380   4.243  1.1170 -2.1535  3.7263
18734TIP3   OH277616   0.941   4.403   5.950 -0.4415 -0.0981 -0.2272
18734TIP3    H177617   0.896   4.455   6.017  0.8429 -0.0381  0.6024
18734TIP3    H277618   1.029   4.390   5.984  0.1478 -0.3311 -1.7706
18735TIP3   OH277619   1.629   4.164  11.664  0.4241 -0.0264  0.8573
18735TIP3    H177620   1.534   4.159  11.674  0.2720  0.9821  0.0585
18735TIP3    H277621   1.658   4.213  11.741 -0.2993  4.0577 -1.1583
18736TIP3   OH277622   6.725   3.961  12.307  0.2732 -0.0009  0.1664
18736TIP3    H177623   6.787   3.896  12.274 -0.1814  0.6629 -2.1400
18736TIP3    H277624   6.650   3.910  12.337  0.6839 -0.6364  0.1267
18737TIP3   OH277625   4.371   1.546   0.179  0.4499  0.1269 -0.3190
18737TIP3    H177626   4.320   1.502   0.111  1.2095 -0.6964 -0.3792
18737TIP3    H277627   4.353   1.639   0.166 -1.1969 -0.1461 -0.1902
18738TIP3   OH277628   2.540   3.783   0.536 -0.2112  0.4557  0.1190
18738TIP3    H177629   2.579   3.726   0.470 -1.1320  0.3696 -0.3572
18738TIP3    H277630   2.456   3.744   0.556 -0.4897  1.1803  0.4137
18739TIP3   OH277631   3.526   3.606   1.545  0.6442 -0.4493 -0.3512
18739TIP3    H177632   3.620   3.616   1.560  0.7247 -0.3378 -0.9094
18739TIP3    H277633   3.518   3.596   1.450  0.0970 -0.5141 -0.2999
18740TIP3   OH277634   2.342   6.621  14.635 -0.6407 -0.5078  0.2160
18740TIP3    H177635   2.290   6.592  14.560  0.3694 -1.8508  0.0005
18740TIP3    H277636   2.336   6.716  14.633 -2.1437 -0.5931 -0.4663
18741TIP3   OH277637   0.838   3.389  11.213  0.6886 -0.0861  0.2446
18741TIP3    H177638   0.813   3.337  11.136 -0.9933 -0.7217  1.1649
18741TIP3    H277639   0.918   3.347  11.245  1.6049  0.3974 -1.3318
18742TIP3   OH277640   1.205   2.531   6.272  0.6331 -0.0084  0.2107
18742TIP3    H177641   1.240   2.481   6.198 -0.0099  0.5863 -0.5080
18742TIP3    H277642   1.257   2.611   6.273  0.9279 -0.2021  0.6793
18743TIP3   OH277643   0.633   4.561  13.394  0.5169 -0.1319  0.1978
18743TIP3    H177644   0.660   4.653  13.395 -0.8435  0.2940  0.1266
18743TIP3    H277645   0.666   4.526  13.477 -0.2847  0.8481  0.9634
18744TIP3   OH277646   1.423   6.269  12.748  0.0036  0.3195 -0.6878
18744TIP3    H177647   1.342   6.320  12.748 -0.0064  0.3028 -0.8365
18744TIP3    H277648   1.491   6.330  12.718  0.3121  0.7566  0.8103
18745TIP3   OH277649   0.172   1.950  14.136  0.2847  0.2619  0.2101
18745TIP3    H177650   0.212   1.870  14.103 -0.8484 -0.4332  0.4805
18745TIP3    H277651   0.078   1.934  14.132  0.0693  0.5951  2.6169
18746TIP3   OH277652   3.507   3.812  12.930 -0.1876 -0.1208 -0.3557
18746TIP3    H177653   3.477   3.788  13.017  0.0441  0.6533 -0.0482
18746TIP3    H277654   3.596   3.779  12.925 -1.2934 -3.2192 -1.6041
18747TIP3   OH277655   2.261   4.745   0.350  0.2012 -0.4709  0.0910
18747TIP3    H177656   2.217   4.661   0.364  0.1439 -1.0222 -2.8378
18747TIP3    H277657   2.204   4.793   0.290  0.8546  1.1994  0.7222
18748TIP3   OH277658   1.941   0.391   3.507 -0.3158  0.7292 -0.2564
18748TIP3    H177659   1.961   0.454   3.577 -0.3084  1.1944 -0.6660
18748TIP3    H277660   2.023   0.383   3.457  0.4326 -1.5116  1.2270
18749TIP3   OH277661   5.693   4.753   0.782 -0.0771  0.2151  0.3281
18749TIP3    H177662   5.733   4.831   0.821  1.3266 -0.2215 -0.1710
18749TIP3    H277663   5.767   4.694   0.766 -0.9700 -0.7412 -0.3915
18750TIP3   OH277664   5.991   4.454  12.509  0.2935 -0.2890  0.4181
18750TIP3    H177665   6.006   4.372  12.556  0.8395 -0.3262  0.1759
18750TIP3    H277666   5.963   4.427  12.422  0.0682 -0.2162  0.4669
18751TIP3   OH277667   3.299   5.478   3.850 -0.3077  1.0797 -0.4027
18751TIP3    H177668   3.239   5.494   3.777 -0.0039 -1.1342 -1.2205
18751TIP3    H277669   3.385   5.501   3.815 -0.3781  1.9868 -0.0163
18752TIP3   OH277670   5.382   2.476   3.762  0.2255  0.1203 -0.2036
18752TIP3    H177671   5.403   2.511   3.849 -2.1990 -0.7401  0.7922
18752TIP3    H277672   5.450   2.410   3.747  0.0912 -0.4931  1.5545
18753TIP3   OH277673   1.768   1.380   1.045 -0.2602  0.1589 -0.2020
18753TIP3    H177674   1.775   1.415   1.134  1.4906 -0.2753 -0.1242
18753TIP3    H277675   1.695   1.428   1.006 -0.3061  1.2082  1.0816
18754TIP3   OH277676   5.367   2.623   2.560  0.2035 -0.1095 -0.0277
18754TIP3    H177677   5.398   2.543   2.603  0.5764  0.3865  0.6528
18754TIP3    H277678   5.442   2.682   2.563 -0.8349  1.1910  1.8051
18755TIP3   OH277679   2.058   2.050   2.881 -0.1725 -0.6170  0.3350
18755TIP3    H177680   1.968   2.017   2.887 -1.0245  1.1600 -1.7305
18755TIP3    H277681   2.058   2.130   2.933  0.1685 -0.5358  0.2126
18756TIP3   OH277682   4.794   3.203  13.596  0.0854 -0.2410 -0.2111
18756TIP3    H177683   4.820   3.292  13.573 -2.5057  0.7030  0.1764
18756TIP3    H277684   4.859   3.147  13.553  0.8471  1.7591 -1.8242
18757TIP3   OH277685   3.246   6.658  15.898  0.0125  0.3142  0.3355
18757TIP3    H177686   3.185   6.606  15.950 -1.6273  0.4866 -1.3288
18757TIP3    H277687   3.301   6.701  15.963 -1.7608  0.3043  1.9443
18758TIP3   OH277688   2.307   1.300  16.120  0.5911  0.5528 -0.3880
18758TIP3    H177689   2.353   1.229  16.076  3.8376  1.5007  1.1913
18758TIP3    H277690   2.316   1.279  16.213 -0.1369  2.0487  0.0403
18759TIP3   OH277691   4.288   3.387  15.914  0.2131  0.2826 -0.4012
18759TIP3    H177692   4.293   3.439  15.834  0.9873 -1.4540 -1.5390
18759TIP3    H277693   4.222   3.320  15.895  0.3724 -0.1179  0.4187
18760TIP3   OH277694   0.817   1.687   2.384 -0.2268 -0.1260 -0.7300
18760TIP3    H177695   0.880   1.711   2.452  0.9579 -0.2019 -1.7537
18760TIP3    H277696   0.732   1.692   2.427  0.4384  0.3971  0.5906
18761TIP3   OH277697   2.522   4.633  11.028 -0.4175 -0.1542  0.1870
18761TIP3    H177698   2.470   4.626  11.108  0.4184 -0.8991  0.6800
18761TIP3    H277699   2.496   4.559  10.975 -2.3882  1.3821 -1.1276
18762TIP3   OH277700   3.250   1.784   3.410  0.7374  0.1374  0.6597
18762TIP3    H177701   3.167   1.829   3.422 -0.7613 -2.3787  0.4651
18762TIP3    H277702   3.291   1.785   3.497 -0.1873  0.1790  1.1025
18763TIP3   OH277703   3.992   6.565   1.853 -0.8852 -0.5021  0.1265
18763TIP3    H177704   4.045   6.625   1.905 -1.2597 -0.9422  1.0358
18763TIP3    H277705   3.963   6.617   1.779 -0.4653  0.1846  0.4364
18764TIP3   OH277706   6.109   5.331   5.389 -0.0200 -0.0627  0.1018
18764TIP3    H177707   6.141   5.261   5.331 -0.6397  0.4017 -0.8286
18764TIP3    H277708   6.065   5.285   5.460 -2.1059 -0.6422 -1.4681
18765TIP3   OH277709   6.104   6.034  16.150 -0.0103  0.4801  0.2037
18765TIP3    H177710   6.140   6.057  16.065  0.4364 -0.2735  0.1866
18765TIP3    H277711   6.025   6.089  16.158  1.5400  2.7805  0.6139
18766TIP3   OH277712   3.343   4.695  12.458  0.5469  0.3560 -0.3652
18766TIP3    H177713   3.263   4.663  12.417 -0.4008  1.5225  0.4986
18766TIP3    H277714   3.414   4.652  12.410 -0.5896 -0.6233 -1.2108
18767TIP3   OH277715   3.416   0.242   0.112 -0.1899  0.4751  0.0833
18767TIP3    H177716   3.430   0.240   0.207  0.7411  2.6599  0.0508
18767TIP3    H277717   3.373   0.326   0.096 -1.9641 -0.6266 -1.2784
18768TIP3   OH277718   1.123   0.196   1.029 -0.6481  0.2731 -0.3180
18768TIP3    H177719   1.154   0.106   1.019 -0.5668 -0.2843  3.4144
18768TIP3    H277720   1.104   0.225   0.940 -2.9454 -4.1934 -1.5830
18769TIP3   OH277721   4.461   4.308  15.200  0.3059 -0.2836  0.2441
18769TIP3    H177722   4.451   4.221  15.162 -0.2912  0.1434 -0.6161
18769TIP3    H277723   4.555   4.314  15.221  0.7234 -0.4548 -1.4122
18770TIP3   OH277724   1.086   3.555  16.692  0.4781  0.2404  0.5426
18770TIP3    H177725   0.992   3.539  16.697  0.1647  1.5851 -0.5138
18770TIP3    H277726   1.097   3.609  16.614  2.0887  0.4223  0.8613
18771TIP3   OH277727   0.559   6.684  11.301 -0.2076 -0.8018 -0.0358
18771TIP3    H177728   0.525   6.598  11.327 -0.6205 -0.2827  1.1986
18771TIP3    H277729   0.481   6.733  11.276 -0.0147 -0.6373 -0.3144
18772TIP3   OH277730   3.094   5.519   5.796 -0.3320  1.0229 -0.1016
18772TIP3    H177731   3.078   5.551   5.885  0.4904  0.3302  0.3065
18772TIP3    H277732   3.185   5.542   5.779  0.1509 -0.7037  0.0435
18773TIP3   OH277733   6.529   0.434   3.454 -0.0966  0.2083  0.3878
18773TIP3    H177734   6.619   0.463   3.441 -0.9035  1.9489 -2.0646
18773TIP3    H277735   6.489   0.502   3.507 -1.1967  2.2658 -2.8259
18774TIP3   OH277736   5.247   5.744   0.287 -0.3163 -0.2040 -0.6697
18774TIP3    H177737   5.220   5.671   0.230  1.0005 -1.4884  0.2802
18774TIP3    H277738   5.341   5.732   0.297 -0.3680  0.5743  0.9828
18775TIP3   OH277739   0.784   2.789  15.365  0.2862 -0.2627 -0.3278
18775TIP3    H177740   0.849   2.729  15.400  0.8448  0.5886  0.1166
18775TIP3    H277741   0.719   2.798  15.435 -0.0075 -0.6508 -0.5460
18776TIP3   OH277742   0.005   5.134   2.019 -0.5427 -0.8442  0.0040
18776TIP3    H177743  -0.002   5.053   2.069  0.0814 -0.5610  0.5595
18776TIP3    H277744   0.026   5.201   2.084 -1.9109 -0.0702 -0.3215
18777TIP3   OH277745   5.057   6.541  13.997  0.2225 -0.1239  0.1794
18777TIP3    H177746   5.024   6.460  14.036  0.5523  0.1042  0.9387
18777TIP3    H277747   4.993   6.608  14.022  1.6061  0.4969  2.3859
18778TIP3   OH277748   6.318   4.215  12.366 -0.0377 -0.2532  0.3219
18778TIP3    H177749   6.339   4.266  12.288 -0.4120 -2.4576 -1.3157
18778TIP3    H277750   6.395   4.225  12.423  0.1919  1.4789 -0.2311
18779TIP3   OH277751   5.757   4.183  11.526  0.2526  0.1202 -0.6577
18779TIP3    H177752   5.709   4.136  11.595  1.3553 -2.4041 -1.4633
18779TIP3    H277753   5.736   4.275  11.541 -0.2757 -0.3747  2.4743
18780TIP3   OH277754   0.908   3.019  15.216 -0.3137 -0.9002 -0.4990
18780TIP3    H177755   0.944   2.982  15.297  0.5319  0.8048 -0.0545
18780TIP3    H277756   0.814   3.023  15.233 -0.0341  0.7229  1.0194
18781TIP3   OH277757   6.301   5.977   6.293 -0.2958 -0.1686  0.2933
18781TIP3    H177758   6.241   5.934   6.354 -1.4475  0.1851 -0.5631
18781TIP3    H277759   6.378   5.997   6.346 -1.0446 -0.3658  1.4951
18782TIP3   OH277760   5.033   6.174  16.083 -0.0832 -0.8828  0.2230
18782TIP3    H177761   5.090   6.250  16.076 -2.3223  1.0329  1.4910
18782TIP3    H277762   5.006   6.155  15.993  0.5917 -0.2852 -0.1138
18783TIP3   OH277763   3.251   2.233   1.005 -0.7358  0.0981 -0.4680
18783TIP3    H177764   3.195   2.305   1.033 -1.6844 -1.1515  1.0856
18783TIP3    H277765   3.250   2.237   0.909 -2.5173  0.8680 -0.4581
18784TIP3   OH277766   2.443   0.138   9.997 -0.1270  0.3639  0.6656
18784TIP3    H177767   2.538   0.131   9.984 -0.0870 -1.6666  1.6737
18784TIP3    H277768   2.434   0.191  10.077  0.0444  2.0241 -0.3597
18785TIP3   OH277769   4.895   0.009   1.522 -0.5330 -0.1933  0.2916
18785TIP3    H177770   4.921  -0.015   1.611  1.7139 -0.4865 -0.3713
18785TIP3    H277771   4.846  -0.066   1.490 -2.0821  0.2437  1.5154
18786TIP3   OH277772   0.852   3.462  14.805  0.1095 -0.3811 -0.2203
18786TIP3    H177773   0.813   3.382  14.771  0.3700  0.3402 -2.3445
18786TIP3    H277774   0.784   3.501  14.860  0.2531 -2.4025  1.5238
18787TIP3   OH277775   6.527   4.747   0.922  0.4234 -0.4038  0.6386
18787TIP3    H177776   6.435   4.723   0.935 -0.1592  1.9689  1.5310
18787TIP3    H277777   6.560   4.763   1.010  2.0646 -2.2124  0.4200
18788TIP3   OH277778   0.994   6.144  13.343 -0.5845 -0.3346  0.0452
18788TIP3    H177779   0.908   6.182  13.329  0.1402  1.1248 -0.6132
18788TIP3    H277780   1.044   6.167  13.265  0.1713 -1.8884  0.0329
18789TIP3   OH277781   3.880   3.152  15.274  0.2581 -0.4471 -0.0906
18789TIP3    H177782   3.853   3.133  15.364  0.7580 -1.1917 -0.0844
18789TIP3    H277783   3.798   3.152  15.225  0.0208 -0.4529  0.2960
18790TIP3   OH277784   0.784   1.833   5.969  0.3991  0.1128  0.3333
18790TIP3    H177785   0.777   1.887   6.049  1.4164 -0.1818  0.6367
18790TIP3    H277786   0.826   1.891   5.905  1.2952 -0.2244  0.5942
18791TIP3   OH277787   4.569   0.697   0.301 -0.2867  0.6706 -0.3346
18791TIP3    H177788   4.653   0.680   0.344  0.1144  1.5566 -0.7448
18791TIP3    H277789   4.506   0.644   0.350  0.2897  1.0406  0.8441
18792TIP3   OH277790   2.824   2.469  10.264 -0.2225 -0.6435 -0.1896
18792TIP3    H177791   2.895   2.423  10.218  1.0834  1.2761 -0.2160
18792TIP3    H277792   2.838   2.561  10.243 -1.8280 -0.0701  1.0762
18793TIP3   OH277793   0.513   0.752  11.208  0.2644 -0.3638  0.0218
18793TIP3    H177794   0.597   0.784  11.240 -0.7806  1.6206  0.9856
18793TIP3    H277795   0.534   0.676  11.153  2.6358  0.0270  0.3295
18794TIP3   OH277796   1.476   5.338  16.596 -0.0545  0.5443  0.3567
18794TIP3    H177797   1.517   5.411  16.642 -2.6596  2.4725 -0.1269
18794TIP3    H277798   1.534   5.320  16.522  0.8879  1.8544  0.7501
18795TIP3   OH277799   1.106   6.442  16.129  0.3872 -0.1574  0.1115
18795TIP3    H177800   1.043   6.510  16.154  0.1216 -0.4331  0.1938
18795TIP3    H277801   1.155   6.424  16.209  2.4689  2.0228 -0.5674
18796TIP3   OH277802   3.606   2.438  11.857 -0.3224  0.0312  0.0303
18796TIP3    H177803   3.568   2.525  11.856  0.8928  0.5963  0.6403
18796TIP3    H277804   3.540   2.382  11.815 -1.0954  1.2350 -0.4060
18797TIP3   OH277805   3.779   1.417  11.135 -0.1566  0.2150 -0.0480
18797TIP3    H177806   3.723   1.352  11.094  2.1612 -0.0176 -3.1944
18797TIP3    H277807   3.856   1.368  11.163  0.2072  1.1299  0.6373
18798TIP3   OH277808   3.175   0.975  15.946  0.1069 -0.0591 -0.3495
18798TIP3    H177809   3.123   0.898  15.924  0.1230  0.1276 -1.0917
18798TIP3    H277810   3.180   0.975  16.041  0.1385 -0.9915 -0.3454
18799TIP3   OH277811   6.671   4.801  11.605 -0.3582 -0.6574  0.1937
18799TIP3    H177812   6.591   4.808  11.553 -0.1352 -2.5226 -0.4740
18799TIP3    H277813   6.737   4.771  11.543  0.4677 -0.7351  1.0872
18800TIP3   OH277814   5.049   3.034   2.034  0.3384  0.5647 -0.5701
18800TIP3    H177815   5.118   2.980   2.072  1.5841  3.4375  1.6207
18800TIP3    H277816   4.970   3.007   2.081  0.6177 -0.3663 -0.6152
18801TIP3   OH277817   3.478   6.406   1.226  0.4272 -0.1786 -0.1725
18801TIP3    H177818   3.481   6.430   1.134  1.4000  2.1526  0.3823
18801TIP3    H277819   3.442   6.483   1.270  1.7424 -0.4844  1.5765
18802TIP3   OH277820   1.145   2.679  16.176 -0.8252  0.0142 -0.1104
18802TIP3    H177821   1.188   2.760  16.146 -1.2831  0.5058  0.5320
18802TIP3    H277822   1.090   2.653  16.103 -2.4316  1.5602  0.4752
18803TIP3   OH277823   0.341   3.722  13.831  0.2388 -0.4578 -0.7786
18803TIP3    H177824   0.386   3.717  13.915  0.3251 -1.8433 -0.8904
18803TIP3    H277825   0.278   3.650  13.833 -1.1593  0.7104 -1.1152
18804TIP3   OH277826   2.879   1.527  15.382 -0.0642  0.0909  0.2369
18804TIP3    H177827   2.869   1.609  15.333  1.9390  0.7402  0.8053
18804TIP3    H277828   2.902   1.556  15.470  0.6997 -1.0834  0.4327
18805TIP3   OH277829   5.252   6.203  12.445 -0.0627 -0.1066 -0.3821
18805TIP3    H177830   5.171   6.253  12.456  0.0803 -0.0474  0.4611
18805TIP3    H277831   5.239   6.153  12.365 -0.0734  1.5450 -1.4627
18806TIP3   OH277832   0.467   1.374  15.517 -0.0047 -0.0791 -0.5511
18806TIP3    H177833   0.475   1.360  15.611  0.7789 -2.2592 -0.8715
18806TIP3    H277834   0.373   1.379  15.501 -0.1549 -0.0929  0.3040
18807TIP3   OH277835   6.045   2.057   5.841  0.1492  0.1468 -0.0856
18807TIP3    H177836   6.013   2.082   5.927  1.8711  0.0757  0.6163
18807TIP3    H277837   5.997   2.113   5.780 -0.7734  0.5109  0.9445
18808TIP3   OH277838   1.855   5.326   4.750  0.2101 -0.0515 -0.1247
18808TIP3    H177839   1.894   5.300   4.667 -0.5504  0.0734 -0.5366
18808TIP3    H277840   1.831   5.242   4.791  0.1744 -0.0997 -0.2422
18809TIP3   OH277841   6.023   3.320   1.491  0.0107  0.1652 -0.0806
18809TIP3    H177842   6.021   3.266   1.570  0.1413 -3.1034 -2.1081
18809TIP3    H277843   5.944   3.374   1.497 -1.9333 -2.5387  0.7410
18810TIP3   OH277844   1.439   4.365   2.307  0.0876  0.0724 -0.3428
18810TIP3    H177845   1.416   4.381   2.216  0.3448  0.2761 -0.3722
18810TIP3    H277846   1.380   4.294   2.335  0.1178 -0.0996 -0.7120
18811TIP3   OH277847   0.040   6.548  12.063  0.0748  0.0860  0.1828
18811TIP3    H177848  -0.013   6.627  12.063  0.0995  0.1322  1.9482
18811TIP3    H277849   0.001   6.493  11.995  0.7771  2.0222 -1.9206
18812TIP3   OH277850   1.605   2.359  16.694  0.7777  0.2889  0.0033
18812TIP3    H177851   1.547   2.429  16.664 -1.6275 -0.8085  1.7409
18812TIP3    H277852   1.596   2.291  16.627 -1.0303 -0.3672  0.8444
18813TIP3   OH277853   5.981   4.191   4.832 -0.6983 -0.0992 -0.3037
18813TIP3    H177854   6.066   4.152   4.816 -0.3797 -0.5379  2.0892
18813TIP3    H277855   5.949   4.147   4.911 -1.8027  2.1241  0.5632
18814TIP3   OH277856   5.411   3.951  13.034  0.5306 -0.0158  0.0950
18814TIP3    H177857   5.418   3.912  13.121 -0.2056  0.6712  0.4774
18814TIP3    H277858   5.340   3.903  12.992  0.1004  0.4212  0.3087
18815TIP3   OH277859   0.881   0.123   3.665  0.5587  0.5553  0.3893
18815TIP3    H177860   0.844   0.034   3.662  0.0056  0.8187 -1.6548
18815TIP3    H277861   0.974   0.111   3.644  0.4665  0.4741  0.0290
18816TIP3   OH277862   2.943   4.757   2.304 -0.0526 -0.4901  0.6083
18816TIP3    H177863   2.873   4.778   2.366  0.6379  1.3450  0.8087
18816TIP3    H277864   3.012   4.820   2.323  0.6236 -0.5838 -1.3126
18817TIP3   OH277865   2.357   0.083  14.480  0.6715 -0.2267  0.4744
18817TIP3    H177866   2.269   0.119  14.481  0.5910 -0.4322  0.6688
18817TIP3    H277867   2.408   0.142  14.536  0.7574  0.1443  0.0116
18818TIP3   OH277868   0.648   5.709  16.258  0.3661 -0.2102  0.0105
18818TIP3    H177869   0.557   5.739  16.247  0.1585 -0.3948  1.1012
18818TIP3    H277870   0.689   5.776  16.313  1.2061  0.4195 -1.3492
18819TIP3   OH277871   4.701   0.275  13.707 -0.1207  0.2787  0.3755
18819TIP3    H177872   4.710   0.253  13.800 -1.3953  1.3609  0.7891
18819TIP3    H277873   4.632   0.341  13.705  0.0780  0.4714 -1.3268
18820TIP3   OH277874   2.713   0.718   0.245 -0.6535  0.4347 -0.3124
18820TIP3    H177875   2.755   0.649   0.194  1.2828  2.5032 -1.7279
18820TIP3    H277876   2.633   0.678   0.278  0.5758 -2.5866 -0.6472
18821TIP3   OH277877   5.665   2.469  13.012  0.4962  0.1553 -0.0016
18821TIP3    H177878   5.649   2.509  13.098  0.6495  0.6723 -0.2106
18821TIP3    H277879   5.587   2.491  12.961  0.2006 -0.5386  0.1389
18822TIP3   OH277880   5.490   3.358  16.763 -0.0873 -0.0140 -0.1700
18822TIP3    H177881   5.472   3.280  16.814  0.7829 -0.4652 -0.5218
18822TIP3    H277882   5.439   3.427  16.804 -1.5296 -0.9321 -0.3559
18823TIP3   OH277883   2.711   3.470  12.192  0.2334  0.4108 -0.1447
18823TIP3    H177884   2.655   3.538  12.230  0.8158  2.4097 -2.5939
18823TIP3    H277885   2.686   3.390  12.239 -2.4328  1.7754  1.0208
18824TIP3   OH277886   6.454   6.745   0.215 -0.5173  0.1163  0.4358
18824TIP3    H177887   6.461   6.729   0.121 -1.8675 -0.7669  0.4509
18824TIP3    H277888   6.368   6.710   0.239 -0.6168  1.1925  1.8286
18825TIP3   OH277889   6.547   1.000  16.521  0.0621  0.2979  0.8570
18825TIP3    H177890   6.615   1.062  16.549  0.1110 -0.0568  1.5431
18825TIP3    H277891   6.596   0.928  16.481  0.1105 -0.0288  1.4884
18826TIP3   OH277892   2.472   0.515  15.740  0.1847 -0.3653 -0.8256
18826TIP3    H177893   2.393   0.463  15.726 -1.1141  0.7033  1.8735
18826TIP3    H277894   2.460   0.591  15.684  0.3457 -1.1735 -2.0031
18827TIP3   OH277895   2.582   1.853  11.323 -0.0580  0.3013  0.7055
18827TIP3    H177896   2.541   1.920  11.268  0.4497  1.6182  1.8727
18827TIP3    H277897   2.654   1.898  11.366  1.4200 -1.4744  0.1917
18828TIP3   OH277898   0.559   4.571  14.197  0.3335 -0.4857  0.1517
18828TIP3    H177899   0.543   4.594  14.289 -2.5368  0.8222 -0.5589
18828TIP3    H277900   0.505   4.493  14.182 -0.4533  0.2219 -0.7907
18829TIP3   OH277901   4.212   1.945  16.063  0.0919  0.1952 -0.2989
18829TIP3    H177902   4.156   1.995  16.004  0.4617 -0.1518 -0.9632
18829TIP3    H277903   4.188   1.853  16.047  0.4965  0.0726 -0.2308
18830TIP3   OH277904   4.235   0.048  13.968 -0.0429  0.7699 -0.2080
18830TIP3    H177905   4.179   0.020  13.894  0.0602  1.6093 -0.6097
18830TIP3    H277906   4.206  -0.007  14.041 -1.3605  1.1324 -0.4237
18831TIP3   OH277907   5.365   4.150   4.599 -0.2247  0.2872 -0.0263
18831TIP3    H177908   5.416   4.159   4.519 -0.7295  0.7613 -0.2986
18831TIP3    H277909   5.343   4.057   4.603  1.5037 -0.1500  0.6288
18832TIP3   OH277910   4.987   6.689  11.548 -0.2679  0.6998  0.3884
18832TIP3    H177911   4.910   6.665  11.497  0.4528 -1.4223  0.1963
18832TIP3    H277912   5.003   6.613  11.605  0.0965  2.2042  2.4100
18833TIP3   OH277913   2.277   6.115   0.259  0.1179 -0.0741 -0.3979
18833TIP3    H177914   2.359   6.126   0.308 -0.4628 -1.4533  0.9340
18833TIP3    H277915   2.237   6.202   0.261  0.2262 -0.0220  1.3903
18834TIP3   OH277916   5.434   4.913  15.083 -0.7784  0.3010  0.1321
18834TIP3    H177917   5.472   4.846  15.027 -1.1766  0.9127 -0.9084
18834TIP3    H277918   5.340   4.905  15.069 -0.9239  0.0371  1.2245
18835TIP3   OH277919   4.771   4.592   5.074  0.5719  0.3719 -0.1387
18835TIP3    H177920   4.840   4.604   5.140  0.7465  0.9378 -0.4103
18835TIP3    H277921   4.719   4.673   5.080  0.9170  0.6757 -1.0649
18836TIP3   OH277922   5.802   2.385   1.523 -0.1413  0.3571 -0.2309
18836TIP3    H177923   5.757   2.305   1.495 -0.7095  0.6041 -0.0246
18836TIP3    H277924   5.740   2.455   1.506 -0.1893  0.6071  0.8906
18837TIP3   OH277925   0.336   4.177  16.041  0.3981  0.0123 -0.0724
18837TIP3    H177926   0.358   4.110  16.105  0.5705  0.3255  0.2020
18837TIP3    H277927   0.339   4.259  16.090  3.8446  0.6786 -1.1691
18838TIP3   OH277928   2.808   4.493   4.108 -0.4940 -0.3963 -0.0682
18838TIP3    H177929   2.760   4.433   4.164  1.7080 -1.8323  0.3903
18838TIP3    H277930   2.770   4.479   4.021 -1.9658 -0.2652  0.5093
18839TIP3   OH277931   2.105   5.163   0.609  0.0856 -0.6380 -0.1146
18839TIP3    H177932   2.151   5.232   0.561  0.4857  0.3299  1.5784
18839TIP3    H277933   2.012   5.183   0.595  0.1973 -0.0019  0.0208
18840TIP3   OH277934   6.144   0.834  15.482 -0.0363  0.1025  0.2968
18840TIP3    H177935   6.157   0.741  15.504  1.1195  0.3091  0.5633
18840TIP3    H277936   6.114   0.832  15.391 -2.2997 -0.6265  0.9915
18841TIP3   OH277937   0.663   1.089   3.882 -0.0165 -0.2170  0.6418
18841TIP3    H177938   0.700   1.119   3.799 -0.7953  0.1002  0.4025
18841TIP3    H277939   0.704   1.004   3.897 -0.8174 -0.8689 -0.7107
18842TIP3   OH277940   1.046   1.841  14.391  0.2197  0.0652 -0.4533
18842TIP3    H177941   1.115   1.776  14.379 -0.9943 -1.7927  1.8093
18842TIP3    H277942   0.966   1.795  14.367 -0.8603  0.0403  2.7225
18843TIP3   OH277943   3.645   5.345   1.915  0.1510 -0.2989 -0.1671
18843TIP3    H177944   3.682   5.328   1.829 -0.5569  2.1062 -1.0194
18843TIP3    H277945   3.715   5.387   1.964  0.0074 -0.0641 -0.1628
18844TIP3   OH277946   5.807   4.524   0.558  0.4255 -0.1916  0.5492
18844TIP3    H177947   5.869   4.526   0.485  0.7650  0.4644  0.8519
18844TIP3    H277948   5.835   4.595   0.616  1.5755 -2.1487  2.5322
18845TIP3   OH277949   3.386   0.757   3.649 -0.7068 -0.2783 -0.6324
18845TIP3    H177950   3.328   0.794   3.583 -0.0158  0.1158 -1.0355
18845TIP3    H277951   3.420   0.833   3.696  0.3760 -0.4025 -1.1732
18846TIP3   OH277952   1.831   3.261   4.974  0.3668  0.2708 -0.2632
18846TIP3    H177953   1.922   3.291   4.967  0.4510  0.2361  0.6276
18846TIP3    H277954   1.814   3.257   5.068  0.1739 -1.9181 -0.3441
18847TIP3   OH277955   2.440   4.052   2.743 -0.1289 -0.1329  0.2768
18847TIP3    H177956   2.479   4.091   2.821  0.8095 -1.4293  0.5013
18847TIP3    H277957   2.478   3.964   2.739 -0.1093 -0.0816 -1.6798
18848TIP3   OH277958   5.462   6.231  12.100 -0.2427 -0.5202 -0.3090
18848TIP3    H177959   5.404   6.298  12.064  0.3175 -0.8191 -1.8102
18848TIP3    H277960   5.412   6.193  12.172 -0.8817  0.9674  0.0790
18849TIP3   OH277961   1.680   6.209   0.472 -0.0073 -0.1717 -0.3694
18849TIP3    H177962   1.698   6.272   0.541  0.3527  0.7407 -1.2697
18849TIP3    H277963   1.622   6.145   0.513  1.5205 -0.6045  1.2450
18850TIP3   OH277964   6.054   4.292  11.132 -0.7141 -0.5620 -0.0593
18850TIP3    H177965   5.987   4.272  11.196 -1.0980  1.4782  0.2541
18850TIP3    H277966   6.126   4.330  11.182 -0.8695  0.7177 -0.7436
18851TIP3   OH277967   1.100   2.469  10.849  0.0995 -0.4448 -0.7526
18851TIP3    H177968   1.127   2.471  10.941 -0.0620  2.0467 -0.7019
18851TIP3    H277969   1.181   2.453  10.801  0.1880 -1.7603 -0.2178
18852TIP3   OH277970   4.217   1.714  12.236  0.0450 -0.2728  0.0564
18852TIP3    H177971   4.310   1.689  12.235  0.6618  1.6153  2.3879
18852TIP3    H277972   4.203   1.756  12.151  1.2132 -0.8610 -0.4600
18853TIP3   OH277973   2.242   2.768   1.461 -0.1971 -0.4237  0.1230
18853TIP3    H177974   2.308   2.783   1.394  1.7643 -2.8000  1.3555
18853TIP3    H277975   2.184   2.844   1.455  1.8000  1.0727 -1.9900
18854TIP3   OH277976   1.437   4.796  15.836 -0.1776  0.5722  0.0916
18854TIP3    H177977   1.345   4.774  15.823 -0.5565  2.2565 -0.2873
18854TIP3    H277978   1.484   4.714  15.822 -1.6598 -0.4695  0.9635
18855TIP3   OH277979   5.950   5.013   4.510 -0.3933  0.3778  0.9469
18855TIP3    H177980   5.925   4.932   4.554 -2.3720  0.5436  0.2362
18855TIP3    H277981   5.916   5.082   4.565  1.5964  0.7977  1.7322
18856TIP3   OH277982   4.107   5.289  13.036 -0.2565  0.3735 -0.5681
18856TIP3    H177983   4.020   5.266  13.003 -0.0034 -0.2475 -0.8179
18856TIP3    H277984   4.128   5.371  12.992 -0.5839  0.3570 -0.7563
18857TIP3   OH277985   3.380   2.244   6.306 -0.1219 -0.0872  0.2849
18857TIP3    H177986   3.387   2.322   6.361  0.4383  1.6428 -2.0797
18857TIP3    H277987   3.291   2.211   6.323 -0.9869  2.0248  0.2353
18858TIP3   OH277988   0.082   2.956   3.539 -0.0137  0.0057 -0.1616
18858TIP3    H177989   0.099   3.050   3.549 -0.4332  0.1283 -0.5650
18858TIP3    H277990   0.025   2.950   3.463 -0.4606 -0.5336  0.2079
18859TIP3   OH277991   0.868   2.123   4.363  0.4836 -0.1452 -0.0975
18859TIP3    H177992   0.887   2.180   4.437 -0.1351  0.9742 -0.7734
18859TIP3    H277993   0.821   2.179   4.301  1.7897 -0.8104 -1.7411
18860TIP3   OH277994   0.898   2.428   2.804 -0.1038  0.4427  0.3914
18860TIP3    H177995   0.817   2.384   2.833  0.9532 -0.7726  1.6236
18860TIP3    H277996   0.897   2.418   2.709 -1.0743 -0.1723  0.4488
18861TIP3   OH277997   5.994   4.035   4.427  0.7324  0.4453 -0.1560
18861TIP3    H177998   6.081   4.011   4.461 -0.4500 -0.3732  2.5149
18861TIP3    H277999   5.953   4.084   4.498 -1.1306  0.5409 -1.2389
18862TIP3   OH278000   5.569   0.982  13.862 -0.5385 -0.4435 -0.0171
18862TIP3    H178001   5.643   0.959  13.918  0.1237 -1.3313 -1.2053
18862TIP3    H278002   5.570   0.916  13.792 -1.2183  0.6987 -1.1603
18863TIP3   OH278003   0.101   2.060   3.946  0.0865  0.2440 -0.2274
18863TIP3    H178004   0.148   2.092   3.869 -0.3179 -0.2274 -0.6759
18863TIP3    H278005   0.099   1.965   3.937 -1.6363  0.2758 -0.6570
18864TIP3   OH278006   3.144   5.988   2.212  0.8224 -0.1554  0.0162
18864TIP3    H178007   3.184   5.902   2.224  2.5547  0.7080  0.7003
18864TIP3    H278008   3.208   6.050   2.247  0.0578  1.5018 -1.3618
18865TIP3   OH278009   3.930   4.044  14.225  0.5859 -0.4810 -0.6535
18865TIP3    H178010   3.891   4.036  14.312  1.3358  1.1788 -0.1269
18865TIP3    H278011   3.924   3.956  14.188 -2.0484 -0.6934  0.0514
18866TIP3   OH278012   4.186   1.683  16.713 -1.0940  0.6041  1.1085
18866TIP3    H178013   4.247   1.613  16.734  0.7161  1.4999 -0.8448
18866TIP3    H278014   4.167   1.724  16.798  0.5378 -0.0750  1.8477
18867TIP3   OH278015   6.084   2.789   3.002 -0.4879 -0.1000 -0.4192
18867TIP3    H178016   6.068   2.829   3.088 -0.3679  0.8900 -0.8447
18867TIP3    H278017   6.032   2.840   2.941 -0.6679 -0.8758 -0.9294
18868TIP3   OH278018   1.799   6.442  10.425  0.0049 -0.0138  0.6223
18868TIP3    H178019   1.774   6.353  10.401 -0.8269  0.2483  0.4697
18868TIP3    H278020   1.814   6.439  10.519  1.0088 -0.5419  0.4512
18869TIP3   OH278021   0.384   3.323   5.141 -0.1464  0.3046 -0.1515
18869TIP3    H178022   0.397   3.409   5.181 -0.8067  0.1748  0.3596
18869TIP3    H278023   0.380   3.262   5.216 -3.5137  0.3048 -0.1740
18870TIP3   OH278024   3.657   5.448   0.529  0.5011 -0.5580 -0.5296
18870TIP3    H178025   3.591   5.398   0.577  0.1508 -0.9881 -1.4421
18870TIP3    H278026   3.610   5.488   0.456 -0.0268  3.8799  1.8362
18871TIP3   OH278027   1.018   1.700   5.361  0.0675  0.7375 -0.3517
18871TIP3    H178028   1.094   1.702   5.303  0.4121 -2.4394 -0.1826
18871TIP3    H278029   1.056   1.700   5.449 -0.2731  1.3723 -0.1947
18872TIP3   OH278030   0.602   1.255   1.758  0.0719  0.6106 -0.2089
18872TIP3    H178031   0.587   1.230   1.849 -0.9584  0.0210 -0.5244
18872TIP3    H278032   0.683   1.306   1.760  0.3299  0.1852  0.9601
18873TIP3   OH278033   3.512   0.652  14.997  0.1181  0.1400  0.0762
18873TIP3    H178034   3.581   0.636  14.932  0.0036  0.4007 -0.1090
18873TIP3    H278035   3.543   0.729  15.045  0.7239 -0.6667  1.0425
18874TIP3   OH278036   1.937   0.653  12.325  0.2059 -0.1873  0.2212
18874TIP3    H178037   1.957   0.572  12.372 -0.4727 -0.0845  0.7131
18874TIP3    H278038   1.933   0.627  12.233 -0.2328 -0.7604  0.3952
18875TIP3   OH278039   4.070   3.526  16.427 -0.0891  0.3544 -0.6269
18875TIP3    H178040   4.114   3.606  16.398  0.3481  0.3685  0.0316
18875TIP3    H278041   4.102   3.513  16.517  2.5075 -2.3740 -1.7661
18876TIP3   OH278042   1.527   3.426   3.725  0.1830 -0.2562  0.5433
18876TIP3    H178043   1.592   3.364   3.757  0.9515  0.3723  0.2168
18876TIP3    H278044   1.527   3.497   3.790 -1.3059 -0.9750  1.3722
18877TIP3   OH278045   5.182   6.407   0.423 -0.5008  0.3013  0.1421
18877TIP3    H178046   5.166   6.481   0.364 -1.1299  0.8907  1.0235
18877TIP3    H278047   5.271   6.421   0.454 -0.7245  0.8807  0.5508
18878TIP3   OH278048   3.004   0.695  14.464 -0.1622  0.5535 -0.0457
18878TIP3    H178049   3.038   0.758  14.400  1.3337  0.4962  0.6672
18878TIP3    H278050   3.067   0.697  14.536 -1.3571 -0.0282  1.0521
18879TIP3   OH278051   3.051   5.371   4.132 -0.0902  0.3618  0.1544
18879TIP3    H178052   2.958   5.386   4.148 -0.7375  0.7150 -3.1516
18879TIP3    H278053   3.079   5.448   4.081  1.5581 -0.5718 -0.4163
18880TIP3   OH278054   0.827   2.568   5.625  0.1368 -0.0082  0.0846
18880TIP3    H178055   0.770   2.597   5.554  0.5250  0.4625 -0.0421
18880TIP3    H278056   0.810   2.631   5.696  0.6528  0.2735 -0.0328
18881TIP3   OH278057   0.668   1.388   2.567 -0.1362 -0.4097  0.6213
18881TIP3    H178058   0.689   1.408   2.658 -0.9839  0.1845  0.6936
18881TIP3    H278059   0.749   1.405   2.519  0.2430 -0.4975  1.2286
18882TIP3   OH278060   1.644   0.114   3.701  0.6167 -0.5536 -0.3768
18882TIP3    H178061   1.696   0.035   3.706  1.0747 -0.3864 -1.9566
18882TIP3    H278062   1.704   0.185   3.725  1.5027 -0.2526 -3.0794
18883TIP3   OH278063   4.398   3.411  12.523 -0.1790  0.0498 -0.1223
18883TIP3    H178064   4.353   3.365  12.452 -0.2294  1.1163 -0.7985
18883TIP3    H278065   4.486   3.427  12.489 -0.8191  2.4284 -0.8204
18884TIP3   OH278066   5.845   5.181   0.127 -0.1926 -0.0083 -0.4335
18884TIP3    H178067   5.775   5.127   0.164  1.0746 -0.6093  1.1982
18884TIP3    H278068   5.800   5.240   0.066 -1.8430 -1.6811 -0.9315
18885TIP3   OH278069   0.688   1.231  13.246  0.0415 -0.2142 -0.7279
18885TIP3    H178070   0.731   1.181  13.176  1.6617  0.3446 -0.1709
18885TIP3    H278071   0.609   1.265  13.205  0.2267 -1.0856 -1.8736
18886TIP3   OH278072   5.181   1.008   2.652  0.0589 -0.3253 -0.2364
18886TIP3    H178073   5.093   1.022   2.687 -0.9641  0.3562 -2.8301
18886TIP3    H278074   5.178   0.922   2.612 -0.3887  0.7611 -2.7307
18887TIP3   OH278075   5.077   4.197   1.844  0.2163 -0.4548 -0.2187
18887TIP3    H178076   5.124   4.164   1.767  0.7135  0.4673 -0.3124
18887TIP3    H278077   5.000   4.140   1.850 -0.0265 -0.3224 -1.6250
18888TIP3   OH278078   0.526   1.548   5.538 -0.4554 -0.1960 -0.0840
18888TIP3    H178079   0.437   1.559   5.503 -1.4474 -2.2638  1.6129
18888TIP3    H278080   0.523   1.588   5.625  0.3658 -0.0204 -0.1286
18889TIP3   OH278081   3.842   2.931  12.136  0.3860  0.4615  0.4321
18889TIP3    H178082   3.763   2.877  12.144  0.4433  0.0461 -1.4871
18889TIP3    H278083   3.898   2.884  12.075  1.3855  1.6188  0.4163
18890TIP3   OH278084   3.853   3.037  11.686 -0.1588  0.6613 -0.0126
18890TIP3    H178085   3.820   3.108  11.740 -1.4684 -0.1512  0.3152
18890TIP3    H278086   3.946   3.057  11.673 -0.3764  2.1206  0.5178
18891TIP3   OH278087   6.154   4.492  14.534 -0.1138  0.1848  0.2496
18891TIP3    H178088   6.120   4.420  14.588  0.0055 -1.1291 -1.3452
18891TIP3    H278089   6.079   4.519  14.481  0.1192  0.5152  0.0884
18892TIP3   OH278090   6.292   5.150  10.689 -0.2813 -0.1862 -0.1842
18892TIP3    H178091   6.311   5.175  10.599  0.4956  4.4642  1.0299
18892TIP3    H278092   6.198   5.162  10.699 -0.1883  0.5475 -0.1125
18893TIP3   OH278093   6.464   0.708  11.931 -0.3484 -0.4361  0.4605
18893TIP3    H178094   6.485   0.632  11.984 -1.1117 -0.2758  1.0015
18893TIP3    H278095   6.464   0.676  11.841 -0.4313 -1.0205  0.6673
18894TIP3   OH278096   3.294   1.821  14.264 -0.1339  0.0365  0.1421
18894TIP3    H178097   3.299   1.767  14.185  0.7420  2.3689 -1.5044
18894TIP3    H278098   3.372   1.876  14.260  0.1704 -0.0805  2.9263
18895TIP3   OH278099   4.581   3.218  13.767 -0.2426 -0.0870 -0.1134
18895TIP3    H178100   4.660   3.233  13.715  0.7693  1.1742  1.7029
18895TIP3    H278101   4.530   3.156  13.715  0.7296  1.0200 -2.5708
18896TIP3   OH278102   5.904   3.865  10.522  0.3043 -0.0948 -0.1568
18896TIP3    H178103   5.922   3.959  10.529 -0.7608  0.1680 -0.7098
18896TIP3    H278104   5.812   3.857  10.548  0.6141 -1.1045  0.6938
18897TIP3   OH278105   6.329   3.240   1.190 -0.4296 -0.3217  0.0728
18897TIP3    H178106   6.243   3.227   1.150  0.3768 -1.4289 -1.4493
18897TIP3    H278107   6.378   3.160   1.168  1.4300  0.8586 -0.3507
18898TIP3   OH278108   1.616   3.919   2.296  0.2748  0.3172  0.0662
18898TIP3    H178109   1.648   3.923   2.206 -1.2207 -0.6403 -0.5580
18898TIP3    H278110   1.658   3.841   2.333  1.1231  0.8804  0.3091
18899TIP3   OH278111   6.674   1.348   4.644  0.2425  0.3506  0.9121
18899TIP3    H178112   6.712   1.372   4.729  0.3891 -0.1731  0.9982
18899TIP3    H278113   6.615   1.275   4.664  3.0172 -2.3412  0.1047
18900TIP3   OH278114   2.166   0.248   0.645  0.4611  0.5428 -0.9891
18900TIP3    H178115   2.156   0.240   0.740 -0.4407 -0.3236 -1.1390
18900TIP3    H278116   2.240   0.192   0.623  0.3832  0.3776 -0.8369
18901TIP3   OH278117   5.895   1.482   2.217  0.0530  0.3247 -0.4808
18901TIP3    H178118   5.958   1.552   2.204  0.3255  0.2015  0.1366
18901TIP3    H278119   5.909   1.453   2.307 -0.2617 -0.3182 -0.6294
18902TIP3   OH278120   0.860   3.865  12.619 -0.2507  0.1481 -0.1004
18902TIP3    H178121   0.904   3.922  12.681  0.6972 -0.8954  0.2224
18902TIP3    H278122   0.931   3.829  12.565 -0.5209 -2.2019  0.9535
18903TIP3   OH278123   1.373   4.828   3.227 -0.5255 -0.2512 -0.1600
18903TIP3    H178124   1.292   4.786   3.255 -0.3067 -0.6883 -0.1739
18903TIP3    H278125   1.431   4.755   3.203  0.0288  0.0366  0.2849
18904TIP3   OH278126   5.472   3.118   3.860 -0.4463  0.0177  0.5369
18904TIP3    H178127   5.428   3.191   3.904 -2.2093 -0.8418  0.2950
18904TIP3    H278128   5.554   3.156   3.828 -0.5795  1.4760  1.7768
18905TIP3   OH278129   3.422   1.257   1.897 -0.5923 -0.6031 -0.1104
18905TIP3    H178130   3.399   1.179   1.847 -0.1342 -0.8898  0.1210
18905TIP3    H278131   3.364   1.325   1.862 -0.6570 -0.9247 -0.6504
18906TIP3   OH278132   5.731   4.639   6.307  0.0244 -0.9818 -0.5002
18906TIP3    H178133   5.703   4.716   6.356  2.4957 -0.2780 -0.0462
18906TIP3    H278134   5.676   4.568   6.340 -0.1801 -0.0073  1.3628
18907TIP3   OH278135   2.909   5.750   3.803 -0.4225  0.0271  0.0534
18907TIP3    H178136   2.904   5.823   3.866 -1.8593 -0.4690  0.5522
18907TIP3    H278137   2.821   5.712   3.804 -0.7771  0.5316 -2.9252
18908TIP3   OH278138   0.409   4.178   4.342 -0.3417 -0.5169 -0.1238
18908TIP3    H178139   0.437   4.217   4.424 -0.4467 -0.9120  0.1005
18908TIP3    H278140   0.328   4.130   4.364 -0.3954 -0.5865 -0.4622
18909TIP3   OH278141   1.796   4.138  14.638 -0.1829 -0.1235 -0.5728
18909TIP3    H178142   1.761   4.164  14.553  0.3585  2.6210 -0.0493
18909TIP3    H278143   1.891   4.134  14.625  0.0718  2.1026  0.2620
18910TIP3   OH278144   3.792   1.545   3.928 -0.1065  0.3247  0.0115
18910TIP3    H178145   3.720   1.488   3.903  0.5753 -0.6606  0.2416
18910TIP3    H278146   3.804   1.529   4.021  0.5824  0.2689 -0.0828
18911TIP3   OH278147   2.327   0.303  10.944  0.0489 -0.2524 -0.1856
18911TIP3    H178148   2.373   0.220  10.935 -1.6210 -1.2310 -0.1259
18911TIP3    H278149   2.370   0.347  11.018  2.4417  0.0280 -1.6481
18912TIP3   OH278150   4.151   5.741  11.913 -0.6067  0.0660  0.0685
18912TIP3    H178151   4.243   5.732  11.940 -1.2728 -2.5623  1.8962
18912TIP3    H278152   4.113   5.800  11.977 -0.9711 -1.9424  1.8297
18913TIP3   OH278153   0.620   0.899  12.048 -0.4014 -0.0574 -0.0640
18913TIP3    H178154   0.647   0.919  11.958 -0.8951  1.3392  0.0849
18913TIP3    H278155   0.680   0.830  12.075  0.8840  0.6959 -0.8748
18914TIP3   OH278156   5.460   1.937  10.768  0.2948 -0.2448  0.0565
18914TIP3    H178157   5.426   1.965  10.683 -0.5026 -1.6112 -0.0898
18914TIP3    H278158   5.445   1.843  10.771 -0.3690 -0.1289  2.0098
18915TIP3   OH278159   1.524   0.704  10.382  0.4514 -0.0728 -0.5046
18915TIP3    H178160   1.606   0.663  10.356  1.4051  0.7635  1.0335
18915TIP3    H278161   1.465   0.631  10.401  1.1210 -0.6896 -0.7485
18916TIP3   OH278162   4.592   6.223   1.223  0.0121 -0.3661 -0.4444
18916TIP3    H178163   4.559   6.150   1.170  0.4369  0.2698 -1.6246
18916TIP3    H278164   4.626   6.286   1.159  2.5628 -0.5093  0.6366
18917TIP3   OH278165   1.140   1.552   2.831  0.0671  0.0870  0.7610
18917TIP3    H178166   1.066   1.596   2.873 -1.6471  0.4180 -2.2891
18917TIP3    H278167   1.183   1.622   2.781  1.8112 -0.3396  1.6071
18918TIP3   OH278168   4.787   2.033  13.727  0.0573 -0.3558 -0.1985
18918TIP3    H178169   4.707   1.993  13.763  1.0067 -0.6988  1.6549
18918TIP3    H278170   4.757   2.113  13.685 -1.2091 -0.1849  0.9657
18919TIP3   OH278171   2.118   5.364  15.152 -0.0961  0.1896 -0.1034
18919TIP3    H178172   2.031   5.347  15.188  0.2919 -0.5936  0.4711
18919TIP3    H278173   2.129   5.459  15.159 -0.3918  0.1509  1.0059
18920TIP3   OH278174   1.360   2.756  16.967 -0.2507  0.4226 -0.0826
18920TIP3    H178175   1.357   2.769  17.061  1.4994 -1.9007  0.3787
18920TIP3    H278176   1.348   2.662  16.955 -0.5514  0.6806 -2.2041
18921TIP3   OH278177   2.497   1.165  16.675  0.0858 -0.2271 -0.4125
18921TIP3    H178178   2.535   1.245  16.639  0.4796  0.7494  2.0225
18921TIP3    H278179   2.571   1.104  16.682  0.6462  0.5859  1.3498
18922TIP3   OH278180   0.519   3.566   3.569 -0.5515  0.0040 -0.2786
18922TIP3    H178181   0.576   3.490   3.562 -0.2549  0.0465  1.2912
18922TIP3    H278182   0.537   3.617   3.490  0.8180 -0.5052 -0.3184
18923TIP3   OH278183   1.022   5.865  13.028  0.3941 -0.5477 -0.0124
18923TIP3    H178184   1.097   5.821  13.067  1.2699  0.1064 -0.9393
18923TIP3    H278185   1.021   5.952  13.069 -1.1305 -1.2223  1.5600
18924TIP3   OH278186   3.062   4.444   1.086  0.0519 -0.3651 -0.6527
18924TIP3    H178187   3.071   4.372   1.023 -2.2771  0.2938 -1.8488
18924TIP3    H278188   3.121   4.512   1.054 -0.6566 -0.2678 -1.7984
18925TIP3   OH278189   5.560   0.992  11.400  0.0416 -0.0270 -0.2117
18925TIP3    H178190   5.587   0.906  11.369  1.2926  0.6870 -1.1879
18925TIP3    H278191   5.607   1.003  11.483 -1.0805 -0.7609  0.5489
18926TIP3   OH278192   1.988   6.130   1.589 -0.5644 -0.2845  0.1162
18926TIP3    H178193   1.895   6.145   1.572 -0.4903 -0.1373 -0.1549
18926TIP3    H278194   2.004   6.171   1.674 -0.6424  0.0848 -0.0487
18927TIP3   OH278195   2.366   1.948  15.685  0.3918  0.0160 -0.3154
18927TIP3    H178196   2.435   1.966  15.623 -1.0640 -0.5888 -2.2112
18927TIP3    H278197   2.293   1.916  15.632 -0.7853 -0.9786  1.7415
18928TIP3   OH278198   5.701   6.599  15.188  0.0069 -0.7929 -0.1701
18928TIP3    H178199   5.789   6.619  15.155 -1.0892  0.8836 -2.2917
18928TIP3    H278200   5.653   6.682  15.183 -1.3467 -1.2995  2.3536
18929TIP3   OH278201   1.373   4.596  14.464  0.5878 -1.0657 -0.2366
18929TIP3    H178202   1.369   4.546  14.545 -0.3454 -0.1717  0.3008
18929TIP3    H278203   1.466   4.615  14.451  0.5991  1.3734  2.3191
18930TIP3   OH278204   2.630   4.460  17.074 -0.1023  0.2695  0.1059
18930TIP3    H178205   2.630   4.533  17.136  1.6908  0.0262  0.4255
18930TIP3    H278206   2.671   4.388  17.121  2.4190  0.4120 -1.6655
18931TIP3   OH278207   1.979   1.133  15.458  1.1544  0.5809 -0.1151
18931TIP3    H178208   1.972   1.219  15.416 -0.0433  1.3550  1.5677
18931TIP3    H278209   1.893   1.117  15.495  1.0951 -1.7798 -1.1057
18932TIP3   OH278210   6.020   1.461  12.260 -0.2334  0.5734 -0.0468
18932TIP3    H178211   6.073   1.540  12.251  1.2128 -0.4331 -0.8303
18932TIP3    H278212   6.047   1.406  12.186 -0.4384 -1.0653  1.0451
18933TIP3   OH278213   6.714   3.315  12.694  0.3276  0.5971 -0.0857
18933TIP3    H178214   6.690   3.386  12.752 -1.5808 -0.8832  1.0402
18933TIP3    H278215   6.633   3.294  12.647  0.6576 -1.2277  0.0974
18934TIP3   OH278216   4.710   5.119  10.516 -0.2126 -0.2849 -0.4123
18934TIP3    H178217   4.712   5.033  10.559  1.0929  0.8845  2.0558
18934TIP3    H278218   4.636   5.164  10.557  0.9966  0.8176  0.6339
18935TIP3   OH278219   2.395   2.194   0.710 -0.4964  0.7237 -0.2375
18935TIP3    H178220   2.325   2.147   0.755 -0.0006 -1.1744 -1.3253
18935TIP3    H278221   2.359   2.281   0.692 -1.5152  0.7495  1.7003
18936TIP3   OH278222   4.761   0.573  11.388  0.1024 -0.6240 -0.1029
18936TIP3    H178223   4.850   0.538  11.375  0.0525  0.0190 -2.6843
18936TIP3    H278224   4.774   0.666  11.407  0.0011 -0.7491  0.6059
18937TIP3   OH278225   3.289   1.018   5.527  0.5783 -0.0818  0.2855
18937TIP3    H178226   3.356   1.001   5.461  0.2052 -1.0908  0.1527
18937TIP3    H278227   3.293   0.942   5.585 -0.3650 -0.0946  0.3477
18938TIP3   OH278228   4.402   4.823  16.515 -0.2694  0.7005  0.2402
18938TIP3    H178229   4.322   4.806  16.464 -0.4084  1.5091  0.1773
18938TIP3    H278230   4.473   4.790  16.460 -0.2495  3.0012 -1.2677
18939TIP3   OH278231   3.995   1.697  15.045 -0.2926  0.2210  0.2141
18939TIP3    H178232   4.048   1.676  15.122 -0.7619 -0.9424  0.2434
18939TIP3    H278233   4.038   1.773  15.006  1.1204 -0.3999  0.5026
18940TIP3   OH278234   2.557   5.321  14.477  0.7028  0.7652 -0.3477
18940TIP3    H178235   2.555   5.311  14.381  1.3821  0.0005 -0.2914
18940TIP3    H278236   2.513   5.242  14.510  1.9281  0.1980 -0.0022
18941TIP3   OH278237   0.188   5.541   3.766  0.1824  0.0465  0.4968
18941TIP3    H178238   0.154   5.541   3.676  0.5047  0.4832  0.3706
18941TIP3    H278239   0.113   5.516   3.820 -0.0403 -0.1218  0.1130
18942TIP3   OH278240   1.590   0.922  12.872  0.3984  0.3854 -0.9248
18942TIP3    H178241   1.657   0.899  12.936 -0.1987 -1.2097 -0.8494
18942TIP3    H278242   1.620   1.006  12.836  2.1599 -0.0386 -0.5316
18943TIP3   OH278243   6.076   2.996  16.607  0.6364  0.3922  0.3895
18943TIP3    H178244   6.005   3.043  16.650  0.4021 -0.9850  1.5576
18943TIP3    H278245   6.034   2.951  16.534 -0.4561 -2.9529  2.8426
18944TIP3   OH278246   4.268   0.904  12.885  0.0968 -0.3885 -0.5510
18944TIP3    H178247   4.284   0.851  12.807 -1.5742 -1.6975 -0.0682
18944TIP3    H278248   4.185   0.948  12.867 -0.8200 -1.4765  0.8392
18945TIP3   OH278249   1.034   3.586   4.675  0.1868  0.2600 -0.0609
18945TIP3    H178250   1.086   3.524   4.726 -0.9167  2.5090  4.2254
18945TIP3    H278251   0.948   3.545   4.669  0.6717 -0.6223 -1.4904
18946TIP3   OH278252   2.688   5.755  12.778 -0.5650  0.0353 -0.6987
18946TIP3    H178253   2.600   5.755  12.814 -0.4387 -2.0392 -0.2513
18946TIP3    H278254   2.707   5.847  12.759 -2.1050  0.7350  0.9270
18947TIP3   OH278255   4.674   0.240  13.972  0.0919 -0.1058  0.0518
18947TIP3    H178256   4.735   0.288  14.029 -1.1643  1.8117 -0.1454
18947TIP3    H278257   4.608   0.205  14.032  0.4558 -0.7572  0.0823
18948TIP3   OH278258   2.366   0.007   0.986 -0.2152 -0.0092  0.5162
18948TIP3    H178259   2.443  -0.005   1.041 -0.9140  0.3906  1.6255
18948TIP3    H278260   2.340  -0.082   0.961  0.6634 -0.1377  0.0329
18949TIP3   OH278261   3.022   2.568   5.708  0.1290  0.4567 -0.1635
18949TIP3    H178262   3.084   2.640   5.715  0.2319  0.6106 -2.1330
18949TIP3    H278263   2.940   2.603   5.742  0.6786  0.8205  0.8109
18950TIP3   OH278264   0.437   2.285   2.785  0.0636  0.1154 -0.0887
18950TIP3    H178265   0.482   2.322   2.709  0.4297  2.0658  1.0259
18950TIP3    H278266   0.507   2.262   2.846 -0.2129 -1.6492 -0.3698
18951TIP3   OH278267   5.616   5.875  17.058 -0.2391 -0.0294  0.0038
18951TIP3    H178268   5.634   5.967  17.077 -0.7381  0.1757 -0.4981
18951TIP3    H278269   5.581   5.840  17.140 -0.3963  0.3266  0.0901
18952TIP3   OH278270   2.834   6.677  11.358 -0.6635  0.6880  0.4595
18952TIP3    H178271   2.897   6.702  11.425  1.2481 -1.4888 -0.4051
18952TIP3    H278272   2.842   6.744  11.290  3.0277 -0.9629 -0.9935
18953TIP3   OH278273   1.666   2.435  17.047  0.1288  0.1103  0.2008
18953TIP3    H178274   1.634   2.525  17.058 -1.3174 -0.3030 -0.3842
18953TIP3    H278275   1.755   2.437  17.082 -0.4987  1.3378  1.8530
18954TIP3   OH278276   6.654   0.911  13.637 -0.3195  0.5344  0.3088
18954TIP3    H178277   6.597   0.932  13.564 -1.0024 -2.4030 -0.1287
18954TIP3    H278278   6.596   0.910  13.714 -0.7044 -1.2868  0.0444
18955TIP3   OH278279   2.777   4.877  13.173 -0.1012 -0.0043 -0.2353
18955TIP3    H178280   2.697   4.913  13.134  0.0927  0.0677 -0.5705
18955TIP3    H278281   2.801   4.804  13.116  0.1637  0.0771 -0.2312
18956TIP3   OH278282   6.806   1.508   3.880  0.1499 -0.4584 -0.0089
18956TIP3    H178283   6.859   1.449   3.933  0.1971 -1.1498 -0.8244
18956TIP3    H278284   6.865   1.538   3.811 -0.3324 -0.7152 -0.5333
18957TIP3   OH278285   3.959   5.261  12.164  0.5034 -0.0994  0.5527
18957TIP3    H178286   3.873   5.259  12.123  0.3753  0.0179  0.8134
18957TIP3    H278287   3.976   5.354  12.180  0.3683 -0.1697  1.1470
18958TIP3   OH278288   6.221   0.157   1.611 -0.0148  0.3845 -0.1023
18958TIP3    H178289   6.146   0.119   1.565 -1.1906  1.9682  0.3907
18958TIP3    H278290   6.182   0.224   1.668  1.7915  1.3218  0.1035
18959TIP3   OH278291   0.803   0.014   4.453  0.3947 -0.6017  0.4426
18959TIP3    H178292   0.750   0.044   4.527 -1.2852 -1.1249 -0.4822
18959TIP3    H278293   0.857   0.089   4.430 -0.3891  0.1787  1.0549
18960TIP3   OH278294   1.406   2.551   5.204  0.3348 -0.3148 -0.6407
18960TIP3    H178295   1.474   2.483   5.212  0.2195 -0.2367  1.6554
18960TIP3    H278296   1.337   2.509   5.153  0.8178 -1.4879 -0.3726
18961TIP3   OH278297   6.640   6.391   2.893 -0.4847 -0.2119  0.0879
18961TIP3    H178298   6.564   6.439   2.928 -0.2123  1.6147 -1.5975
18961TIP3    H278299   6.716   6.440   2.925 -0.1909  0.3983 -1.4528
18962TIP3   OH278300   2.873   0.471  11.135  0.2818 -0.0503 -0.4325
18962TIP3    H178301   2.827   0.393  11.104  0.8879 -0.5275 -0.1580
18962TIP3    H278302   2.871   0.532  11.061 -1.4089  0.2395 -0.2009
18963TIP3   OH278303   2.151   6.695  13.720 -0.5016  0.1155  0.0301
18963TIP3    H178304   2.135   6.757  13.649 -0.4314  0.0536 -0.0405
18963TIP3    H278305   2.151   6.748  13.800 -1.2389  0.0886  0.0509
18964TIP3   OH278306   1.630   2.120   6.177 -0.2233  0.2497 -0.2812
18964TIP3    H178307   1.681   2.160   6.248  1.3722 -1.0759 -0.6294
18964TIP3    H278308   1.581   2.050   6.219  0.0569  0.0165 -0.3434
18965TIP3   OH278309   2.556   4.122  11.813  1.0417 -0.5621  0.1823
18965TIP3    H178310   2.518   4.197  11.859  0.3805 -0.0740 -1.1001
18965TIP3    H278311   2.595   4.069  11.882 -1.9034 -1.0600  1.6421
18966TIP3   OH278312   5.038   6.785  16.718 -0.0481  0.5857 -0.4253
18966TIP3    H178313   4.966   6.727  16.745 -0.1167  1.0721  0.4894
18966TIP3    H278314   5.095   6.730  16.665 -1.0395  0.1627 -1.0835
18967TIP3   OH278315   4.825   6.298  12.296 -0.4978 -0.1193 -0.5332
18967TIP3    H178316   4.808   6.391  12.278 -1.8660 -0.4677 -1.2423
18967TIP3    H278317   4.770   6.278  12.372  0.4194 -0.1627  0.1270
18968TIP3   OH278318   4.526   4.220  15.579 -0.3156  0.2868  0.6211
18968TIP3    H178319   4.436   4.236  15.606 -0.4101  0.1758  0.3688
18968TIP3    H278320   4.578   4.283  15.630 -0.6065  0.8722  0.1939
18969TIP3   OH278321   0.742   3.772   5.729 -0.3591 -0.0385  0.3313
18969TIP3    H178322   0.648   3.754   5.727 -0.6980  1.5436 -1.7070
18969TIP3    H278323   0.779   3.706   5.670 -0.2703 -0.2031  0.5679
18970TIP3   OH278324   5.246   4.420   4.449 -0.5296 -0.4776 -0.4860
18970TIP3    H178325   5.247   4.503   4.497  3.4655 -0.8546  0.4886
18970TIP3    H278326   5.245   4.353   4.517 -0.2478 -1.1356 -1.1118
18971TIP3   OH278327   5.287   6.010  12.219  0.0356 -0.2313 -0.5922
18971TIP3    H178328   5.370   5.965  12.203 -1.1739 -2.7519 -0.2383
18971TIP3    H278329   5.237   5.998  12.138 -0.3813  0.3640 -0.4323
18972TIP3   OH278330   5.188   4.558  12.689  0.2830  0.5565 -0.2133
18972TIP3    H178331   5.210   4.584  12.599  0.4978  0.3865 -0.2126
18972TIP3    H278332   5.261   4.502  12.716  0.6949  1.3811  0.4146
18973TIP3   OH278333   4.609   1.862   2.110  0.5279  0.2841 -0.1380
18973TIP3    H178334   4.612   1.794   2.178  0.3634  0.4129 -0.0024
18973TIP3    H278335   4.616   1.813   2.028  0.6549  0.1217 -0.0314
18974TIP3   OH278336   4.707   0.927   3.417  0.8283  0.0045  0.0731
18974TIP3    H178337   4.618   0.948   3.442  1.0122  2.2241 -0.8728
18974TIP3    H278338   4.699   0.850   3.361 -0.4293 -0.1299  0.4118
18975TIP3   OH278339   5.400   1.707   1.557 -0.7981  0.2891 -0.3396
18975TIP3    H178340   5.466   1.760   1.512 -0.7918  0.7504  0.1997
18975TIP3    H278341   5.435   1.696   1.646 -0.1752 -1.7038 -0.7786
18976TIP3   OH278342   3.113   5.614  16.781 -0.5406  0.1772  0.0019
18976TIP3    H178343   3.175   5.685  16.764 -2.0544  1.7711  0.6950
18976TIP3    H278344   3.039   5.632  16.723 -1.7589  0.3124  1.5113
18977TIP3   OH278345   3.397   1.097  12.568  0.4289  0.1720 -0.0305
18977TIP3    H178346   3.424   1.185  12.542  1.4521  0.1996  1.0234
18977TIP3    H278347   3.462   1.039  12.528  0.1697 -0.0463 -0.1387
18978TIP3   OH278348   2.765   2.709   4.099  0.5389 -0.5616  0.3326
18978TIP3    H178349   2.787   2.619   4.121 -0.7728 -0.9080  0.2985
18978TIP3    H278350   2.678   2.704   4.057  1.1864  0.5130 -1.2733
18979TIP3   OH278351   1.760   4.942  11.365  0.3759  0.7501  0.1847
18979TIP3    H178352   1.844   4.978  11.396  0.5022  0.1619  0.5352
18979TIP3    H278353   1.696   5.010  11.385  0.2324 -0.0656  2.8967
18980TIP3   OH278354   5.853   3.534   2.034 -0.2374 -0.2242  0.2315
18980TIP3    H178355   5.904   3.552   2.113  0.1290 -2.5242  0.5875
18980TIP3    H278356   5.917   3.504   1.970 -0.6899  0.5168 -0.5978
18981TIP3   OH278357   3.470   3.586   4.465 -0.9075  0.5063 -0.1859
18981TIP3    H178358   3.540   3.581   4.530 -2.2989 -0.1183  1.3333
18981TIP3    H278359   3.471   3.677   4.435  0.4510  0.5313 -0.1062
18982TIP3   OH278360   6.547   2.572  13.773 -0.6141  0.3851  0.1898
18982TIP3    H178361   6.519   2.586  13.683  0.3311  1.4268  0.0416
18982TIP3    H278362   6.515   2.648  13.821 -0.2653  0.3278  0.5222
18983TIP3   OH278363   5.307   6.237  13.769 -0.5566 -0.0643 -0.4147
18983TIP3    H178364   5.266   6.214  13.852 -2.0782  0.2690 -1.0349
18983TIP3    H278365   5.285   6.166  13.710  0.1095 -0.0686 -0.6681
18984TIP3   OH278366   2.178   2.004   4.293 -0.1930 -0.5031  0.4340
18984TIP3    H178367   2.142   2.090   4.312 -1.6475 -0.8488 -0.5762
18984TIP3    H278368   2.272   2.018   4.281 -0.7382  1.4938 -2.5625
18985TIP3   OH278369   5.508   6.243   5.429 -0.2739  0.0694 -0.2487
18985TIP3    H178370   5.599   6.218   5.415  0.0309  0.6247  0.6545
18985TIP3    H278371   5.462   6.160   5.444  0.1047 -0.2024 -0.5748
18986TIP3   OH278372   5.196   1.939   4.919 -0.0139  0.2574 -0.2750
18986TIP3    H178373   5.114   1.940   4.870 -0.1847 -0.2446 -0.0075
18986TIP3    H278374   5.264   1.953   4.853 -0.4071  2.3943 -0.2833
18987TIP3   OH278375   4.066   3.434   4.253 -0.0118  0.0985 -0.1331
18987TIP3    H178376   4.007   3.425   4.179 -0.6407  1.4557  0.1724
18987TIP3    H278377   4.037   3.514   4.298 -0.2640 -1.1981  2.1422
18988TIP3   OH278378   5.036   1.802   3.616 -0.0624  0.2419  0.1331
18988TIP3    H178379   5.056   1.888   3.653  1.1511  0.5514 -1.1178
18988TIP3    H278380   4.959   1.817   3.562  0.0978  0.5370 -0.0192
18989TIP3   OH278381   5.462   0.093   2.014  0.1636 -0.3339  0.3002
18989TIP3    H178382   5.442   0.064   2.103  4.1289  0.9432  1.8467
18989TIP3    H278383   5.469   0.188   2.021  0.1461 -0.1790 -1.4883
18990TIP3   OH278384   3.965   0.666  14.712  0.1223 -0.3436  0.1631
18990TIP3    H178385   4.045   0.711  14.685  0.1592 -0.7025 -0.3451
18990TIP3    H278386   3.930   0.720  14.783  1.2122 -0.5838  0.9214
18991TIP3   OH278387   3.181   4.449   5.560  0.2952 -0.3435 -0.1975
18991TIP3    H178388   3.218   4.451   5.648 -1.6669 -1.2840  0.7064
18991TIP3    H278389   3.169   4.541   5.537  1.1782 -0.0802  0.3317
18992TIP3   OH278390   1.002   2.214  13.954  0.1274 -0.7645  0.1499
18992TIP3    H178391   1.087   2.179  13.928 -0.7321 -2.4017 -0.6034
18992TIP3    H278392   0.998   2.301  13.914  1.5560 -0.5399  0.4547
18993TIP3   OH278393   6.260   0.579  16.784  0.6828  0.1649  0.0263
18993TIP3    H178394   6.337   0.630  16.759  1.4557  0.5734  2.8980
18993TIP3    H278395   6.280   0.547  16.872 -1.9070 -0.8623  0.3236
18994TIP3   OH278396   4.706   3.834  16.666 -0.5204  0.3319  0.6766
18994TIP3    H178397   4.717   3.782  16.746  2.4229 -0.4596 -0.1136
18994TIP3    H278398   4.710   3.924  16.696  0.0305  0.0518  1.4990
18995TIP3   OH278399   2.716   5.925  12.110  0.0888 -0.0944  0.3694
18995TIP3    H178400   2.758   5.909  12.025  0.2564 -0.2279  0.4783
18995TIP3    H278401   2.726   5.843  12.158 -0.2162 -0.0987  0.4310
18996TIP3   OH278402   2.074   1.660   0.051  0.5416 -0.2516  0.0483
18996TIP3    H178403   2.083   1.621   0.137 -2.9174  0.0421  0.6638
18996TIP3    H278404   2.082   1.754   0.066  2.1921 -0.2825 -0.3884
18997TIP3   OH278405   3.286   3.167  13.423 -0.1907  0.6854 -0.1087
18997TIP3    H178406   3.219   3.098  13.427 -0.9724  1.4257  0.0544
18997TIP3    H278407   3.238   3.248  13.445  0.3875  1.4955 -1.6411
18998TIP3   OH278408   2.799   3.440   2.732 -0.0596  0.5657  0.1916
18998TIP3    H178409   2.853   3.402   2.663 -0.6845  0.1485 -0.0845
18998TIP3    H278410   2.782   3.530   2.703  1.8296  1.2603  1.0842
18999TIP3   OH278411   5.966   4.246   2.834  0.4552 -0.0960 -0.5602
18999TIP3    H178412   5.980   4.339   2.817  0.0715 -0.2102 -1.5816
18999TIP3    H278413   5.908   4.217   2.763  1.0085 -1.2303 -0.5751
19000TIP3   OH278414   5.025   4.048  13.381  0.0784  0.2124 -0.2557
19000TIP3    H178415   4.943   4.073  13.340  0.1046 -1.6667 -1.6087
19000TIP3    H278416   5.002   3.973  13.436  0.9759 -0.9249 -1.3524
19001TIP3   OH278417   1.276   5.473   6.316 -0.6484 -0.0812 -0.1208
19001TIP3    H178418   1.354   5.526   6.331 -0.2770 -0.8544  0.7314
19001TIP3    H278419   1.203   5.536   6.319 -0.1837  0.4346  0.4749
19002TIP3   OH278420   2.383   5.986  11.735  0.6657 -0.0612 -0.3446
19002TIP3    H178421   2.349   6.018  11.651  0.5859  0.7136 -0.0244
19002TIP3    H278422   2.414   6.065  11.780 -0.9229 -0.2071  1.1067
19003TIP3   OH278423   0.440   3.180   1.201 -0.0710  0.3365  0.5804
19003TIP3    H178424   0.381   3.119   1.245  0.3932 -0.6395 -0.1132
19003TIP3    H278425   0.400   3.266   1.213 -0.8421 -0.1305  1.4047
19004TIP3   OH278426   1.545   3.474  15.065 -0.0988  0.0273 -0.4168
19004TIP3    H178427   1.617   3.521  15.024  0.7886 -0.6979  0.2616
19004TIP3    H278428   1.568   3.470  15.158 -0.0702 -1.7737 -0.4497
19005TIP3   OH278429   2.684   1.878   5.101  0.0459  0.2724  0.1131
19005TIP3    H178430   2.756   1.916   5.051  0.1131  0.5870  0.4479
19005TIP3    H278431   2.708   1.891   5.193  1.3233 -2.8131  0.3589
19006TIP3   OH278432   3.656   4.286  14.309  0.3455  0.2708  1.0022
19006TIP3    H178433   3.709   4.304  14.231  1.0994 -0.2776  1.3695
19006TIP3    H278434   3.566   4.291  14.279  0.5920  1.3532  0.3837
19007TIP3   OH278435   4.582   1.986  12.092 -0.1253 -0.3803 -0.0362
19007TIP3    H178436   4.616   2.041  12.021 -1.0293  1.6568  1.0336
19007TIP3    H278437   4.490   2.012  12.102  0.3452  0.6019  2.8799
19008TIP3   OH278438   4.458   3.958   5.648  0.1920 -0.3580  0.3638
19008TIP3    H178439   4.491   3.942   5.736  2.2555  3.1771  0.4446
19008TIP3    H278440   4.374   4.001   5.661  0.3572 -0.1070  0.6103
19009TIP3   OH278441   0.825   0.464   0.818  0.3746  0.1705 -0.4758
19009TIP3    H178442   0.743   0.505   0.845  0.3884 -1.2287  1.9884
19009TIP3    H278443   0.806   0.370   0.819  2.1427 -0.2194  0.7543
19010TIP3   OH278444   0.058   3.211   6.182 -0.2625  0.0434 -0.2479
19010TIP3    H178445  -0.014   3.149   6.195 -1.8044  1.9055  0.5366
19010TIP3    H278446   0.050   3.273   6.254 -0.5327  2.7669 -2.4537
19011TIP3   OH278447   1.588   1.560   4.383 -0.6077  0.0642 -0.2633
19011TIP3    H178448   1.586   1.542   4.476 -0.1055  0.7301 -0.1101
19011TIP3    H278449   1.653   1.630   4.374 -0.1039 -0.5064 -1.1945
19012TIP3   OH278450   3.934   1.468   1.939  0.2694 -0.3098 -0.9831
19012TIP3    H178451   3.907   1.419   2.017 -0.8406  1.8714  0.1065
19012TIP3    H278452   3.936   1.403   1.869 -1.9454 -1.7696  0.1893
19013TIP3   OH278453   1.017   0.891  16.647  0.1416 -0.4717  0.5202
19013TIP3    H178454   0.992   0.953  16.716 -0.6530 -0.7536  0.4934
19013TIP3    H278455   1.073   0.942  16.588  0.4016 -0.0843  1.0887
19014TIP3   OH278456   5.022   3.000   2.784 -0.4708 -0.4123  0.0798
19014TIP3    H178457   5.020   3.095   2.789  2.3231 -0.2915  0.3833
19014TIP3    H278458   5.041   2.981   2.692  2.3092 -0.4850  0.6098
19015TIP3   OH278459   4.434   2.144   3.703  0.0675 -0.3761 -0.1551
19015TIP3    H178460   4.492   2.125   3.628 -1.1371 -0.4618 -1.0973
19015TIP3    H278461   4.389   2.224   3.678 -1.6841 -1.3714 -0.3767
19016TIP3   OH278462   6.207   2.606   1.897 -0.1460  0.3981 -0.3453
19016TIP3    H178463   6.151   2.574   1.826 -0.2234 -1.4908  0.5069
19016TIP3    H278464   6.145   2.637   1.963 -0.0966  1.0820 -0.6111
19017TIP3   OH278465   2.665   3.053   2.586 -0.5416 -0.5039 -0.7514
19017TIP3    H178466   2.595   3.060   2.521  0.2252 -0.6890 -1.6114
19017TIP3    H278467   2.740   3.096   2.545 -0.2772  0.1143  0.3522
19018TIP3   OH278468   6.288   3.976  12.195  0.6608  0.3552  0.8488
19018TIP3    H178469   6.194   3.979  12.177  0.5756 -1.2460  0.8620
19018TIP3    H278470   6.296   4.010  12.284 -0.2374 -1.6800  1.7828
19019TIP3   OH278471   2.037   2.876   5.474 -0.4547  0.3242  0.6965
19019TIP3    H178472   2.127   2.848   5.492  0.4326  1.5691 -1.4209
19019TIP3    H278473   1.990   2.857   5.555  1.3387 -1.7668  1.3799
19020TIP3   OH278474   1.689   1.259  15.237 -0.3314 -0.0603 -0.3727
19020TIP3    H178475   1.607   1.243  15.283 -0.0589 -1.9633 -0.4624
19020TIP3    H278476   1.744   1.305  15.301 -1.0306  0.1264  0.1034
19021TIP3   OH278477   1.132   3.991  16.146  0.1371 -0.4025 -0.1010
19021TIP3    H178478   1.058   3.941  16.179 -0.7853  0.7362 -0.3721
19021TIP3    H278479   1.171   4.030  16.224 -1.5441  1.6164 -0.1823
19022TIP3   OH278480   5.118   6.007  14.155 -0.0185  0.1270 -0.2345
19022TIP3    H178481   5.069   5.960  14.222 -0.3247  1.0619  0.2151
19022TIP3    H278482   5.172   5.940  14.113 -1.2903 -0.8215 -0.3890
19023TIP3   OH278483   1.076   5.665   6.272 -0.0520 -0.2553 -0.6157
19023TIP3    H178484   1.063   5.758   6.290  0.7906 -0.5024  1.5874
19023TIP3    H278485   0.988   5.629   6.262 -0.5519  0.3034  1.3660
19024TIP3   OH278486   0.995   2.276  13.536 -0.4593  0.3211  0.1065
19024TIP3    H178487   1.031   2.350  13.586  0.1585  0.5936 -0.7254
19024TIP3    H278488   0.997   2.203  13.598 -1.6115  1.1199  1.1188
19025TIP3   OH278489   5.781   0.666  10.439  0.6624 -0.2495 -0.2686
19025TIP3    H178490   5.710   0.667  10.504 -0.8242 -0.9481 -1.8063
19025TIP3    H278491   5.769   0.583  10.393  3.5545 -1.2196  0.4993
19026TIP3   OH278492   5.114   5.978  11.034 -0.5101  0.7977 -0.1373
19026TIP3    H178493   5.081   6.033  10.963 -1.9021 -0.0206 -0.1560
19026TIP3    H278494   5.073   5.893  11.019 -0.9606  0.6479  1.7208
19027TIP3   OH278495   2.591   4.841  16.046  0.2602  0.0701  0.4282
19027TIP3    H178496   2.622   4.751  16.035 -1.3424 -0.2859 -1.7199
19027TIP3    H278497   2.650   4.878  16.112  2.8356 -1.6589 -0.7127
19028TIP3   OH278498   2.496   1.484   5.284 -0.3370  0.0943  0.6506
19028TIP3    H178499   2.506   1.389   5.283  1.7965  0.2616  1.4067
19028TIP3    H278500   2.538   1.513   5.203 -1.8685  0.3627 -0.0792
19029TIP3   OH278501   4.852   3.751   1.031 -0.7123 -0.1391 -0.0929
19029TIP3    H178502   4.932   3.702   1.046 -0.6025  0.0511 -0.0574
19029TIP3    H278503   4.784   3.701   1.076 -1.1218 -1.8224 -2.3776
19030TIP3   OH278504   5.083   2.623  15.871  0.0524  0.3151  0.2743
19030TIP3    H178505   5.005   2.677  15.859  1.1964  1.9574  0.0511
19030TIP3    H278506   5.083   2.601  15.964  0.1676  1.6513  0.6055
19031TIP3   OH278507   4.673   6.491   0.277  0.4868 -0.3430 -0.4032
19031TIP3    H178508   4.746   6.549   0.301  0.4234  0.6240 -2.3757
19031TIP3    H278509   4.691   6.410   0.325  0.8523  1.0807  2.0428
19032TIP3   OH278510   5.987   6.267   0.619  0.2869 -0.0836  0.0278
19032TIP3    H178511   5.960   6.178   0.641  0.8960  0.2931  2.5806
19032TIP3    H278512   5.957   6.321   0.693 -1.3155  2.1230 -2.0743
19033TIP3   OH278513   6.614   0.449   2.440 -0.2074 -0.5038 -0.6075
19033TIP3    H178514   6.537   0.498   2.469 -0.4659 -1.2488  0.0124
19033TIP3    H278515   6.591   0.416   2.354 -0.6594 -0.8764 -0.3479
19034TIP3   OH278516   0.717   3.932  14.819  0.3024 -0.4051  0.2576
19034TIP3    H178517   0.705   3.902  14.909 -0.6430  0.2428  0.3613
19034TIP3    H278518   0.810   3.955  14.813  0.2688  0.0182  1.2160
19035TIP3   OH278519   3.015   0.907  16.785 -0.2743 -0.6139  0.8696
19035TIP3    H178520   3.072   0.963  16.733  0.6435 -1.8956  0.4447
19035TIP3    H278521   3.040   0.923  16.876 -1.0495  0.7376  0.8677
19036TIP3   OH278522   0.022   3.005   3.044  0.3084 -0.4070 -0.4228
19036TIP3    H178523   0.084   2.986   2.974  0.2112  1.1847 -0.9930
19036TIP3    H278524  -0.052   3.046   3.000 -0.1731 -0.2529  0.5024
19037TIP3   OH278525   1.941   6.098   4.413 -0.0027 -0.0208  0.6466
19037TIP3    H178526   1.978   6.010   4.416  0.7115  0.2027 -0.6150
19037TIP3    H278527   2.013   6.155   4.441 -0.7680  0.1166  2.4577
19038TIP3   OH278528   4.725   6.567   3.136 -0.2640 -0.2299 -0.1210
19038TIP3    H178529   4.763   6.596   3.218  0.2226 -0.7171 -0.1662
19038TIP3    H278530   4.793   6.511   3.097  0.3798  1.6272 -1.8337
19039TIP3   OH278531   5.780   0.596   0.614  0.3509  0.2519 -0.5274
19039TIP3    H178532   5.774   0.513   0.566 -1.2332  0.2606 -0.4219
19039TIP3    H278533   5.688   0.622   0.628  0.6939  0.1764  2.6077
19040TIP3   OH278534   6.734   4.304   1.745 -0.4255  0.1547 -0.5570
19040TIP3    H178535   6.711   4.397   1.748  0.2388  0.3117 -0.2845
19040TIP3    H278536   6.827   4.303   1.721 -0.6790 -0.4709 -1.5898
19041TIP3   OH278537   6.711   1.425   0.606  0.1897 -0.2410  0.0748
19041TIP3    H178538   6.739   1.480   0.679  1.9818 -1.7570  0.5994
19041TIP3    H278539   6.666   1.485   0.547  2.6680  1.9657  0.2381
19042TIP3   OH278540   4.226   6.132  11.825 -0.2878  0.0102  0.7291
19042TIP3    H178541   4.185   6.140  11.911  0.1605 -2.4065  1.2458
19042TIP3    H278542   4.153   6.135  11.763 -0.7828  0.2036  1.3086
19043TIP3   OH278543   5.420   2.363  10.760  0.0170  0.3910  0.4872
19043TIP3    H178544   5.362   2.356  10.684  0.2883 -1.3551  0.4082
19043TIP3    H278545   5.422   2.457  10.780 -0.8467  0.7652 -1.0369
19044TIP3   OH278546   6.090   3.673   4.939  0.0357 -0.0415  0.0839
19044TIP3    H178547   6.034   3.692   4.864  0.2858 -0.8510 -0.3142
19044TIP3    H278548   6.111   3.580   4.931  0.9155  0.1017  0.5815
19045TIP3   OH278549   5.055   3.159   0.104  0.0936 -0.4034  0.0939
19045TIP3    H178550   4.967   3.184   0.131 -1.1179 -2.2720 -1.8093
19045TIP3    H278551   5.073   3.078   0.153 -0.3782 -1.4540 -1.3883
19046TIP3   OH278552   5.493   3.108  15.736  0.0401  0.5100 -0.3970
19046TIP3    H178553   5.458   3.019  15.739  0.2536  0.4423  0.2000
19046TIP3    H278554   5.481   3.136  15.645 -1.5050  0.4706 -0.2304
19047TIP3   OH278555   2.937   2.782  12.632  0.5949 -0.1597  0.3251
19047TIP3    H178556   3.027   2.766  12.659  1.1299 -2.7643 -2.4666
19047TIP3    H278557   2.884   2.727  12.691  1.0472 -0.4448  0.4687
19048TIP3   OH278558   1.598   3.925  13.460  0.4576  0.0293  0.5020
19048TIP3    H178559   1.518   3.899  13.506  0.8468 -2.2632  0.0060
19048TIP3    H278560   1.645   3.981  13.523  0.3755 -1.9573  2.4407
19049TIP3   OH278561   2.424   5.767   2.542 -0.0713 -0.3872  0.0718
19049TIP3    H178562   2.510   5.795   2.509 -0.6780  1.0590 -0.3397
19049TIP3    H278563   2.412   5.817   2.623 -1.4015  1.0406 -0.9511
19050TIP3   OH278564   5.500   5.677  16.784 -0.3451 -0.5348 -0.4687
19050TIP3    H178565   5.420   5.637  16.748 -0.0851 -0.0633 -1.5975
19050TIP3    H278566   5.543   5.716  16.708 -0.0347  0.9434  0.4377
19051TIP3   OH278567   0.110   1.927  15.849  0.1605  0.2583 -0.2198
19051TIP3    H178568   0.049   1.983  15.898 -0.6293 -0.7883  0.0377
19051TIP3    H278569   0.054   1.863  15.806  1.1563 -2.5963  2.3675
19052TIP3   OH278570   4.797   0.670   5.847 -0.0397  0.7179  0.3320
19052TIP3    H178571   4.883   0.707   5.863 -1.1814  3.7831  0.0898
19052TIP3    H278572   4.768   0.636   5.932  2.2030 -2.5422 -0.0353
19053TIP3   OH278573   2.157   1.904  14.187  0.1016  0.0216  0.1813
19053TIP3    H178574   2.235   1.958  14.203  1.4499 -0.8693 -2.6741
19053TIP3    H278575   2.182   1.848  14.113 -2.6300 -1.6800  0.4154
19054TIP3   OH278576   6.012   6.684  12.058 -0.4192  0.0566  0.0851
19054TIP3    H178577   6.013   6.645  12.146 -0.8299 -0.7172 -0.2492
19054TIP3    H278578   5.982   6.614  12.001 -0.3292  0.6144 -0.6537
19055TIP3   OH278579   0.011   4.424  12.580 -0.3732 -0.3694 -0.3330
19055TIP3    H178580   0.047   4.480  12.649  0.4683 -0.1352 -0.9559
19055TIP3    H278581  -0.013   4.343  12.626 -1.4895  0.4272  0.5510
19056TIP3   OH278582   0.465   5.125   3.827 -0.1740 -0.3941 -0.1164
19056TIP3    H178583   0.397   5.164   3.773  1.9076  0.5772 -2.2372
19056TIP3    H278584   0.510   5.199   3.867  0.9785 -0.8248 -0.5479
19057TIP3   OH278585   2.432   1.445   4.738  0.3350 -0.1938 -0.5390
19057TIP3    H178586   2.382   1.524   4.759  1.5764  0.9318 -1.5549
19057TIP3    H278587   2.399   1.418   4.652 -1.2842 -1.8556  0.5315
19058TIP3   OH278588   0.601   3.686   1.701 -0.2255  0.3740 -0.1157
19058TIP3    H178589   0.648   3.619   1.651 -2.2553 -2.3301  1.2934
19058TIP3    H278590   0.527   3.709   1.646  0.9169  2.2309 -0.9666
19059TIP3   OH278591   5.204   2.614  12.825 -0.7176  0.7291  0.0275
19059TIP3    H178592   5.151   2.550  12.779 -3.0505  0.6667  2.5381
19059TIP3    H278593   5.165   2.698  12.803  0.6257  1.0901 -1.1072
19060TIP3   OH278594   1.760   5.905   4.190  0.0101  0.0067 -0.0182
19060TIP3    H178595   1.762   5.822   4.144  0.0307 -0.0870  0.1497
19060TIP3    H278596   1.673   5.909   4.229  0.7315 -0.9621  1.8173
19061TIP3   OH278597   3.888   1.906  16.194 -0.0599  0.3632  0.4667
19061TIP3    H178598   3.898   1.829  16.250  2.7679  0.6978  0.5918
19061TIP3    H278599   3.899   1.980  16.253 -2.2943  0.9267  0.2684
19062TIP3   OH278600   3.017   3.249  14.783  0.3968  0.5017 -0.4916
19062TIP3    H178601   3.089   3.280  14.729  0.5751  0.5583 -0.2220
19062TIP3    H278602   2.951   3.319  14.777 -0.0379  0.0310 -1.5009
19063TIP3   OH278603   2.649   3.860  11.652  0.2340 -0.2899 -0.0789
19063TIP3    H178604   2.695   3.930  11.697  0.6943 -0.6489  0.0147
19063TIP3    H278605   2.695   3.851  11.568 -1.0437  0.8496 -0.9568
19064TIP3   OH278606   1.932   5.263   1.582  0.1598 -0.3019  0.0456
19064TIP3    H178607   1.942   5.170   1.559 -0.0547 -0.3754  0.2446
19064TIP3    H278608   1.920   5.307   1.498 -1.9890 -0.7368  0.0776
19065TIP3   OH278609   0.858   2.600   4.094  0.2443  0.6796 -0.0333
19065TIP3    H178610   0.851   2.542   4.170 -1.3166  1.4879  0.4873
19065TIP3    H278611   0.767   2.616   4.068  0.7351  0.7338 -1.8454
19066TIP3   OH278612   1.966   1.042  16.993 -0.2518  0.6646 -0.5922
19066TIP3    H178613   1.940   1.080  17.077 -0.4590  0.5165 -0.5881
19066TIP3    H278614   2.057   1.016  17.005  0.0230  1.5352 -0.7270
19067TIP3   OH278615   6.258   4.868   2.063  0.1104  0.1075  0.2485
19067TIP3    H178616   6.342   4.868   2.108  0.3736 -1.4558 -0.1909
19067TIP3    H278617   6.257   4.950   2.014  1.1962  0.3359  0.5822
19068TIP3   OH278618   4.441   2.540   0.188 -0.6871 -0.0449 -0.2259
19068TIP3    H178619   4.442   2.632   0.161  2.3016 -0.3945 -1.7388
19068TIP3    H278620   4.511   2.534   0.253 -0.9271 -1.2413 -0.0570
19069TIP3   OH278621   6.201   2.131  16.741 -0.2623 -0.1167  0.1057
19069TIP3    H178622   6.180   2.045  16.777  1.3033 -0.4988  0.1902
19069TIP3    H278623   6.296   2.136  16.746 -0.1198  0.6373 -2.1388
19070TIP3   OH278624   6.115   5.286   3.022  0.6384 -0.9317 -0.4211
19070TIP3    H178625   6.187   5.289   3.086  0.2749  0.6372 -0.0345
19070TIP3    H278626   6.039   5.319   3.071  0.1952 -0.3783 -1.4527
19071TIP3   OH278627   2.821   4.552   3.278 -0.2044  0.4999  0.2276
19071TIP3    H178628   2.880   4.501   3.222 -2.9652 -0.0771 -2.3975
19071TIP3    H278629   2.770   4.486   3.325 -1.1385  0.8764 -0.2353
19072TIP3   OH278630   6.236   4.500  15.212 -0.2054 -0.2248 -0.5163
19072TIP3    H178631   6.221   4.540  15.298  0.2856 -0.5375 -0.2768
19072TIP3    H278632   6.330   4.509  15.198 -0.3720  0.3901 -1.3140
19073TIP3   OH278633   5.870   6.533  12.392  0.3571 -0.3473  0.0379
19073TIP3    H178634   5.829   6.514  12.476  0.2378  0.7571  0.2464
19073TIP3    H278635   5.798   6.532  12.329 -0.3670  2.9148  0.5935
19074TIP3   OH278636   1.663   0.557  13.490  0.1406 -0.0006  0.3257
19074TIP3    H178637   1.634   0.645  13.512 -0.0132 -0.2296  1.0480
19074TIP3    H278638   1.586   0.517  13.449 -1.0578 -1.0053  3.3064
19075TIP3   OH278639   6.554   3.726   1.516  0.1251  0.3727 -0.5391
19075TIP3    H178640   6.622   3.788   1.490  0.9180 -0.6797 -1.0060
19075TIP3    H278641   6.592   3.677   1.589 -0.9726  1.2584  0.6859
19076TIP3   OH278642   6.239   3.692  11.816 -0.2737 -0.1208 -0.4307
19076TIP3    H178643   6.212   3.783  11.827 -2.8526 -0.9646  1.4462
19076TIP3    H278644   6.299   3.676  11.888  0.3711  0.1407 -0.9048
19077TIP3   OH278645   1.515   4.764  12.685  0.6657  0.3949 -0.1434
19077TIP3    H178646   1.534   4.854  12.711  1.1438  0.7306 -1.5338
19077TIP3    H278647   1.421   4.754  12.699  0.7780  0.7614  0.9789
19078TIP3   OH278648   6.678   6.804  15.024 -0.6836  0.6515 -0.0243
19078TIP3    H178649   6.655   6.713  15.044  1.4267 -0.6729 -2.9807
19078TIP3    H278650   6.736   6.830  15.095  0.6594 -1.2199 -0.3776
19079TIP3   OH278651   3.444   0.801  15.456 -0.3226  0.6131 -0.0185
19079TIP3    H178652   3.392   0.882  15.461 -0.5746  0.5070 -0.7666
19079TIP3    H278653   3.467   0.793  15.364  0.3060  0.2018  0.1717
19080TIP3   OH278654   1.731   1.485   3.335 -0.3598 -0.0282  0.7854
19080TIP3    H178655   1.722   1.545   3.261  1.3896  0.3353  0.8161
19080TIP3    H278656   1.767   1.539   3.406 -0.0572 -0.8046  1.2418
19081TIP3   OH278657   6.810   6.588   2.983 -0.1379  0.0973  0.2029
19081TIP3    H178658   6.902   6.561   2.978 -0.4249 -0.9393  0.1218
19081TIP3    H278659   6.808   6.676   2.946  0.6703 -0.2513 -0.7028
19082TIP3   OH278660   3.721   4.704   1.118  0.2941 -0.3347  0.1243
19082TIP3    H178661   3.810   4.686   1.088  0.6240  1.3759 -0.0505
19082TIP3    H278662   3.667   4.694   1.040  0.4397 -0.6383  0.0608
19083TIP3   OH278663   0.134   3.293   2.770 -0.1790  0.0924  0.0925
19083TIP3    H178664   0.103   3.263   2.684 -0.5470  1.0306 -0.1235
19083TIP3    H278665   0.230   3.294   2.762 -0.2272  1.7803 -0.9250
19084TIP3   OH278666   0.516   3.819   4.918  0.1178  0.2751  0.2002
19084TIP3    H178667   0.522   3.844   5.010  0.2823 -1.1061  0.5843
19084TIP3    H278668   0.440   3.761   4.914 -1.6190  2.4695 -1.0775
19085TIP3   OH278669   4.946   0.523  15.835  0.2856  0.4540 -0.0663
19085TIP3    H178670   4.888   0.454  15.867  0.8833 -1.2954 -2.5558
19085TIP3    H278671   5.014   0.530  15.902 -0.6466 -0.2118  0.9804
19086TIP3   OH278672   2.227   0.418   3.730 -0.3505  0.8824  0.3962
19086TIP3    H178673   2.150   0.460   3.767  0.1233  1.8925  0.2508
19086TIP3    H278674   2.284   0.400   3.805 -0.6365  0.3157  0.4807
19087TIP3   OH278675   4.803   3.001  17.052 -0.6247  0.0023 -0.1878
19087TIP3    H178676   4.756   2.945  17.114 -0.0406 -0.9149 -0.5505
19087TIP3    H278677   4.861   2.941  17.004  0.3115  0.9694 -0.3154
19088TIP3   OH278678   3.827   2.850  13.832 -0.0406  0.0728  0.0939
19088TIP3    H178679   3.879   2.810  13.901 -0.0001 -0.4819 -0.2562
19088TIP3    H278680   3.739   2.859  13.870  0.1351  0.3537  0.4354
19089TIP3   OH278681   2.787   1.846   1.584 -1.1731  0.6780  0.0154
19089TIP3    H178682   2.696   1.850   1.615 -0.7807 -0.6939  1.5215
19089TIP3    H278683   2.804   1.752   1.572 -0.8387  1.0355 -3.2059
19090TIP3   OH278684   0.724   4.800  11.604  0.3184 -0.1046 -0.4008
19090TIP3    H178685   0.665   4.866  11.640 -1.7811 -2.5244  0.8630
19090TIP3    H278686   0.706   4.801  11.510  1.3120  1.9644 -0.6270
19091TIP3   OH278687   6.359   1.338  12.727 -0.8224  0.2517 -0.0609
19091TIP3    H178688   6.288   1.385  12.771 -1.7088  0.3985 -1.5792
19091TIP3    H278689   6.355   1.369  12.636 -1.0729 -2.3341 -0.9948
19092TIP3   OH278690   4.081   5.149   5.270 -0.2787 -0.3414 -0.5465
19092TIP3    H178691   4.067   5.069   5.320 -2.3255 -0.4284 -1.1623
19092TIP3    H278692   4.169   5.140   5.233  0.9331 -0.7014  2.1869
19093TIP3   OH278693   6.158   1.588  11.509 -0.4409  0.0102 -0.4888
19093TIP3    H178694   6.069   1.600  11.544 -0.4785 -0.0061 -0.5777
19093TIP3    H278695   6.180   1.674  11.471  0.3844  0.6533  1.3463
19094TIP3   OH278696   2.416   5.517  12.009  0.2878 -0.1418 -0.2393
19094TIP3    H178697   2.332   5.547  11.975 -0.2430  1.2676  2.1101
19094TIP3    H278698   2.478   5.535  11.938 -1.2161 -0.3687 -1.6726
19095TIP3   OH278699   4.868   0.003   5.266  0.0577 -0.0525  0.3032
19095TIP3    H178700   4.945   0.048   5.232  0.1196  0.6817  1.3467
19095TIP3    H278701   4.827  -0.037   5.189  1.6112 -0.6833 -0.2321
19096TIP3   OH278702   6.633   1.209  15.174 -0.1074  0.4601 -0.4210
19096TIP3    H178703   6.592   1.283  15.128  0.2080  0.6003 -0.4788
19096TIP3    H278704   6.669   1.155  15.104 -2.5568 -1.1300 -0.5853
19097TIP3   OH278705   0.596   1.406  16.621  0.0087 -0.4329 -0.4208
19097TIP3    H178706   0.555   1.423  16.706 -0.3498  1.1542 -0.8861
19097TIP3    H278707   0.651   1.329  16.636  0.8617  0.4973  1.5660
19098TIP3   OH278708   4.564   3.271  14.467 -0.4534  0.3582  0.2992
19098TIP3    H178709   4.515   3.209  14.520 -0.3699 -0.9914 -1.1373
19098TIP3    H278710   4.641   3.293  14.521  0.7137 -2.5394  0.0256
19099TIP3   OH278711   5.773   3.419  15.517  0.5870  0.6111 -0.0722
19099TIP3    H178712   5.784   3.443  15.609 -1.5766 -0.9397  0.6971
19099TIP3    H278713   5.683   3.444  15.496  0.7889  0.2246 -1.5359
19100TIP3   OH278714   5.235   5.941   4.966 -0.0725  0.1085 -0.1364
19100TIP3    H178715   5.312   5.956   5.021 -0.2811 -0.6254  0.3769
19100TIP3    H278716   5.248   5.853   4.931 -0.7924 -0.1174  0.1460
19101TIP3   OH278717   4.979   1.187   4.310 -0.7607  0.5247  0.3189
19101TIP3    H178718   4.997   1.123   4.241 -0.9743  0.6514  0.1439
19101TIP3    H278719   4.941   1.262   4.264 -1.9289  0.1901  0.6955
19102TIP3   OH278720   0.371   1.642   2.436  0.2925 -0.0513  0.2615
19102TIP3    H178721   0.368   1.585   2.512  1.5677  0.1363  0.4729
19102TIP3    H278722   0.330   1.591   2.366 -2.4408  0.3855  1.4039
19103TIP3   OH278723   4.452   6.657  11.833 -0.1386  0.1340  0.7051
19103TIP3    H178724   4.404   6.669  11.915 -1.2243  0.0206  0.1000
19103TIP3    H278725   4.539   6.693  11.851  0.0861 -1.0994  2.3253
19104TIP3   OH278726   3.353   2.706  16.414  0.1636 -0.1746  0.1589
19104TIP3    H178727   3.443   2.737  16.405  0.0746 -0.4529 -2.2450
19104TIP3    H278728   3.352   2.620  16.372 -1.0287 -0.5870  0.9726
19105TIP3   OH278729   2.031   1.694   2.528  0.0991 -0.1023 -0.2940
19105TIP3    H178730   2.035   1.635   2.453  0.0152  1.3563 -1.4665
19105TIP3    H278731   2.123   1.717   2.545  0.0302  0.4364 -0.6512
19106TIP3   OH278732   6.375   2.052  10.946 -0.2900  0.1571 -0.2285
19106TIP3    H178733   6.446   2.009  10.899 -0.0127 -2.2124  2.1332
19106TIP3    H278734   6.363   2.135  10.900  3.8363  0.6101 -0.8750
19107TIP3   OH278735   6.027   1.141   5.830 -0.4713  0.3278 -0.4640
19107TIP3    H178736   6.017   1.149   5.925 -0.6036  0.4896 -0.4915
19107TIP3    H278737   5.990   1.055   5.809 -0.8124  0.4613 -0.4206
19108TIP3   OH278738   3.673   6.285  12.711  0.3578 -0.4754  0.3802
19108TIP3    H178739   3.766   6.270  12.726 -0.0245 -1.2656  2.2436
19108TIP3    H278740   3.630   6.203  12.734 -0.8026 -0.1977 -0.6529
19109TIP3   OH278741   5.035   4.704  10.839 -0.0311 -0.2002  0.4121
19109TIP3    H178742   5.046   4.609  10.842 -2.2206 -0.4829  1.7066
19109TIP3    H278743   4.945   4.718  10.809 -0.1629  1.4106  1.3917
19110TIP3   OH278744   6.673   2.426   2.216 -0.2664 -0.0471  0.7040
19110TIP3    H178745   6.723   2.352   2.249 -0.7582 -0.8189 -0.2299
19110TIP3    H278746   6.610   2.387   2.154  1.4942  1.3893 -2.2205
19111TIP3   OH278747   3.248   2.801  16.095  0.1417 -0.3172 -0.0533
19111TIP3    H178748   3.249   2.810  15.999  1.6973 -0.1700 -0.0483
19111TIP3    H278749   3.330   2.756  16.115  1.1974  2.0706  1.4072
19112TIP3   OH278750   4.947   1.199   0.583  0.1860 -0.2166  0.5949
19112TIP3    H178751   5.014   1.263   0.561  0.5257 -1.0552 -0.9669
19112TIP3    H278752   4.870   1.228   0.534  0.3470 -0.9744 -0.1374
19113TIP3   OH278753   4.926   4.172  12.349 -0.1141 -0.2666  0.0121
19113TIP3    H178754   4.897   4.164  12.258  0.2927 -2.2205  0.0059
19113TIP3    H278755   4.846   4.164  12.400 -0.5061  1.9894 -0.1477
19114TIP3   OH278756   0.641   6.209  14.656 -0.4617  0.0490  0.0270
19114TIP3    H178757   0.693   6.130  14.671  0.6127  0.7375  0.0287
19114TIP3    H278758   0.606   6.232  14.742 -1.0313 -0.5865 -0.0272
19115TIP3   OH278759   6.663   5.769   4.880  0.0167  0.0003 -0.3662
19115TIP3    H178760   6.618   5.847   4.913  1.2189  0.2698  0.7618
19115TIP3    H278761   6.713   5.800   4.804 -0.5487  0.0245 -0.7286
19116TIP3   OH278762   6.318   0.829  12.375 -0.0473 -0.4620 -0.1621
19116TIP3    H178763   6.288   0.739  12.357 -1.7756 -0.3904  1.8737
19116TIP3    H278764   6.371   0.852  12.299 -0.1700 -2.9258 -1.1130
19117TIP3   OH278765   0.173   0.430   5.182 -0.2134  0.6540  0.3414
19117TIP3    H178766   0.171   0.522   5.155  0.2348  0.9483  1.2542
19117TIP3    H278767   0.135   0.382   5.109  2.1347  1.2550 -1.3684
19118TIP3   OH278768   5.367   3.575  12.100 -0.1981 -0.1440 -0.0246
19118TIP3    H178769   5.461   3.593  12.095 -0.1454 -0.4073  0.0018
19118TIP3    H278770   5.335   3.633  12.170 -0.1510  0.3251 -0.3898
19119TIP3   OH278771   2.060   2.702  16.093  0.2332 -0.0672  0.8649
19119TIP3    H178772   2.056   2.752  16.174  2.1816  2.6771 -0.5942
19119TIP3    H278773   2.130   2.639  16.106 -1.1941 -1.4770  2.1546
19120TIP3   OH278774   4.107   5.922   0.257 -0.2810  0.2363  0.4352
19120TIP3    H178775   4.043   5.868   0.304  0.5748 -0.6042  0.6601
19120TIP3    H278776   4.153   5.861   0.200 -0.2803  0.9897 -0.3895
19121TIP3   OH278777   0.814   3.392  16.035  0.1738 -0.1327  0.5655
19121TIP3    H178778   0.723   3.381  16.006 -0.3577  1.7234  1.3982
19121TIP3    H278779   0.866   3.355  15.963 -1.2252 -1.7742  0.3373
19122TIP3   OH278780   1.744   4.350  12.955  0.4936  0.4640 -0.4271
19122TIP3    H178781   1.671   4.366  12.895  1.5379 -0.4861 -2.0230
19122TIP3    H278782   1.813   4.314  12.900  0.7920 -2.5181  1.6640
19123TIP3   OH278783   5.097   6.498   2.353 -0.6197  0.3008 -0.4797
19123TIP3    H178784   5.031   6.524   2.289 -0.8769  1.4806  0.2284
19123TIP3    H278785   5.141   6.422   2.314 -2.2509 -0.3824 -1.0537
19124TIP3   OH278786   0.854   0.869   2.173 -0.2592 -0.0163  0.1817
19124TIP3    H178787   0.835   0.802   2.239 -0.4278 -1.3871 -1.2092
19124TIP3    H278788   0.915   0.928   2.216  2.4154 -2.7537  0.5156
19125TIP3   OH278789   5.699   0.114  15.567 -0.8627 -0.3895 -0.5734
19125TIP3    H178790   5.726   0.172  15.496  1.6505  0.5118  0.9811
19125TIP3    H278791   5.755   0.036  15.558 -0.4137 -0.2094  0.4488
19126TIP3   OH278792   1.680   2.852  11.721 -0.0992 -0.3186  0.1783
19126TIP3    H178793   1.605   2.810  11.762  0.0573 -1.0525 -0.2645
19126TIP3    H278794   1.655   2.945  11.715 -0.6438 -0.4201  0.7368
19127TIP3   OH278795   3.877   3.380   3.675 -0.2299  0.3849 -0.4958
19127TIP3    H178796   3.912   3.466   3.654 -0.1090  0.1758 -1.1580
19127TIP3    H278797   3.791   3.378   3.633  0.9597 -0.9051 -3.0851
19128TIP3   OH278798   2.155   5.769  11.294  0.1422 -0.0705 -0.6979
19128TIP3    H178799   2.207   5.695  11.325  0.2601  0.5063  0.5248
19128TIP3    H278800   2.116   5.738  11.212  2.2978 -0.5601 -1.5958
19129TIP3   OH278801   4.891   3.042  14.667  0.4071 -0.1792 -0.5952
19129TIP3    H178802   4.942   2.961  14.669  1.6436  0.4880 -2.3033
19129TIP3    H278803   4.801   3.014  14.653  0.6024 -1.3083  0.2843
19130TIP3   OH278804   0.005   2.529   2.815  0.1560 -0.2691 -0.8012
19130TIP3    H178805  -0.038   2.614   2.819  2.8667  1.1467  2.1265
19130TIP3    H278806   0.012   2.501   2.907  1.4479 -2.5226 -1.5039
19131TIP3   OH278807   5.836   0.455  13.543  0.2208 -0.9779  0.2305
19131TIP3    H178808   5.879   0.520  13.489  2.2685 -2.2656  0.2008
19131TIP3    H278809   5.810   0.502  13.622 -0.0090  0.2392 -0.5486
19132TIP3   OH278810   6.635   1.806  13.345  0.2150 -0.7280  0.3817
19132TIP3    H178811   6.574   1.851  13.404  0.5782 -0.9731  0.9488
19132TIP3    H278812   6.579   1.753  13.289 -0.3422  1.3836 -1.1681
19133TIP3   OH278813   2.645   1.555  16.384 -0.6938  0.2120  0.2030
19133TIP3    H178814   2.665   1.597  16.300 -1.3807  0.9302  0.3896
19133TIP3    H278815   2.552   1.534  16.378 -0.4056 -1.1565  0.1855
19134TIP3   OH278816   1.825   1.120   5.544 -0.2183 -0.7157 -0.3657
19134TIP3    H178817   1.838   1.052   5.609  0.4895 -1.1538 -0.9539
19134TIP3    H278818   1.889   1.102   5.476  0.8013  1.2253  0.0075
19135TIP3   OH278819   0.871   1.176  14.425  0.2459  0.1167  0.3283
19135TIP3    H178820   0.831   1.187  14.512  1.5618 -0.1226  0.9827
19135TIP3    H278821   0.796   1.164  14.366 -0.7929  2.1058  1.1196
19136TIP3   OH278822   2.282   1.479   2.667 -0.3493  0.2256 -0.7739
19136TIP3    H178823   2.292   1.424   2.745  1.0052 -0.6412 -1.5307
19136TIP3    H278824   2.265   1.418   2.596  1.5805  0.7160 -1.7026
19137TIP3   OH278825   0.743   2.125   5.114  0.0483  0.2979 -0.0227
19137TIP3    H178826   0.671   2.159   5.061  1.5184  0.7986 -1.8248
19137TIP3    H278827   0.822   2.153   5.067  1.4035 -1.2824  1.1959
19138TIP3   OH278828   5.074   6.529   4.440  0.9397 -0.0472  0.7294
19138TIP3    H178829   5.070   6.575   4.356 -0.6422  1.4035  1.5282
19138TIP3    H278830   5.043   6.441   4.421  1.5979 -0.0396 -0.4011
19139TIP3   OH278831   6.500   3.771  14.117  0.2717 -0.2570 -0.3284
19139TIP3    H178832   6.548   3.721  14.051 -1.5948  0.7466 -2.6080
19139TIP3    H278833   6.426   3.715  14.140  0.7879 -0.5019  0.8070
19140TIP3   OH278834   5.246   2.443  13.627  0.8925 -0.1476  0.3903
19140TIP3    H178835   5.315   2.502  13.595  0.1048  0.3245 -0.4796
19140TIP3    H278836   5.294   2.368  13.663  1.9284  1.1458  1.8455
19141TIP3   OH278837   5.059   0.113  14.980  0.6904  0.0385 -0.4147
19141TIP3    H178838   5.075   0.020  14.995  0.3230 -0.1729 -1.3173
19141TIP3    H278839   5.123   0.139  14.914  1.0717  0.5406  0.1306
19142TIP3   OH278840   5.979   3.239  15.657  0.1259  0.7036  0.3947
19142TIP3    H178841   5.921   3.265  15.585  0.2496  2.7349  0.9568
19142TIP3    H278842   6.062   3.284  15.638  0.6448  0.0266  1.0095
19143TIP3   OH278843   3.615   1.236   3.923  0.3154  0.1278  0.2972
19143TIP3    H178844   3.617   1.257   3.830 -2.3681 -1.2058 -0.1578
19143TIP3    H278845   3.683   1.170   3.935 -0.6760 -1.2479 -1.2192
19144TIP3   OH278846   5.036   3.249   0.441  0.5709  0.9081  0.7570
19144TIP3    H178847   4.964   3.297   0.482 -0.8924 -0.7302  0.2080
19144TIP3    H278848   4.994   3.183   0.386  2.4988  0.2177 -0.0013
19145TIP3   OH278849   5.209   1.379   5.767 -0.0959 -0.8023  0.4044
19145TIP3    H178850   5.213   1.473   5.752 -1.7226 -0.5869  1.1318
19145TIP3    H278851   5.220   1.340   5.681 -1.5208  0.1397 -0.2440
19146TIP3   OH278852   5.684   2.430  12.460 -0.2307 -0.2673  0.0331
19146TIP3    H178853   5.758   2.421  12.520 -0.1069  0.3557 -0.0182
19146TIP3    H278854   5.677   2.345  12.418  0.9826 -0.1016 -0.5639
19147TIP3   OH278855   2.237   5.489   2.151  0.5849 -0.3302 -0.0971
19147TIP3    H178856   2.307   5.478   2.215 -0.0388 -1.4793  0.3992
19147TIP3    H278857   2.278   5.536   2.078  1.4240  0.5561  0.9234
19148TIP3   OH278858   4.231   5.331   3.725  0.0196  0.5043 -0.6420
19148TIP3    H178859   4.311   5.304   3.769  0.2536  1.3441 -0.5342
19148TIP3    H278860   4.164   5.330   3.795  0.0191  0.1957 -0.6448
19149TIP3   OH278861   5.114   4.059  16.095 -0.2394 -0.5473  0.4132
19149TIP3    H178862   5.077   4.093  16.014  1.0636 -1.9989 -0.8513
19149TIP3    H278863   5.196   4.106  16.106 -0.5577 -0.1235  1.1108
19150TIP3   OH278864   3.574   4.233   2.456  0.2265  0.3675  0.4826
19150TIP3    H178865   3.508   4.172   2.422  0.3619  0.0982  0.6981
19150TIP3    H278866   3.524   4.299   2.504  0.2127 -0.6735  1.9476
19151TIP3   OH278867   6.524   4.213   1.903 -0.1420 -0.3127 -0.3224
19151TIP3    H178868   6.584   4.221   1.829  0.0237 -0.8524 -0.2505
19151TIP3    H278869   6.440   4.189   1.863  0.2595 -1.9495 -0.2515
19152TIP3   OH278870   4.752   5.489   4.837 -0.6646 -0.0638  0.3802
19152TIP3    H178871   4.688   5.421   4.813 -2.1339  1.4086 -0.0217
19152TIP3    H278872   4.836   5.456   4.804 -1.6250 -0.8833 -1.3532
19153TIP3   OH278873   1.010   5.421   4.071 -0.1587 -0.2861  0.0144
19153TIP3    H178874   1.046   5.494   4.021 -1.2448  1.1038  1.1666
19153TIP3    H278875   1.086   5.367   4.093  0.4694 -0.3411 -2.1199
19154TIP3   OH278876   1.070   2.505  15.956 -0.3051  0.0137 -0.2577
19154TIP3    H178877   0.994   2.564  15.954 -0.0949  0.2862 -0.1667
19154TIP3    H278878   1.032   2.418  15.962 -0.5882  0.2162  1.0243
19155TIP3   OH278879   4.176   2.609  12.001 -0.9320 -0.0756 -0.1003
19155TIP3    H178880   4.087   2.594  11.970 -1.5122  2.4588  0.1516
19155TIP3    H278881   4.225   2.633  11.922 -1.0709  0.8702  0.0880
19156TIP3   OH278882   1.395   1.186   3.735  0.4050  0.5477 -0.3316
19156TIP3    H178883   1.405   1.231   3.651  2.8737  0.1908 -0.3080
19156TIP3    H278884   1.319   1.129   3.723  1.3325 -0.3187 -2.7397
19157TIP3   OH278885   4.195   4.449  13.252 -0.1415 -0.3971  0.1719
19157TIP3    H178886   4.184   4.365  13.297  0.2592 -0.8252 -0.5188
19157TIP3    H278887   4.252   4.429  13.178 -0.6661  0.3373 -0.4346
19158TIP3   OH278888   0.876   6.227  11.658 -0.8997 -0.8233  0.0744
19158TIP3    H178889   0.967   6.257  11.657 -0.8427 -0.9736 -1.1384
19158TIP3    H278890   0.849   6.235  11.749  0.3018 -0.6942  0.4390
19159TIP3   OH278891   4.397   6.609  15.684  0.4819 -0.2670  0.5756
19159TIP3    H178892   4.355   6.647  15.761 -3.6467 -0.7031 -1.2109
19159TIP3    H278893   4.353   6.651  15.610  3.5415 -0.6398 -1.6312
19160TIP3   OH278894   4.478   2.429  10.981  0.4344 -0.0470  0.5704
19160TIP3    H178895   4.448   2.340  10.962 -1.1897  0.3133  1.2594
19160TIP3    H278896   4.430   2.454  11.060 -0.9001  2.2606 -0.8405
19161TIP3   OH278897   4.583   2.250  16.830 -0.0808  0.2306 -0.5571
19161TIP3    H178898   4.533   2.208  16.759 -0.3473  0.6130 -0.5946
19161TIP3    H278899   4.517   2.286  16.888  0.1504  0.9947 -0.7609
19162TIP3   OH278900   4.647   3.560  15.852  1.2776 -0.4172  0.0516
19162TIP3    H178901   4.707   3.592  15.919  0.2856  0.0893  0.7123
19162TIP3    H278902   4.671   3.610  15.773  2.1841 -0.7353  0.1148
19163TIP3   OH278903   6.250   2.257  12.884 -0.4848  0.7019  0.6787
19163TIP3    H178904   6.295   2.271  12.800  3.1282  0.7247  2.4073
19163TIP3    H278905   6.243   2.345  12.921 -0.4372  0.5092  1.1443
19164TIP3   OH278906   1.203   0.107   3.609 -0.0142 -0.1627  0.4425
19164TIP3    H178907   1.193   0.197   3.577 -1.7296 -0.7283 -0.8157
19164TIP3    H278908   1.290   0.104   3.648 -0.1440  2.1883  1.0310
19165TIP3   OH278909   1.266   3.188  11.469  0.0733  0.4400  0.1512
19165TIP3    H178910   1.254   3.120  11.403  0.4933  0.2659  0.2495
19165TIP3    H278911   1.198   3.253  11.449 -1.0412 -0.5037  0.6983
19166TIP3   OH278912   4.781   1.464  14.435  0.0688 -0.5506 -0.0843
19166TIP3    H178913   4.796   1.383  14.483 -1.8655 -0.3832  0.8797
19166TIP3    H278914   4.721   1.440  14.365  0.8612 -0.2696 -0.8883
19167TIP3   OH278915   6.093   2.125  11.330  0.5159 -0.6212  0.5869
19167TIP3    H178916   6.096   2.211  11.288  0.2173 -0.2870  1.2382
19167TIP3    H278917   6.166   2.077  11.291  0.5069 -0.1689  0.0088
19168TIP3   OH278918   3.773   6.303   3.704 -0.2022 -0.5002  0.6200
19168TIP3    H178919   3.745   6.279   3.616 -0.3017 -1.0985  0.8071
19168TIP3    H278920   3.868   6.312   3.698 -0.3852  1.5535 -0.0246
19169TIP3   OH278921   3.778   4.950   5.346  0.0098  0.0556 -0.0421
19169TIP3    H178922   3.788   4.905   5.429 -1.1269 -1.6760 -0.7942
19169TIP3    H278923   3.868   4.972   5.319  0.3503  1.2548  1.9020
19170TIP3   OH278924   5.046   5.429   1.028  0.6760 -0.5973 -0.3323
19170TIP3    H178925   5.031   5.416   0.934 -0.2774  1.5588 -0.5415
19170TIP3    H278926   5.039   5.524   1.040  0.6859 -0.8416  1.9419
19171TIP3   OH278927   4.434   2.805  16.825 -0.0958 -0.4615 -0.1986
19171TIP3    H178928   4.466   2.851  16.748  0.9424  0.4174  0.7198
19171TIP3    H278929   4.343   2.834  16.833  0.5385  1.5905  0.3908
19172TIP3   OH278930   6.645   2.695  11.540 -0.1878 -0.1405  0.8891
19172TIP3    H178931   6.664   2.692  11.447  2.5078 -1.1235  1.3626
19172TIP3    H278932   6.622   2.786  11.558 -1.8193 -0.1589 -0.8657
19173TIP3   OH278933   2.030   4.532  15.505 -0.3171  0.4731  0.6573
19173TIP3    H178934   2.059   4.605  15.560  0.3726 -0.4178  1.5037
19173TIP3    H278935   2.111   4.493  15.473 -0.5911 -1.0983  1.7913
19174TIP3   OH278936   0.787   5.034   0.409 -0.5008  0.0893  0.1537
19174TIP3    H178937   0.852   4.971   0.378 -1.1946 -1.1186  1.0502
19174TIP3    H278938   0.838   5.100   0.457  0.1547 -0.2452 -0.0754
19175TIP3   OH278939   4.373   1.975  11.500 -0.5341 -0.2906 -0.0138
19175TIP3    H178940   4.294   2.029  11.495 -0.5127 -0.3074 -0.6222
19175TIP3    H278941   4.391   1.967  11.593 -0.0479  1.4523  0.0608
19176TIP3   OH278942   1.543   3.857  14.032  0.1477  1.2919  0.9849
19176TIP3    H178943   1.591   3.938  14.017  0.2855  1.0206 -0.1554
19176TIP3    H278944   1.609   3.796  14.065  0.2667  1.3405  0.8363
19177TIP3   OH278945   4.637   5.865   5.583 -0.5497  0.3756 -0.4751
19177TIP3    H178946   4.650   5.808   5.659 -1.5715 -0.0577 -0.6084
19177TIP3    H278947   4.596   5.943   5.619 -2.4268 -0.4281 -0.7343
19178TIP3   OH278948   4.088   4.070  14.714  0.1874 -0.4983 -0.3375
19178TIP3    H178949   4.030   4.145  14.723  0.6240 -0.3043  1.3107
19178TIP3    H278950   4.128   4.080  14.628  3.1848  3.4151  1.1770
19179TIP3   OH278951   3.621   2.508   2.123 -0.0339  0.0499  0.3129
19179TIP3    H178952   3.643   2.465   2.206 -0.0428 -0.4427  0.0607
19179TIP3    H278953   3.700   2.500   2.070 -1.0835 -2.7030 -1.0122
19180TIP3   OH278954   2.099   2.077   0.738 -0.6204  0.3643  0.1726
19180TIP3    H178955   2.119   2.049   0.648  0.1838 -1.6369  0.9190
19180TIP3    H278956   2.055   2.001   0.777  1.9436 -0.1192  2.4135
19181TIP3   OH278957   4.792   5.431  11.759  0.0113  0.2140  0.0134
19181TIP3    H178958   4.701   5.459  11.744  0.5275  1.6321 -0.7130
19181TIP3    H278959   4.785   5.338  11.780 -1.8601  0.8571  2.8671
19182TIP3   OH278960   1.331   5.562   5.310 -0.1848  0.2822  0.1468
19182TIP3    H178961   1.340   5.507   5.233 -0.9212  0.9686 -0.4437
19182TIP3    H278962   1.420   5.571   5.344  0.1366 -0.0609 -0.5947
19183TIP3   OH278963   1.951   0.064  14.964 -0.1450  0.0743  0.1220
19183TIP3    H178964   1.939   0.053  14.869 -0.6910 -0.9294  0.2909
19183TIP3    H278965   1.862   0.072  14.999 -0.1052 -1.7527  0.7683
19184TIP3   OH278966   0.179   1.546   3.661  0.0375 -0.1799 -0.0501
19184TIP3    H178967   0.169   1.608   3.589 -0.7584  1.1405  1.1340
19184TIP3    H278968   0.232   1.475   3.625 -1.0362  0.0104 -2.1580
19185TIP3   OH278969   2.604   3.551  12.835  0.4355  0.1996  0.7005
19185TIP3    H178970   2.582   3.461  12.859  0.0870  0.0382 -0.1909
19185TIP3    H278971   2.697   3.559  12.857  0.2392 -0.0663  1.6722
19186TIP3   OH278972   4.799   6.360  15.812  0.1570 -0.3903  0.1686
19186TIP3    H178973   4.722   6.316  15.848 -0.0545  1.3701  2.0514
19186TIP3    H278974   4.871   6.300  15.828 -0.4989 -1.1578  0.2976
19187TIP3   OH278975   6.754   0.356  15.976  0.0011 -0.1780 -0.4769
19187TIP3    H178976   6.685   0.360  16.042  0.5232  1.2898  0.0087
19187TIP3    H278977   6.786   0.266  15.980  1.7018  0.4216  3.0587
19188TIP3   OH278978   4.256   1.244  11.865  0.0720 -0.1348  0.9407
19188TIP3    H178979   4.306   1.171  11.831 -0.7337 -0.4031  0.3186
19188TIP3    H278980   4.263   1.312  11.798  0.5341  0.2484  1.3618
19189TIP3   OH278981   1.985   1.584   4.984  0.2465  0.2385  0.1697
19189TIP3    H178982   1.937   1.519   4.932  1.0078  0.0631 -0.3193
19189TIP3    H278983   2.044   1.533   5.038  1.7133  0.5512 -1.0829
19190TIP3   OH278984   3.325   0.086   2.266 -0.3058  0.2199 -0.3021
19190TIP3    H178985   3.324   0.033   2.186 -0.5773 -0.0275 -0.1355
19190TIP3    H278986   3.414   0.080   2.299 -0.5410 -0.8051  0.1674
19191TIP3   OH278987   6.675   0.873  10.994 -0.2630  0.0659  0.2512
19191TIP3    H178988   6.616   0.944  11.023 -1.1778 -0.9970  1.1100
19191TIP3    H278989   6.668   0.807  11.063 -0.6741 -1.5605 -1.2620
19192TIP3   OH278990   1.112   0.781   0.644 -0.0749  0.3494  0.1009
19192TIP3    H178991   1.176   0.757   0.711  0.0066 -0.2501 -0.1808
19192TIP3    H278992   1.078   0.697   0.613  2.3307  0.3522 -3.0137
19193TIP3   OH278993   4.385   4.581  15.450 -0.0348  0.2462 -0.3812
19193TIP3    H178994   4.428   4.648  15.398 -0.8124  1.1397  0.1001
19193TIP3    H278995   4.418   4.595  15.539 -0.1664 -0.0421 -0.2873
19194TIP3   OH278996   5.645   1.114  13.344 -0.0295  0.6543 -0.7399
19194TIP3    H178997   5.730   1.074  13.327  0.5522  0.4507  2.0233
19194TIP3    H278998   5.592   1.093  13.268  1.8429 -0.8265 -1.7195
19195TIP3   OH278999   4.141   6.518   2.165 -0.6679  0.0988 -0.3522
19195TIP3    H179000   4.105   6.506   2.253 -0.2237  0.4494 -0.1201
19195TIP3    H279001   4.144   6.430   2.128 -1.9789  0.0758 -0.4685
19196TIP3   OH279002   6.544   5.377   1.554 -0.0846 -0.0024 -0.5019
19196TIP3    H179003   6.522   5.297   1.601  1.6005 -0.5734 -0.6265
19196TIP3    H279004   6.471   5.436   1.572 -0.5507 -0.9828  0.9797
19197TIP3   OH279005   4.180   4.075  14.080  0.1716 -0.6253  0.2890
19197TIP3    H179006   4.197   4.167  14.097 -0.8173 -0.1958 -0.8456
19197TIP3    H279007   4.107   4.052  14.138  1.0504 -0.9739  1.2704
19198TIP3   OH279008   5.628   5.132   6.125 -0.2047 -0.6038  0.2645
19198TIP3    H179009   5.581   5.117   6.207  1.9269 -0.0642  1.6866
19198TIP3    H279010   5.642   5.227   6.123 -0.3956 -0.5908 -0.8456
19199TIP3   OH279011   6.499   3.828  15.600 -0.4682  0.0485 -0.2022
19199TIP3    H179012   6.416   3.871  15.617 -0.4173 -0.0469  0.2899
19199TIP3    H279013   6.476   3.737  15.579 -0.4026 -0.3586  1.3663
19200TIP3   OH279014   5.044   6.171   2.398 -0.0780  0.1894  0.8742
19200TIP3    H179015   5.009   6.085   2.375 -0.1688  0.3365  0.4499
19200TIP3    H279016   5.103   6.193   2.327  0.8512 -0.0331  1.5626
19201TIP3   OH279017   1.272   0.165   4.076 -0.3425 -0.2014 -0.0624
19201TIP3    H179018   1.252   0.232   4.011 -0.5951 -1.6886 -1.5671
19201TIP3    H279019   1.201   0.102   4.068 -1.0355  0.1310  2.5181
19202TIP3   OH279020   1.349   2.644  13.421 -0.2021  0.3590 -0.1328
19202TIP3    H179021   1.294   2.714  13.386 -0.6349 -0.7755 -1.8433
19202TIP3    H279022   1.420   2.635  13.358 -1.2754 -2.0872 -1.1714
19203TIP3   OH279023   1.847   5.882  13.983 -0.0703 -0.1106 -0.6462
19203TIP3    H179024   1.907   5.810  14.002 -0.9637 -0.7692 -0.2714
19203TIP3    H279025   1.780   5.844  13.926  0.0882  0.7206 -1.4135
19204TIP3   OH279026   5.536   4.424   4.005  0.1188  0.0316  0.0708
19204TIP3    H179027   5.567   4.336   3.982 -1.9083 -0.1246 -2.5264
19204TIP3    H279028   5.595   4.483   3.958 -0.6810 -0.1108 -1.1555
19205TIP3   OH279029   6.495   0.651   6.447  0.2565  0.1654 -0.2672
19205TIP3    H179030   6.488   0.745   6.432 -3.9373 -0.0085 -0.5804
19205TIP3    H279031   6.499   0.612   6.360 -0.2317 -0.0006 -0.2199
19206TIP3   OH279032   3.351   5.174   5.287 -0.0515 -0.5764 -0.3350
19206TIP3    H179033   3.431   5.155   5.337  0.1296  0.7523 -0.0788
19206TIP3    H279034   3.370   5.258   5.244 -1.1743 -0.4381 -0.5777
19207TIP3   OH279035   4.187   6.293   0.147  0.3391 -0.2764 -0.3670
19207TIP3    H179036   4.245   6.287   0.223 -1.6371 -1.4659  1.1428
19207TIP3    H279037   4.100   6.278   0.183 -0.6763 -0.7457 -2.8695
19208TIP3   OH279038   3.159   0.319  10.923 -0.1211 -0.4625  0.1889
19208TIP3    H179039   3.156   0.329  11.018 -0.4919  2.6169 -0.0594
19208TIP3    H279040   3.235   0.370  10.896 -1.8535  1.3981 -1.3803
19209TIP3   OH279041   2.856   3.024  13.188 -0.1184 -0.4215 -0.1898
19209TIP3    H179042   2.872   2.970  13.111  0.6398 -1.7077  0.8241
19209TIP3    H279043   2.778   2.986  13.228 -1.4093  1.1740 -1.0901
19210TIP3   OH279044   1.306   1.050   0.163 -0.1841  0.3488  0.3818
19210TIP3    H179045   1.391   1.032   0.122 -0.4292 -0.4631  0.2151
19210TIP3    H279046   1.304   1.145   0.173  0.4063  0.4489 -0.3613
19211TIP3   OH279047   4.320   4.048  12.490 -0.5781  0.0940  0.1722
19211TIP3    H179048   4.392   4.081  12.437 -0.4314  2.8432  1.8473
19211TIP3    H279049   4.362   4.007  12.565 -0.7680 -0.2750  0.0768
19212TIP3   OH279050   6.076   3.771  10.697 -0.5657  0.4865  0.6869
19212TIP3    H179051   6.019   3.786  10.622  0.3600 -0.6789 -0.2724
19212TIP3    H279052   6.141   3.841  10.692 -0.6496  0.5547  0.5480
19213TIP3   OH279053   1.662   0.093  11.915  0.2856 -0.3753 -0.5716
19213TIP3    H179054   1.697   0.073  11.829 -0.2502  0.1586 -0.9189
19213TIP3    H279055   1.567   0.081  11.906  0.0793  1.0189 -0.4479
19214TIP3   OH279056   2.292   5.380   0.029  0.0036  0.0024 -0.0015
19214TIP3    H179057   2.250   5.342  -0.048  0.6123 -0.5426 -0.0836
19214TIP3    H279058   2.223   5.429   0.073 -1.5668 -3.1474  1.4204
19215TIP3   OH279059   1.912   4.167   4.809 -0.0626  0.4071  0.1412
19215TIP3    H179060   1.886   4.259   4.819 -0.9554  0.4738 -2.2436
19215TIP3    H279061   2.007   4.169   4.817 -0.0712  1.5293  0.2382
19216TIP3   OH279062   6.386   0.617   2.051 -0.0889  0.1593  0.2791
19216TIP3    H179063   6.381   0.701   2.097 -1.2057  0.0948  0.2965
19216TIP3    H279064   6.407   0.641   1.961 -1.6240  0.5747 -0.0020
19217TIP3   OH279065   0.692   1.244  11.283  0.3749  0.0713 -0.1141
19217TIP3    H179066   0.682   1.338  11.266 -0.3978  0.0321  0.0772
19217TIP3    H279067   0.732   1.239  11.369 -1.5818  0.2375  0.8720
19218TIP3   OH279068   2.665   1.772   0.706  0.7138 -0.1230 -0.8045
19218TIP3    H179069   2.603   1.728   0.764  1.3808  0.9640  0.8166
19218TIP3    H279070   2.740   1.712   0.702  0.6097 -0.2654 -0.6290
19219TIP3   OH279071   0.254   3.517   1.935  0.2640 -0.6683  0.2037
19219TIP3    H179072   0.322   3.456   1.906 -0.1636 -0.0600 -2.3123
19219TIP3    H279073   0.172   3.477   1.906 -0.0214  1.0436 -1.5660
19220TIP3   OH279074   5.356   2.490  13.932 -1.0047 -0.4178 -0.6378
19220TIP3    H179075   5.330   2.582  13.930  0.1004 -0.0821 -0.0912
19220TIP3    H279076   5.274   2.443  13.949 -1.7666  0.3618 -1.9568
19221TIP3   OH279077   2.144   5.813  11.691 -0.0082 -0.5784 -0.1562
19221TIP3    H179078   2.062   5.799  11.644 -0.3882  0.3754  0.1875
19221TIP3    H279079   2.212   5.807  11.624 -0.3429 -1.4796 -0.4270
19222TIP3   OH279080   5.403   1.791   4.426 -0.0584 -0.0001 -0.3344
19222TIP3    H179081   5.385   1.714   4.479  1.0370  0.4466  0.7199
19222TIP3    H279082   5.499   1.797   4.423 -0.1160  1.4669 -0.1645
19223TIP3   OH279083   1.660   6.501   4.087 -0.3570  0.3375 -0.0836
19223TIP3    H179084   1.609   6.513   4.007 -0.9289 -0.5617  0.1244
19223TIP3    H279085   1.643   6.579   4.139  0.0228  0.9345 -0.8224
19224TIP3   OH279086   1.799   1.953  15.209 -0.4686 -0.2972 -0.0757
19224TIP3    H179087   1.803   2.005  15.289 -0.1693  0.2417 -0.4404
19224TIP3    H279088   1.890   1.930  15.191  0.0277  2.9089 -2.4213
19225TIP3   OH279089   0.738   0.066  10.498 -0.2376  0.3511 -0.0854
19225TIP3    H179090   0.818   0.071  10.446 -0.3713  0.4988 -0.2805
19225TIP3    H279091   0.736   0.147  10.549  1.1532 -0.8515  2.0355
19226TIP3   OH279092   5.045   1.990   2.626 -0.7747 -0.0163  0.4263
19226TIP3    H179093   5.000   2.038   2.696 -0.2031 -0.9515  1.4763
19226TIP3    H279094   5.132   1.973   2.662 -0.7630 -1.2840 -0.1589
19227TIP3   OH279095   4.076   2.531   4.293 -0.4655  0.5791  0.3247
19227TIP3    H179096   4.135   2.601   4.265  0.2359 -0.5207 -1.1064
19227TIP3    H279097   4.131   2.474   4.348 -0.2250 -0.3079 -0.7957
19228TIP3   OH279098   5.093   5.300   4.022 -0.4531  0.0496  0.2355
19228TIP3    H179099   5.098   5.325   3.929 -2.2597  1.5533  0.4801
19228TIP3    H279100   5.184   5.287   4.048  0.0579 -1.3996 -1.9773
19229TIP3   OH279101   3.736   2.192  14.391 -0.5134 -0.4154 -0.3491
19229TIP3    H179102   3.758   2.238  14.310 -0.1876 -0.6124 -0.3738
19229TIP3    H279103   3.732   2.261  14.457  0.7327 -0.4368 -0.2366
19230TIP3   OH279104   2.680   3.210   5.311  0.4593  0.2997  0.5877
19230TIP3    H179105   2.683   3.235   5.403  1.0282 -1.8280  1.1915
19230TIP3    H279106   2.691   3.115   5.311 -3.3551 -0.3467 -1.4145
19231TIP3   OH279107   1.742   4.100  11.414  0.3755 -0.1157 -0.2669
19231TIP3    H179108   1.723   4.134  11.502 -0.8672  0.6624 -0.8223
19231TIP3    H279109   1.838   4.102  11.409  0.4765 -0.2376  1.0908
19232TIP3   OH279110   6.095   0.203  11.362  0.2366 -0.0263 -0.2021
19232TIP3    H179111   6.188   0.188  11.379  0.3388  1.7532  1.1840
19232TIP3    H279112   6.090   0.222  11.268  1.1247 -0.9508 -0.4481
19233TIP3   OH279113   5.777   6.435  11.492 -0.2475 -0.6546  0.7681
19233TIP3    H179114   5.728   6.512  11.465  1.0907  0.1046  0.4075
19233TIP3    H279115   5.801   6.392  11.410 -0.6463 -1.2578  0.9562
19234TIP3   OH279116   0.557   4.221  11.431  0.1891  0.1124  0.0790
19234TIP3    H179117   0.534   4.128  11.432 -2.7323  0.7329 -0.1574
19234TIP3    H279118   0.567   4.244  11.523  2.2766 -0.6825  0.0852
19235TIP3   OH279119   0.552   2.680   4.054 -0.1228  0.0912 -0.2627
19235TIP3    H179120   0.491   2.750   4.079  0.3834  0.4310  0.0301
19235TIP3    H279121   0.556   2.624   4.131  1.0358  0.8545  0.2526
19236TIP3   OH279122   5.637   1.853   2.481 -0.0411 -0.0138 -0.3463
19236TIP3    H179123   5.627   1.925   2.419 -2.0508 -0.7590 -0.9624
19236TIP3    H279124   5.724   1.817   2.463  0.2226  1.0741 -1.3222
19237TIP3   OH279125   3.358   3.611   5.485 -0.2486  0.2298  0.0071
19237TIP3    H179126   3.340   3.545   5.417 -0.8964 -0.8404  1.1798
19237TIP3    H279127   3.281   3.609   5.541 -1.0136  3.1504 -0.7632
19238TIP3   OH279128   1.936   3.389   0.105 -0.5662 -0.5534 -0.2679
19238TIP3    H179129   2.015   3.374   0.157 -0.5645  0.5044  0.0621
19238TIP3    H279130   1.923   3.484   0.108 -1.7233 -0.6865 -0.5045
19239TIP3   OH279131   1.594   6.217   1.295  0.2913  0.6372  1.0585
19239TIP3    H179132   1.574   6.293   1.241 -0.7908 -1.3055 -1.4981
19239TIP3    H279133   1.509   6.187   1.326  0.3997 -0.8284  0.0500
19240TIP3   OH279134   3.806   4.738  11.886 -0.5149 -0.1547  0.3262
19240TIP3    H179135   3.892   4.778  11.903 -0.4418  0.5097 -1.4182
19240TIP3    H279136   3.811   4.653  11.929  0.5837  0.3421  1.2461
19241TIP3   OH279137   5.824   0.161   3.514  0.1496 -0.2413  0.5319
19241TIP3    H179138   5.744   0.115   3.490  0.1703 -0.4869  0.9147
19241TIP3    H279139   5.843   0.131   3.603  2.4799 -2.7219 -0.6450
19242TIP3   OH279140   6.393   5.604  11.926  0.3509 -0.2898 -0.1230
19242TIP3    H179141   6.343   5.585  11.846 -1.7507 -0.6367  1.2080
19242TIP3    H279142   6.435   5.689  11.908 -1.5828  0.5575 -0.9490
19243TIP3   OH279143   4.496   1.882  12.729  0.3133 -0.0431 -0.8170
19243TIP3    H179144   4.437   1.920  12.664  0.9423  1.6936 -0.4146
19243TIP3    H279145   4.438   1.835  12.789 -0.5219  0.4100 -1.2536
19244TIP3   OH279146   6.801   5.871   4.665 -0.5191  0.0676  0.2603
19244TIP3    H179147   6.874   5.858   4.726  0.4410  2.3666 -0.3075
19244TIP3    H279148   6.829   5.942   4.608 -1.8021 -1.3324 -2.2815
19245TIP3   OH279149   1.386   3.756  17.073  0.1195  0.5102 -0.3491
19245TIP3    H179150   1.478   3.762  17.097 -0.0660  0.4207  0.4067
19245TIP3    H279151   1.341   3.732  17.154 -0.2759 -2.1041 -1.2588
19246TIP3   OH279152   4.469   3.770  16.485 -0.1036  0.3586 -0.4110
19246TIP3    H179153   4.511   3.735  16.406 -1.0091  1.7193 -1.5432
19246TIP3    H279154   4.542   3.788  16.545  0.4608 -2.4250 -0.1408
19247TIP3   OH279155   2.393   1.190  14.686 -0.1055 -0.6324 -0.1905
19247TIP3    H179156   2.409   1.112  14.739 -0.4996 -0.2490  0.5252
19247TIP3    H279157   2.331   1.241  14.739 -0.7251 -0.3628 -1.1574
19248TIP3   OH279158   5.440   2.260  12.144 -0.0045  0.0563 -0.1031
19248TIP3    H179159   5.366   2.205  12.169  0.0416  0.8042  1.8428
19248TIP3    H279160   5.400   2.332  12.096 -0.3355 -0.4256 -0.5640
19249TIP3   OH279161   3.691   5.156  15.462  0.4479 -0.0010 -0.5641
19249TIP3    H179162   3.743   5.232  15.486 -0.7636  0.9226 -0.7422
19249TIP3    H279163   3.608   5.193  15.430 -0.5964 -1.4175  0.3734
19250TIP3   OH279164   2.923   4.734  11.812  0.6437  0.0071  0.3030
19250TIP3    H179165   2.862   4.678  11.861  1.3184 -0.8262  0.2306
19250TIP3    H279166   2.932   4.690  11.727 -0.1059  1.1513 -0.3888
19251TIP3   OH279167   4.168   5.401   1.037 -0.1945 -0.4057 -0.1005
19251TIP3    H179168   4.262   5.417   1.039 -0.0659 -0.7965 -1.5368
19251TIP3    H279169   4.130   5.472   1.089  1.0092 -1.5532  2.5108
19252TIP3   OH279170   4.117   4.851   3.526 -0.2237 -0.3377 -0.2055
19252TIP3    H179171   4.101   4.937   3.488 -0.5509  0.2466  1.2114
19252TIP3    H279172   4.033   4.806   3.522 -0.6226  0.2597  1.1184
19253TIP3   OH279173   2.803   6.276  15.782  0.7158  0.4250 -0.0642
19253TIP3    H179174   2.766   6.238  15.862 -1.4442  0.1827 -1.1032
19253TIP3    H279175   2.727   6.302  15.731  1.9969 -0.3602 -2.5297
19254TIP3   OH279176   4.635   5.800  13.818 -0.2799  0.2161  0.0553
19254TIP3    H179177   4.569   5.802  13.749 -0.0712  0.6838 -0.1359
19254TIP3    H279178   4.590   5.764  13.894 -1.0226  1.4515  0.2171
19255TIP3   OH279179   4.576   1.363   4.484 -0.2938 -0.0900 -0.3373
19255TIP3    H179180   4.603   1.278   4.449  0.9257 -0.0879  0.5646
19255TIP3    H279181   4.647   1.423   4.462 -0.6988  0.4916 -0.1071
19256TIP3   OH279182   1.203   1.801  11.845 -0.7827 -0.0466  0.1319
19256TIP3    H179183   1.263   1.766  11.778 -0.9522 -1.3310  0.6156
19256TIP3    H279184   1.116   1.781  11.812 -0.8638 -0.8785  0.8146
19257TIP3   OH279185   3.809   2.216  13.124  0.1807  0.1395 -0.2527
19257TIP3    H179186   3.793   2.150  13.057 -1.8539  0.3131  0.0043
19257TIP3    H279187   3.896   2.194  13.158 -0.4952 -2.6069 -0.0002
19258TIP3   OH279188   3.668   5.678  17.063 -0.3704  0.6113  0.4386
19258TIP3    H179189   3.699   5.657  16.975  1.1584 -0.0026  1.0663
19258TIP3    H279190   3.699   5.604  17.116 -0.9902  1.1220  1.5360
19259TIP3   OH279191   1.851   1.180  16.149  0.4556 -0.1413  0.2084
19259TIP3    H179192   1.859   1.228  16.231 -0.0311 -0.4488  0.4449
19259TIP3    H279193   1.916   1.218  16.091  0.5907  0.2853  0.6425
19260TIP3   OH279194   0.626   0.809   1.782  0.3429  0.7060  1.0637
19260TIP3    H179195   0.680   0.734   1.807 -0.5538 -1.6475 -3.1513
19260TIP3    H279196   0.672   0.885   1.817  3.3969 -1.5224  2.2908
19261TIP3   OH279197   3.110   6.606  15.662  0.1002  0.3632  0.2769
19261TIP3    H179198   3.133   6.527  15.612 -1.1174  0.5833 -0.6639
19261TIP3    H279199   3.163   6.599  15.742 -1.3968 -2.4287  1.1501
19262TIP3   OH279200   1.067   2.731   3.930 -0.3166  0.1078 -0.2856
19262TIP3    H179201   0.994   2.678   3.961 -1.2391  0.7987 -1.2451
19262TIP3    H279202   1.144   2.694   3.975 -1.4666  0.6662  2.3266
19263TIP3   OH279203   0.150   3.408  11.535 -0.4101  0.3916 -0.3149
19263TIP3    H179204   0.160   3.313  11.532  1.2970  0.5568 -0.6197
19263TIP3    H279205   0.082   3.423  11.601  0.1402 -0.9956  0.6134
19264TIP3   OH279206   5.147   4.504  15.193  0.1799 -0.1218 -0.0590
19264TIP3    H179207   5.073   4.478  15.248 -1.1856  0.7904 -1.3843
19264TIP3    H279208   5.224   4.467  15.237 -1.0352 -0.9910  1.4311
19265TIP3   OH279209   3.472   2.882  12.362  0.4752 -0.4375 -0.1849
19265TIP3    H179210   3.523   2.817  12.314 -0.2870  0.5771 -2.5517
19265TIP3    H279211   3.389   2.887  12.314 -1.4242 -1.0850  2.7317
19266TIP3   OH279212   0.841   6.726   0.852 -0.3502 -0.3054 -0.2097
19266TIP3    H179213   0.909   6.767   0.799 -0.5730 -0.6441 -0.7664
19266TIP3    H279214   0.827   6.787   0.925  1.0250 -0.5535  0.2929
19267TIP3   OH279215   5.406   6.449  13.092  0.1266 -0.1658  0.1489
19267TIP3    H179216   5.383   6.384  13.026 -0.8176  0.3425 -0.0364
19267TIP3    H279217   5.323   6.484  13.122  0.6032  0.6585  0.5562
19268TIP3   OH279218   3.485   6.809  13.418  0.0918  0.1596  0.0098
19268TIP3    H179219   3.508   6.716  13.418 -1.7712 -0.3796  1.8688
19268TIP3    H279220   3.509   6.839  13.330 -0.6807 -2.4586 -1.2213
19269TIP3   OH279221   1.124   2.505  13.623  0.6891  0.1114 -0.5419
19269TIP3    H179222   1.132   2.575  13.687 -2.3535 -0.5199  0.7146
19269TIP3    H279223   1.166   2.540  13.544  1.8665  2.1268  0.8886
19270TIP3   OH279224   0.249   1.409   2.000  0.5688 -0.0591  0.3563
19270TIP3    H179225   0.157   1.427   1.980  0.5133 -2.3162 -1.9703
19270TIP3    H279226   0.297   1.435   1.921  1.5427 -1.3474  0.4749
19271TIP3   OH279227   2.310   5.433   4.161  1.0499 -0.8208 -0.9097
19271TIP3    H179228   2.321   5.436   4.066  0.6781  0.5841 -0.9360
19271TIP3    H279229   2.293   5.524   4.186 -0.0283 -1.3352  0.3635
19272TIP3   OH279230   1.885   1.843  11.052 -0.5170 -0.0968  0.1099
19272TIP3    H179231   1.942   1.790  11.108 -0.4962 -0.9550 -0.7031
19272TIP3    H279232   1.928   1.842  10.966 -0.3207  1.5586  0.1468
19273TIP3   OH279233   6.300   5.017   3.827  0.0260  0.1361  0.1045
19273TIP3    H179234   6.303   4.942   3.886  0.0402  0.5033  0.5818
19273TIP3    H279235   6.392   5.045   3.820  0.0174  0.1232 -0.0473
19274TIP3   OH279236   5.786   1.831   0.686 -0.4093  0.2557 -0.9765
19274TIP3    H179237   5.773   1.750   0.636  0.2550 -0.3491 -0.1846
19274TIP3    H279238   5.869   1.866   0.654  0.1519 -0.2723 -0.1255
19275TIP3   OH279239   3.608   6.416   2.552 -0.5816  0.3630  0.2188
19275TIP3    H179240   3.559   6.482   2.601 -2.6595 -0.0509 -1.1808
19275TIP3    H279241   3.572   6.420   2.463  1.9616  0.0093 -0.9325
19276TIP3   OH279242   3.233   2.678   3.017 -0.0119  0.0754  1.0058
19276TIP3    H179243   3.151   2.667   2.970  0.2448  0.7492  0.3809
19276TIP3    H279244   3.225   2.762   3.062  0.7745  0.7348 -0.0240
19277TIP3   OH279245   5.881   2.829   5.123  0.1287  0.0320  0.4470
19277TIP3    H179246   5.972   2.843   5.097 -0.4493  0.3418 -1.6418
19277TIP3    H279247   5.884   2.813   5.217  2.3925 -0.5476  0.3202
19278TIP3   OH279248   3.065   4.891   4.111  0.2506  0.3411  0.2020
19278TIP3    H179249   3.091   4.957   4.176 -0.3867  1.1910 -0.3792
19278TIP3    H279250   3.148   4.854   4.080  0.6214  0.8571  0.5611
19279TIP3   OH279251   5.368   5.290  13.013  0.4082 -0.1882 -0.3656
19279TIP3    H179252   5.289   5.310  13.063  1.4324 -2.7798  2.6570
19279TIP3    H279253   5.336   5.273  12.924 -2.0059  1.4750  0.0774
19280TIP3   OH279254   4.148   6.597   5.956 -0.2484  0.1653 -0.0230
19280TIP3    H179255   4.115   6.675   5.912  3.9940  1.1250 -2.0597
19280TIP3    H279256   4.189   6.630   6.036 -0.9031 -0.4233  0.5672
19281TIP3   OH279257   1.804   4.151   0.871 -0.2492  0.4562  0.1571
19281TIP3    H179258   1.858   4.225   0.844  0.8145 -1.2938 -2.9914
19281TIP3    H279259   1.842   4.122   0.954  2.1341  0.7918 -0.7416
19282TIP3   OH279260   3.014   3.439  15.161 -0.8312  0.4691 -0.1710
19282TIP3    H179261   2.934   3.387  15.163 -0.7921  0.2472 -2.3158
19282TIP3    H279262   2.984   3.528  15.139 -0.4330  0.0745 -2.5825
19283TIP3   OH279263   4.747   5.447   6.569 -0.4486 -0.0493 -0.0048
19283TIP3    H179264   4.830   5.488   6.547  1.6020 -2.2455  2.8492
19283TIP3    H279265   4.758   5.355   6.545 -2.4084 -0.2463 -0.3374
19284TIP3   OH279266   4.117   2.060  11.454  0.1290  0.1171 -0.3533
19284TIP3    H179267   4.070   2.123  11.509  0.9464  0.5451 -0.1187
19284TIP3    H279268   4.051   2.026  11.394 -0.7796 -0.3376  0.8632
19285TIP3   OH279269   5.946   1.742   4.507  0.4724 -0.3906  0.3002
19285TIP3    H179270   6.029   1.774   4.472  1.0315  1.0180  2.7010
19285TIP3    H279271   5.970   1.664   4.558  0.0581 -0.9212 -0.3014
19286TIP3   OH279272   6.397   5.714   2.060  0.7650 -0.0862  0.1821
19286TIP3    H179273   6.368   5.641   2.005  0.7104  0.6667 -0.8264
19286TIP3    H279274   6.319   5.741   2.107  0.0726  1.0571 -1.5046
19287TIP3   OH279275   3.128   0.341   1.346 -0.3110 -0.1558  0.3685
19287TIP3    H179276   3.122   0.258   1.392 -0.7175 -0.2955  0.0680
19287TIP3    H279277   3.043   0.383   1.360 -0.2471  0.0340  0.1936
19288TIP3   OH279278   2.426   4.540  10.744 -0.2052 -0.6804 -0.7885
19288TIP3    H179279   2.345   4.589  10.733 -1.0426 -1.7587  0.2769
19288TIP3    H279280   2.481   4.567  10.671 -0.7509  1.5647 -0.4356
19289TIP3   OH279281   2.319   6.173  11.232  0.2888 -0.1285 -0.0553
19289TIP3    H179282   2.318   6.123  11.150  0.1112  2.2273 -1.6136
19289TIP3    H279283   2.230   6.207  11.240  0.0286 -1.1229  1.7106
19290TIP3   OH279284   5.979   5.666   1.124 -0.6024 -0.2266 -0.3165
19290TIP3    H179285   6.005   5.574   1.117 -1.6009 -0.5538  0.1743
19290TIP3    H279286   5.887   5.667   1.096 -0.9516  0.4229  0.7842
19291TIP3   OH279287   3.915   3.950   6.778 -0.1325 -0.0561 -0.0798
19291TIP3    H179288   3.881   4.038   6.760 -1.1666 -0.5769 -0.7829
19291TIP3    H279289   3.975   3.932   6.705  0.7194  0.3729  0.4996
19292TIP3   OH279290   6.203   6.441   0.553 -0.4461  0.7903  0.5827
19292TIP3    H179291   6.271   6.428   0.619 -0.5659  1.3622  0.8222
19292TIP3    H279292   6.143   6.368   0.566  0.3435  0.0205  0.0741
19293TIP3   OH279293   4.699   0.890  11.081  0.7721 -0.4076  0.3590
19293TIP3    H179294   4.674   0.942  11.005  0.1467 -0.0946  0.7613
19293TIP3    H279295   4.765   0.828  11.048 -0.7971 -1.5256 -0.8694
19294TIP3   OH279296   3.798   0.625  14.154 -0.0245  0.7458  0.6238
19294TIP3    H179297   3.864   0.687  14.185  1.9256 -0.5478 -0.6794
19294TIP3    H279298   3.849   0.550  14.123 -2.1964 -0.8159  0.6135
19295TIP3   OH279299   5.642   5.991  15.215 -0.2488 -0.6035  0.1131
19295TIP3    H179300   5.709   5.925  15.196  0.8820  0.3959  0.4864
19295TIP3    H279301   5.619   6.027  15.130 -1.3802 -1.9214 -0.1711
19296TIP3   OH279302   4.717   3.092   3.767 -0.1407  0.2069  0.1454
19296TIP3    H179303   4.636   3.051   3.739 -0.3877 -0.6920  2.0154
19296TIP3    H279304   4.777   3.079   3.694 -1.8995  1.7627 -1.6897
19297TIP3   OH279305   1.113   6.662   5.783  0.2077 -0.1878 -0.0122
19297TIP3    H179306   1.133   6.755   5.795 -1.3208  0.0962  0.6624
19297TIP3    H279307   1.049   6.660   5.712  2.4920 -1.0656 -2.1994
19298TIP3   OH279308   6.275   5.514   2.848  0.0918 -0.2983  0.2601
19298TIP3    H179309   6.351   5.473   2.807  1.2090  1.8623  0.0338
19298TIP3    H279310   6.281   5.488   2.940  1.1650 -0.0768  0.2653
19299TIP3   OH279311   4.553   1.070   5.706 -0.2798  0.5943 -0.6906
19299TIP3    H179312   4.586   0.981   5.695 -0.7804  0.1478  1.1020
19299TIP3    H279313   4.627   1.126   5.683  0.7389 -0.3355  0.1697
19300TIP3   OH279314   3.795   0.249  14.319  0.4127 -0.2604 -0.1177
19300TIP3    H179315   3.810   0.266  14.226  1.0576  2.9384  0.4448
19300TIP3    H279316   3.879   0.215  14.351  0.2564 -1.1567 -0.6337
19301TIP3   OH279317   0.417   6.657   3.511 -0.7662 -0.2733  0.2845
19301TIP3    H179318   0.494   6.612   3.548 -0.3244 -0.1337 -0.4426
19301TIP3    H279319   0.450   6.698   3.431 -1.8251 -1.0369 -0.5723
19302TIP3   OH279320   1.809   3.407  11.213  0.1065 -0.1284 -0.5235
19302TIP3    H179321   1.898   3.439  11.201  0.2352 -0.1787  0.2359
19302TIP3    H279322   1.805   3.328  11.159  0.9020 -0.7872  0.3500
19303TIP3   OH279323   4.741   1.115   3.935 -0.0760 -0.2463 -0.6479
19303TIP3    H179324   4.683   1.191   3.933 -1.4469 -1.2839 -1.5492
19303TIP3    H279325   4.765   1.101   3.843  0.7703 -0.4640 -0.3992
19304TIP3   OH279326   0.195   6.263  11.672 -0.3676 -0.1200 -0.1307
19304TIP3    H179327   0.100   6.271  11.668 -0.4329 -1.3220 -1.7270
19304TIP3    H279328   0.226   6.353  11.687 -1.6944  0.4790 -0.8226
19305TIP3   OH279329   5.132   4.624   1.877  0.2660  0.2100  0.1356
19305TIP3    H179330   5.040   4.616   1.902 -0.0578 -0.5246 -1.2132
19305TIP3    H279331   5.130   4.684   1.802  0.8629 -0.0340 -0.0730
19306TIP3   OH279332   5.653   5.819   2.370 -0.2114  0.4547 -0.0442
19306TIP3    H179333   5.594   5.893   2.388 -1.2989 -0.3537 -0.1255
19306TIP3    H279334   5.668   5.779   2.456 -1.6426 -0.6650 -0.2743
19307TIP3   OH279335   0.080   4.153  15.415  0.0300 -0.0913  0.3873
19307TIP3    H179336   0.066   4.128  15.506 -1.7842 -0.3013  0.0920
19307TIP3    H279337   0.137   4.229  15.419 -0.7779  0.4746  1.7743
19308TIP3   OH279338   6.579   4.633  16.868  0.0542  0.0800 -0.2999
19308TIP3    H179339   6.642   4.685  16.819 -1.3158  0.1379 -2.0686
19308TIP3    H279340   6.597   4.543  16.842  1.3242 -0.2506  1.4969
19309TIP3   OH279341   2.553   2.326   0.883 -0.4590  0.5259  0.5742
19309TIP3    H179342   2.633   2.358   0.840 -0.0122 -0.3408  0.7311
19309TIP3    H279343   2.514   2.267   0.819 -1.3509  1.4513  0.2325
19310TIP3   OH279344   5.960   5.597   5.891  0.5660  0.0360  0.6111
19310TIP3    H179345   5.920   5.656   5.828  1.5827  0.2668  0.1589
19310TIP3    H279346   5.978   5.652   5.968  1.5669  0.3498  0.1681
19311TIP3   OH279347   4.542   5.530  11.771 -0.0225  0.1580 -0.2734
19311TIP3    H179348   4.521   5.580  11.850 -0.8145 -1.0709  0.3154
19311TIP3    H279349   4.489   5.571  11.702  0.6710  1.2341 -0.1848
19312TIP3   OH279350   6.406   6.132  12.230  0.2648  0.4542 -0.0894
19312TIP3    H179351   6.399   6.178  12.147 -0.3277 -0.6133 -0.6463
19312TIP3    H279352   6.367   6.046  12.214 -2.7540  1.2386  2.0941
19313TIP3   OH279353   3.104   3.438   0.555 -0.3282 -0.0535  0.3039
19313TIP3    H179354   3.179   3.411   0.501 -0.5449 -2.1789  0.9410
19313TIP3    H279355   3.075   3.521   0.518  0.8346 -0.4046 -1.4920
19314TIP3   OH279356   3.865   6.627  13.614 -0.2359  0.2976  0.4445
19314TIP3    H179357   3.804   6.697  13.594 -0.2668  0.3930  0.8751
19314TIP3    H279358   3.811   6.558  13.653  0.1379  0.9539  2.1812
19315TIP3   OH279359   2.026   1.206   5.372  0.0894  0.2749  0.8935
19315TIP3    H179360   2.095   1.143   5.351 -1.0925 -1.3035  1.5622
19315TIP3    H279361   2.073   1.285   5.400  1.6242  0.1998 -1.2099
19316TIP3   OH279362   4.450   6.077  13.103 -0.2637 -0.4952  0.6302
19316TIP3    H179363   4.536   6.105  13.132 -0.1467  0.4287 -0.5306
19316TIP3    H279364   4.417   6.022  13.174  0.9949 -0.3136  1.3781
19317TIP3   OH279365   3.245   3.831  15.927 -0.6408  0.2698 -0.1323
19317TIP3    H179366   3.239   3.842  15.832  0.8851  0.9950 -0.1801
19317TIP3    H279367   3.240   3.920  15.962  0.2447  0.1380  0.3600
19318TIP3   OH279368   2.414   6.467  16.621 -0.0083 -0.0040  0.4614
19318TIP3    H179369   2.357   6.417  16.680 -0.0977 -0.5240 -0.0538
19318TIP3    H279370   2.468   6.519  16.679  2.2689 -2.9685  1.2571
19319TIP3   OH279371   3.592   2.876   2.486 -0.1025  0.3660  0.0013
19319TIP3    H179372   3.605   2.926   2.567  1.2108  0.0278  0.0249
19319TIP3    H279373   3.545   2.797   2.513  2.0033 -0.6855  0.8148
19320TIP3   OH279374   0.257   2.785   5.725  0.2871 -0.5553 -0.0703
19320TIP3    H179375   0.302   2.867   5.705  1.7710 -1.3578 -0.1233
19320TIP3    H279376   0.222   2.797   5.813 -1.2260  0.8396 -0.8180
19321TIP3   OH279377   3.459   1.259   1.230 -0.0647  0.3842  0.3645
19321TIP3    H179378   3.417   1.288   1.149  1.5298 -0.0887 -0.6778
19321TIP3    H279379   3.488   1.170   1.211 -2.7636 -1.1550  2.6951
19322TIP3   OH279380   0.324   5.803  16.511  0.0009  0.5049 -0.4265
19322TIP3    H179381   0.311   5.898  16.509 -2.4411  0.2626 -3.1396
19322TIP3    H279382   0.241   5.767  16.479  1.4136 -2.4734 -1.0812
19323TIP3   OH279383   1.071   3.367  11.442  0.0916  0.5754 -0.3131
19323TIP3    H179384   1.106   3.455  11.447 -0.2765  0.7678 -0.9585
19323TIP3    H279385   0.992   3.369  11.497 -0.7874  1.0982 -1.5420
19324TIP3   OH279386   4.062   6.610  13.072 -0.3246 -0.7786  0.2594
19324TIP3    H179387   4.057   6.521  13.106  0.4642 -0.3781  1.4673
19324TIP3    H279388   4.040   6.601  12.979  1.6292 -2.5230 -0.0890
19325TIP3   OH279389   3.829   3.794   4.518  0.4430  0.3629 -0.4150
19325TIP3    H179390   3.913   3.805   4.563  0.5357  0.6678 -0.6565
19325TIP3    H279391   3.768   3.848   4.569  0.4487  0.3383 -0.3825
19326TIP3   OH279392   2.154   2.660  13.631  0.3334 -0.2335  0.6338
19326TIP3    H179393   2.102   2.641  13.709  1.0024 -0.9909  0.9100
19326TIP3    H279394   2.093   2.646  13.558 -0.2011  0.1490  0.9990
19327TIP3   OH279395   5.279   6.056   0.102  0.0804  0.5871  0.2556
19327TIP3    H179396   5.293   6.042   0.008  0.1027 -0.1934  0.3703
19327TIP3    H279397   5.194   6.017   0.119  1.0974 -1.3937  1.0071
19328TIP3   OH279398   1.684   4.565   0.522 -0.0128  0.0329 -0.0612
19328TIP3    H179399   1.682   4.544   0.615  1.9838 -2.5098 -0.4930
19328TIP3    H279400   1.775   4.588   0.504 -0.7001  2.2244 -1.1342
19329TIP3   OH279401   4.568   6.738   3.732 -0.0303 -0.5452  0.1355
19329TIP3    H179402   4.498   6.762   3.670  1.0999  1.3067 -0.5199
19329TIP3    H279403   4.543   6.779   3.814  0.7250  0.9947 -0.3640
19330TIP3   OH279404   4.811   3.236  15.113 -0.2463  0.4035  0.3203
19330TIP3    H179405   4.789   3.287  15.035  1.9344  1.7005  0.4759
19330TIP3    H279406   4.890   3.278  15.148 -0.3716 -0.9831  2.4583
19331TIP3   OH279407   0.071   1.711  13.635 -0.1647 -0.0446  1.0734
19331TIP3    H179408   0.118   1.627  13.633 -1.0689 -0.6391  2.5691
19331TIP3    H279409   0.128   1.769  13.686  0.5766  0.3611 -0.1710
19332TIP3   OH279410   6.057   0.242  13.676 -0.7209 -0.2451  0.1105
19332TIP3    H179411   6.124   0.208  13.618 -0.4523 -0.2428  0.4142
19332TIP3    H279412   6.062   0.337  13.665 -1.9094 -0.3075 -1.2216
19333TIP3   OH279413   5.814   1.775   2.764  0.4224 -0.4811 -0.2936
19333TIP3    H179414   5.890   1.726   2.730  1.8199 -0.1204  2.0858
19333TIP3    H279415   5.799   1.738   2.851  1.1391  2.7540  1.3770
19334TIP3   OH279416   0.267   1.193  14.126 -0.9236 -0.0315 -0.0275
19334TIP3    H179417   0.187   1.141  14.137 -0.4347 -0.8990 -0.4168
19334TIP3    H279418   0.249   1.276  14.170 -1.6631 -0.6072  0.7721
19335TIP3   OH279419   6.500   3.753  16.066  0.5956  0.0127 -0.2652
19335TIP3    H179420   6.564   3.781  16.001  1.1592 -1.6902 -0.4761
19335TIP3    H279421   6.463   3.672  16.031 -1.4251  0.7458  0.0413
19336TIP3   OH279422   2.687   4.573  15.976 -0.0077 -0.6980 -0.3161
19336TIP3    H179423   2.777   4.591  15.947  0.2106 -0.4069  0.5087
19336TIP3    H279424   2.633   4.593  15.900  0.5111  0.3672 -0.4223
19337TIP3   OH279425   1.663   5.995  11.131  0.0212  0.4205 -0.0147
19337TIP3    H179426   1.717   5.986  11.209 -1.3714 -0.6522  0.8814
19337TIP3    H279427   1.712   5.948  11.062  1.8852  2.4788 -0.1859
19338TIP3   OH279428   6.233   3.188  16.313 -0.1830 -0.0485  0.2301
19338TIP3    H179429   6.251   3.156  16.225  1.0564  2.5342 -0.5543
19338TIP3    H279430   6.319   3.197  16.354 -0.4285  2.0806  0.4014
19339TIP3   OH279431   6.005   4.884   5.302  0.0127  0.1223  0.4059
19339TIP3    H179432   6.056   4.807   5.325 -0.4845 -0.5244 -0.5842
19339TIP3    H279433   5.920   4.872   5.346 -0.7838 -0.9058 -1.3134
19340TIP3   OH279434   1.112   4.017  11.627  0.3414  0.0143  0.1452
19340TIP3    H179435   1.041   4.024  11.692 -0.5900 -1.8335 -0.6092
19340TIP3    H279436   1.074   3.968  11.555  1.8032  0.7871 -1.2095
19341TIP3   OH279437   1.379   2.223   6.470 -0.2413  0.2865  0.5490
19341TIP3    H179438   1.418   2.302   6.433  0.3690  1.0425  2.6633
19341TIP3    H279439   1.445   2.154   6.455  0.4504  0.8088  1.1129
19342TIP3   OH279440   2.477   3.457   4.257  0.3451 -0.2903 -0.7423
19342TIP3    H179441   2.489   3.551   4.250  1.6251 -0.2870  0.7206
19342TIP3    H279442   2.554   3.427   4.306  0.1013 -2.1322 -1.3859
19343TIP3   OH279443   5.556   2.076  16.721 -0.3049 -0.0346  0.2008
19343TIP3    H179444   5.625   2.015  16.747  1.0160  1.7872  1.2011
19343TIP3    H279445   5.590   2.119  16.642 -0.3551  0.7688  0.6056
19344TIP3   OH279446   0.776   1.924  16.349  0.3483  0.4674 -0.2725
19344TIP3    H179447   0.695   1.947  16.395 -0.9015 -2.8950 -0.5202
19344TIP3    H279448   0.806   1.844  16.392  4.0262  1.8792  0.2341
19345TIP3   OH279449   0.851   4.004  16.680 -0.4475  0.2491 -0.5448
19345TIP3    H179450   0.920   3.939  16.692 -1.0240 -0.1180  0.9573
19345TIP3    H279451   0.892   4.073  16.628  0.7920 -0.3495 -0.3866
19346TIP3   OH279452   5.397   4.203   2.344  0.1270  0.6703 -0.3348
19346TIP3    H179453   5.349   4.121   2.327  2.0397 -0.5050 -0.3741
19346TIP3    H279454   5.438   4.190   2.429  1.2891  1.1313 -0.7956
19347TIP3   OH279455   4.322   6.180  16.080 -0.3190 -0.3791  0.9428
19347TIP3    H179456   4.292   6.242  16.146 -0.4183 -0.8638  1.3569
19347TIP3    H279457   4.408   6.213  16.053 -1.5072  1.4832 -0.8395
19348TIP3   OH279458   4.087   6.274   2.353  0.6573 -0.2680 -0.6937
19348TIP3    H179459   4.031   6.231   2.288  1.2742 -0.5402 -1.0581
19348TIP3    H279460   4.026   6.309   2.418 -0.0675  1.1299 -2.0715
19349TIP3   OH279461   1.303   2.295   4.345  0.7240  0.6375 -0.1711
19349TIP3    H179462   1.287   2.324   4.255  4.2142 -1.2844 -1.6095
19349TIP3    H279463   1.291   2.200   4.342 -1.9125  0.7565  2.2470
19350TIP3   OH279464   3.735   0.328  10.638 -0.8914  0.2200 -0.0255
19350TIP3    H179465   3.762   0.267  10.570 -1.1837 -0.5197  0.5152
19350TIP3    H279466   3.816   0.372  10.665 -0.6979  0.1432 -0.4739
19351TIP3   OH279467   4.901   6.327  15.406 -0.7119  0.5046  0.7432
19351TIP3    H179468   4.833   6.293  15.348 -0.9833  1.1898  0.6583
19351TIP3    H279469   4.861   6.401  15.450 -0.5002 -0.0020  1.8053
19352TIP3   OH279470   3.803   5.364   2.340  0.1186  0.1737 -0.1479
19352TIP3    H179471   3.885   5.384   2.295  0.1939 -0.2700 -0.2160
19352TIP3    H279472   3.823   5.377   2.433  0.8983 -1.9299  0.0351
19353TIP3   OH279473   1.366   2.143  13.547  0.1155 -0.3414 -0.2123
19353TIP3    H179474   1.285   2.100  13.523  0.7107 -1.9868  0.5761
19353TIP3    H279475   1.435   2.087  13.512  0.9252  0.3732  0.1717
19354TIP3   OH279476   0.496   1.048  17.057  0.6304  0.3676  0.1804
19354TIP3    H179477   0.568   0.996  17.022  1.0737 -1.3760  3.2383
19354TIP3    H279478   0.534   1.134  17.075  1.6866 -0.2061  0.7650
19355TIP3   OH279479   6.406   2.129  10.590 -0.7336  0.4311 -0.0550
19355TIP3    H179480   6.482   2.118  10.533 -0.3442 -2.3109  0.7936
19355TIP3    H279481   6.421   2.211  10.636  1.4618  0.2354 -0.3247
19356TIP3   OH279482   5.193   3.046   4.045 -0.3807 -0.2550 -0.6437
19356TIP3    H179483   5.157   3.075   3.961  1.4703 -0.6908 -1.6585
19356TIP3    H279484   5.173   2.952   4.049  2.2532 -0.9863 -2.2101
19357TIP3   OH279485   6.742   4.043   3.700 -0.1330 -0.7218 -0.0544
19357TIP3    H179486   6.765   4.079   3.785  1.1558 -0.8452 -0.3218
19357TIP3    H279487   6.671   4.099   3.668 -0.4550 -0.5174  0.9738
19358TIP3   OH279488   4.178   5.548  13.240 -0.2152 -0.2399  0.0482
19358TIP3    H179489   4.150   5.458  13.257  0.1804 -0.3875 -0.0776
19358TIP3    H279490   4.098   5.599  13.248 -0.5106 -0.6479 -0.2320
19359TIP3   OH279491   4.139   0.374   3.722 -0.4475  0.2721 -0.1626
19359TIP3    H179492   4.061   0.355   3.773 -1.0685 -0.1964 -1.2631
19359TIP3    H279493   4.111   0.439   3.657 -0.0638 -0.2771 -0.8977
19360TIP3   OH279494   4.593   2.471   2.185  0.6758 -0.2858  0.2724
19360TIP3    H179495   4.530   2.543   2.177  0.0755 -0.3822  3.0393
19360TIP3    H279496   4.671   2.512   2.222  0.2274 -1.0221  2.1587
19361TIP3   OH279497   3.490   4.076  12.054 -0.5612  0.3542  0.0640
19361TIP3    H179498   3.473   4.109  11.966 -0.0155  0.3575 -0.0443
19361TIP3    H279499   3.423   4.119  12.109 -0.7755  0.5073 -0.3114
19362TIP3   OH279500   2.843   4.323  15.830  0.0312 -0.2657 -0.0770
19362TIP3    H179501   2.787   4.360  15.762  0.0009 -0.2620 -0.0503
19362TIP3    H279502   2.783   4.304  15.902  0.0939 -0.0905  0.0211
19363TIP3   OH279503   6.114   6.312  16.719  0.4499 -0.1180 -1.1593
19363TIP3    H179504   6.184   6.364  16.680  0.2721 -0.3829 -1.8653
19363TIP3    H279505   6.045   6.312  16.652 -1.0956  1.8575  0.3253
19364TIP3   OH279506   5.740   3.916   5.683 -0.3791 -0.2122  0.8491
19364TIP3    H179507   5.694   3.935   5.765 -0.4950  0.8141  0.5681
19364TIP3    H279508   5.804   3.987   5.676  0.0893 -0.6819  0.3926
19365TIP3   OH279509   2.925   6.001  12.422 -0.3417  0.0740 -0.0604
19365TIP3    H179510   2.869   5.954  12.360 -1.0764 -0.6978  1.1385
19365TIP3    H279511   2.881   6.085  12.436 -1.2182 -0.5067  0.8308
19366TIP3   OH279512   3.024   5.498  14.049  0.8514  0.0679 -0.0052
19366TIP3    H179513   3.058   5.416  14.084 -0.5390 -0.8404 -0.6742
19366TIP3    H279514   2.955   5.523  14.111  1.6738  1.0841  0.5285
19367TIP3   OH279515   0.330   4.746  12.593  0.2160  0.6220  0.5102
19367TIP3    H179516   0.347   4.798  12.672 -1.0467  0.8552  0.6456
19367TIP3    H279517   0.237   4.727  12.596  0.6038 -1.5235  0.3616
19368TIP3   OH279518   3.446   0.701   1.252 -0.4228 -0.0563  0.4510
19368TIP3    H179519   3.450   0.727   1.160  1.7025 -0.6668  0.3211
19368TIP3    H279520   3.362   0.656   1.260  0.1065 -1.6143 -1.6810
19369TIP3   OH279521   5.288   1.573  12.707  0.3560 -0.6449 -0.0463
19369TIP3    H179522   5.264   1.483  12.686 -1.8515  0.1156 -1.0867
19369TIP3    H279523   5.276   1.581  12.801 -0.0897 -1.2494 -0.0526
19370TIP3   OH279524   3.602   3.783  11.920 -0.5164 -0.4786 -0.3204
19370TIP3    H179525   3.536   3.783  11.851  0.3875  1.1219 -1.2656
19370TIP3    H279526   3.598   3.872  11.956  2.1008  0.2186 -1.4787
19371TIP3   OH279527   5.456   4.869   3.363 -0.1689  0.0759 -0.1665
19371TIP3    H179528   5.380   4.923   3.385 -1.5994 -2.1508  0.6985
19371TIP3    H279529   5.504   4.861   3.446 -0.9645 -1.3962  0.1894
19372TIP3   OH279530   5.518   6.210  15.632 -0.6504  0.3493  0.1101
19372TIP3    H179531   5.541   6.301  15.653 -0.0847  0.3706 -0.5548
19372TIP3    H279532   5.568   6.190  15.553  0.5081 -1.0767  1.1481
19373TIP3   OH279533   6.316   2.087   5.780  0.2001 -0.0827  0.0873
19373TIP3    H179534   6.341   2.166   5.827  1.2993 -0.6438  0.4935
19373TIP3    H279535   6.225   2.072   5.803 -0.4788  1.8226 -1.1021
19374TIP3   OH279536   3.313   2.563  14.965  0.1597  0.1560 -0.2103
19374TIP3    H179537   3.344   2.556  15.055 -0.7249  0.3803  0.1188
19374TIP3    H279538   3.361   2.495  14.918  0.4978 -0.0809  0.4617
19375TIP3   OH279539   3.005   4.504  12.549  0.1786  0.2848 -0.5633
19375TIP3    H179540   3.024   4.542  12.464  0.6415 -0.0906 -0.6319
19375TIP3    H279541   2.939   4.437  12.531  1.2956 -0.7911 -0.8718
19376TIP3   OH279542   2.192   0.151   4.556 -0.5632  0.0649  0.1758
19376TIP3    H179543   2.132   0.218   4.521 -2.2687 -1.5331 -0.1293
19376TIP3    H279544   2.268   0.154   4.498 -1.0629  1.0085 -0.4666
19377TIP3   OH279545   6.311   1.924   1.664 -0.0393 -0.2373 -0.3519
19377TIP3    H179546   6.325   1.846   1.610  1.5527  0.4807 -1.0222
19377TIP3    H279547   6.392   1.936   1.712 -0.0733  1.2657 -0.6091
19378TIP3   OH279548   0.040   4.192  12.186  0.1948  0.2559 -0.1755
19378TIP3    H179549  -0.019   4.127  12.225  1.7469 -0.3592  1.2876
19378TIP3    H279550   0.024   4.272  12.235 -0.2719  0.4311 -0.6063
19379TIP3   OH279551   1.967   4.648   1.696  0.0803 -0.3906  0.3319
19379TIP3    H179552   2.050   4.660   1.649 -0.3190  0.0979 -0.2612
19379TIP3    H279553   1.928   4.735   1.698  0.6267 -0.1122  2.6438
19380TIP3   OH279554   0.954   3.035   1.768  0.0351  0.5959  0.3259
19380TIP3    H179555   0.994   3.073   1.689  1.5903 -2.7266 -0.6467
19380TIP3    H279556   0.871   2.999   1.739 -1.6670  3.3151  1.3520
19381TIP3   OH279557   2.985   1.037  12.021  0.0712 -0.5360  0.0205
19381TIP3    H179558   3.049   1.092  12.065  1.7257 -2.1693 -0.2347
19381TIP3    H279559   2.926   1.099  11.978  0.4446  1.0362  1.6505
19382TIP3   OH279560   4.553   2.243   0.671  0.1526  0.1839 -0.8545
19382TIP3    H179561   4.490   2.304   0.633  2.4382  1.7691 -2.3592
19382TIP3    H279562   4.567   2.177   0.603 -0.5846 -0.7771 -0.1188
19383TIP3   OH279563   3.803   6.142  10.764  0.0510  0.4255 -0.2028
19383TIP3    H179564   3.868   6.078  10.735 -1.1958 -0.5922 -0.7995
19383TIP3    H279565   3.736   6.141  10.696 -0.4934  1.6471  0.2828
19384TIP3   OH279566   4.862   5.579  14.558 -0.0278  0.3624  0.2744
19384TIP3    H179567   4.930   5.522  14.521  0.9782  0.3349  2.0622
19384TIP3    H279568   4.907   5.660  14.580 -0.8123  0.7539  0.4912
19385TIP3   OH279569   3.452   4.316   3.923  0.1002  0.3409  0.4424
19385TIP3    H179570   3.377   4.343   3.976 -0.6408 -0.6083 -0.0980
19385TIP3    H279571   3.485   4.238   3.967 -0.9846 -0.8978 -0.8891
19386TIP3   OH279572   6.065   4.221   5.161  0.0353 -0.0248  0.1012
19386TIP3    H179573   5.991   4.160   5.171  0.1273 -0.1771 -0.1266
19386TIP3    H279574   6.108   4.220   5.246 -0.1399 -0.0482  0.1909
19387TIP3   OH279575   2.422   0.902   5.951  0.3422 -0.1526  0.4796
19387TIP3    H179576   2.407   0.814   5.985 -1.5420  0.2292  0.7869
19387TIP3    H279577   2.423   0.958   6.029  1.2214  0.1374  0.2692
19388TIP3   OH279578   5.615   0.720   2.531 -0.2212 -0.5317  0.0667
19388TIP3    H179579   5.651   0.755   2.449 -0.7318 -1.7352 -0.6979
19388TIP3    H279580   5.557   0.649   2.503  0.0202 -1.3198  1.5019
19389TIP3   OH279581   1.249   6.230   1.200 -0.1698 -0.2343 -0.5792
19389TIP3    H179582   1.218   6.139   1.197  0.2008 -0.4178  0.7435
19389TIP3    H279583   1.315   6.234   1.131 -0.7467 -0.7421 -1.1883
19390TIP3   OH279584   3.011   5.651  15.209 -0.0616 -0.5972 -0.3657
19390TIP3    H179585   3.051   5.730  15.245  0.3661 -0.9342 -0.0842
19390TIP3    H279586   2.982   5.676  15.121  0.5706 -0.2848 -0.4888
19391TIP3   OH279587   5.053   3.813   2.768  0.2132  0.1809  0.2020
19391TIP3    H179588   5.120   3.744   2.769  0.2386  0.2049  0.1418
19391TIP3    H279589   4.996   3.789   2.695  0.5903  0.5787 -0.2257
19392TIP3   OH279590   6.055   3.043  11.909 -0.1693  0.3865  0.6563
19392TIP3    H179591   5.969   3.035  11.866 -0.0242 -1.9713  0.6922
19392TIP3    H279592   6.040   3.009  11.997  0.6624  0.5894  0.8758
19393TIP3   OH279593   1.807   1.663  16.616  0.1865  0.2803  0.2861
19393TIP3    H179594   1.740   1.730  16.604  1.0867  1.0272 -0.6751
19393TIP3    H279595   1.757   1.583  16.633 -1.0035  0.5742 -1.5129
19394TIP3   OH279596   2.874   2.685   2.414 -0.1676 -0.0816 -0.1854
19394TIP3    H179597   2.816   2.683   2.338 -2.0759  0.3794  1.1981
19394TIP3    H279598   2.853   2.605   2.462 -0.6638  0.7482  1.0279
19395TIP3   OH279599   4.481   4.756  15.237 -0.6385 -0.5919 -0.3325
19395TIP3    H179600   4.561   4.772  15.187 -0.7466  0.7149 -0.1234
19395TIP3    H279601   4.412   4.800  15.186 -0.8749  0.0861  0.5541
19396TIP3   OH279602   3.746   1.989   0.322 -0.3458  0.0904 -0.3001
19396TIP3    H179603   3.689   1.989   0.245 -0.7744 -0.7597  0.0053
19396TIP3    H279604   3.762   1.896   0.340 -0.4104  0.2785  0.7531
19397TIP3   OH279605   3.150   3.280   2.990 -0.0753 -0.3008  0.0420
19397TIP3    H179606   3.148   3.199   2.939  0.3957 -0.3828  0.1527
19397TIP3    H279607   3.190   3.256   3.073  1.0987  0.2681 -0.3376
19398TIP3   OH279608   0.421   0.069   4.014 -0.0647  0.5920  0.5946
19398TIP3    H179609   0.487   0.008   3.979 -0.5441  0.4963 -0.1659
19398TIP3    H279610   0.415   0.046   4.107  0.4523  0.1208  0.5200
19399TIP3   OH279611   2.502   3.232  16.336 -0.2514 -0.3966 -0.3572
19399TIP3    H179612   2.576   3.287  16.361  0.8336 -1.6296 -0.7429
19399TIP3    H279613   2.485   3.253  16.244 -1.7329  1.3377  0.2535
19400TIP3   OH279614   3.142   3.619   4.933 -0.0641 -0.1217  0.0423
19400TIP3    H179615   3.101   3.706   4.935  0.1125 -0.0110 -0.9143
19400TIP3    H279616   3.169   3.607   4.842  2.6521  0.0819  0.7318
19401TIP3   OH279617   0.301   1.656   0.341 -0.3064  0.0185  0.1706
19401TIP3    H179618   0.207   1.639   0.330 -0.4368  0.2295  0.9028
19401TIP3    H279619   0.309   1.751   0.331 -0.1669 -0.0015  0.0935
19402TIP3   OH279620   0.580   0.462  11.810 -0.0635 -0.1187 -0.2985
19402TIP3    H179621   0.604   0.411  11.733 -0.7361 -0.7319 -0.1103
19402TIP3    H279622   0.496   0.426  11.838 -0.9403  1.5905 -0.5951
19403TIP3   OH279623   3.665   3.501   0.477 -0.4042 -0.7028 -0.4817
19403TIP3    H179624   3.631   3.537   0.559  0.4185  1.5247 -1.0498
19403TIP3    H279625   3.588   3.485   0.423 -0.9358 -1.9339  0.5890
19404TIP3   OH279626   5.227   4.864  14.744  0.1010 -0.3995 -0.2965
19404TIP3    H179627   5.205   4.774  14.717  0.9154 -0.7184  0.0694
19404TIP3    H279628   5.278   4.853  14.824  1.5369  0.3091 -1.0824
19405TIP3   OH279629   4.517   3.151   6.666  0.5245  0.2861  0.3646
19405TIP3    H179630   4.456   3.192   6.728 -0.0500  1.0815 -0.6898
19405TIP3    H279631   4.463   3.131   6.589  1.6236  1.1993 -0.6783
19406TIP3   OH279632   3.256   0.741   2.011  0.0680  0.9096  0.1134
19406TIP3    H179633   3.173   0.705   1.978  0.0794  1.1398 -0.1691
19406TIP3    H279634   3.289   0.795   1.939  1.8308 -1.3402 -0.8939
19407TIP3   OH279635   5.865   2.043  15.724 -0.4550 -0.1992 -0.1315
19407TIP3    H179636   5.960   2.054  15.724 -0.5189  0.4402  0.3621
19407TIP3    H279637   5.849   1.972  15.662  0.3779 -0.6563  0.1625
19408TIP3   OH279638   2.656   0.485   5.007  0.8488 -0.2280 -0.9628
19408TIP3    H179639   2.638   0.435   5.086  1.5705 -2.0831 -1.9143
19408TIP3    H279640   2.637   0.425   4.935  0.0465  1.4619 -2.2265
19409TIP3   OH279641   5.260   5.257   2.986 -0.0582 -1.0130  0.5374
19409TIP3    H179642   5.239   5.346   3.014  0.3802 -0.3948 -1.0128
19409TIP3    H279643   5.336   5.267   2.929  0.3046 -2.4447  0.7337
19410TIP3   OH279644   3.384   4.172  15.096 -0.2804  0.3856 -0.3108
19410TIP3    H179645   3.387   4.267  15.102  0.1762  0.2806  1.4088
19410TIP3    H279646   3.471   4.146  15.065  0.4063  0.4153  1.4827
19411TIP3   OH279647   1.203   1.545   0.343 -0.1216 -0.5125  0.3253
19411TIP3    H179648   1.230   1.608   0.410  0.1035 -0.3771  0.1102
19411TIP3    H279649   1.216   1.591   0.260  0.3494 -0.9554  0.1502
19412TIP3   OH279650   3.119   0.450  12.653 -0.5097 -0.2273  0.5095
19412TIP3    H179651   3.057   0.407  12.595 -0.4167 -2.3803  1.8653
19412TIP3    H279652   3.094   0.543  12.652 -0.4030 -0.1328 -2.9705
19413TIP3   OH279653   6.401   1.164  13.021 -0.0347 -0.0495  0.5837
19413TIP3    H179654   6.389   1.160  13.116  1.5808  0.4656  0.8446
19413TIP3    H279655   6.466   1.096  13.002  0.8450  0.9012  0.0920
19414TIP3   OH279656   2.349   5.139  15.751  0.2952 -0.0453 -0.3372
19414TIP3    H179657   2.335   5.156  15.844  0.8805  0.3492 -0.3160
19414TIP3    H279658   2.421   5.197  15.727 -1.1406  1.3549 -1.5019
19415TIP3   OH279659   4.697   6.702  12.384 -0.0107 -0.3202 -0.2860
19415TIP3    H179660   4.748   6.783  12.396  0.1681 -0.2371 -1.4367
19415TIP3    H279661   4.729   6.667  12.300 -1.4382 -0.5801 -0.7393
19416TIP3   OH279662   0.615   5.238   4.286 -0.1399  0.9482 -0.3091
19416TIP3    H179663   0.672   5.186   4.230 -0.4685  0.2618 -0.0110
19416TIP3    H279664   0.533   5.188   4.291 -0.5333  1.5908 -0.1850
19417TIP3   OH279665   5.233   5.223  12.213 -0.7281 -0.0789  0.3486
19417TIP3    H179666   5.328   5.213  12.206 -0.7867 -2.1051  1.5973
19417TIP3    H279667   5.218   5.243  12.306 -1.4806  1.4255 -0.0651
19418TIP3   OH279668   3.395   4.203  10.789  0.0703 -0.5695 -0.1899
19418TIP3    H179669   3.445   4.221  10.709 -0.4375  3.4395  0.1830
19418TIP3    H279670   3.305   4.228  10.768 -0.2122 -0.1301  1.3999
19419TIP3   OH279671   2.944   0.693  15.008  0.1328 -0.4501 -0.2507
19419TIP3    H179672   2.916   0.693  14.917 -0.5731 -0.8734 -0.0461
19419TIP3    H279673   2.885   0.755  15.051  1.1678  0.5907 -0.2674
19420TIP3   OH279674   1.831   2.251   3.413 -0.3176 -0.3889 -0.5114
19420TIP3    H179675   1.763   2.239   3.479 -0.5590 -0.3452 -0.7491
19420TIP3    H279676   1.864   2.340   3.427 -1.1148  0.0227 -1.1303
19421TIP3   OH279677   0.098   0.949   2.233  0.1198 -0.0658 -0.4123
19421TIP3    H179678   0.185   0.984   2.215  0.7820 -1.3314  0.1739
19421TIP3    H279679   0.045   0.978   2.160  0.6616  1.9381 -0.0683
19422TIP3   OH279680   5.846   1.596   1.905  0.2700 -0.4482 -0.4869
19422TIP3    H179681   5.893   1.644   1.973  1.4198 -3.4748  1.0436
19422TIP3    H279682   5.891   1.512   1.900 -2.8009 -2.1801 -1.5493
19423TIP3   OH279683   0.183   5.620  11.625 -0.2136  0.1177 -0.2990
19423TIP3    H179684   0.176   5.539  11.573  1.3235  1.3225 -2.5462
19423TIP3    H279685   0.129   5.683  11.578 -0.8820  0.5998  1.0796
19424TIP3   OH279686   5.990   4.361  13.035  0.8268 -0.7442  0.3629
19424TIP3    H179687   5.909   4.399  13.002  1.5655 -0.0853 -0.7931
19424TIP3    H279688   5.988   4.378  13.129  0.0160  0.0079  0.2221
19425TIP3   OH279689   2.681   5.305  12.422  0.3233  0.4087  0.1377
19425TIP3    H179690   2.622   5.286  12.495  0.5226 -0.3007  0.1177
19425TIP3    H279691   2.750   5.360  12.461 -0.6757  1.8083  0.0163
19426TIP3   OH279692   5.201   6.722  10.641  0.1876 -0.4267  0.0479
19426TIP3    H179693   5.278   6.672  10.668 -0.1412 -1.6682 -1.1779
19426TIP3    H279694   5.235   6.804  10.607  0.7276  0.3832  2.3635
19427TIP3   OH279695   5.741   3.831   0.612 -0.2204 -0.4573 -0.0841
19427TIP3    H179696   5.661   3.860   0.569 -0.7549 -2.1359 -0.2894
19427TIP3    H279697   5.741   3.877   0.696 -0.6863  0.5750 -0.6185
19428TIP3   OH279698   4.625   1.551  17.081  0.1611 -0.3011 -0.3597
19428TIP3    H179699   4.573   1.607  17.024  2.1873  1.1062 -0.9266
19428TIP3    H279700   4.622   1.594  17.167  0.4578 -0.1359 -0.4276
19429TIP3   OH279701   3.749   3.401   5.881  0.5821 -0.2621 -0.5639
19429TIP3    H179702   3.811   3.361   5.942 -0.5008  0.0870  0.7869
19429TIP3    H279703   3.781   3.374   5.794  0.7031 -2.9414  0.2120
19430TIP3   OH279704   4.987   6.077   5.747 -0.2475 -0.2110  0.0031
19430TIP3    H179705   5.027   6.158   5.715  1.9300 -1.8821 -1.7728
19430TIP3    H279706   4.958   6.031   5.669 -0.4590 -1.6471  0.8741
19431TIP3   OH279707   0.620   6.314   1.228 -0.2594  0.1349 -0.1809
19431TIP3    H179708   0.635   6.389   1.286  1.4040  0.3878 -0.8732
19431TIP3    H279709   0.699   6.261   1.237 -0.7090 -0.6864 -0.9481
19432TIP3   OH279710   2.777   2.217   4.337 -0.1966 -0.8562  0.4008
19432TIP3    H179711   2.711   2.169   4.388 -1.8814 -1.2548 -1.9465
19432TIP3    H279712   2.778   2.172   4.252 -0.5811  2.1554 -1.3396
19433TIP3   OH279713   6.403   4.380   0.012  0.0104  0.3873 -0.0451
19433TIP3    H179714   6.370   4.373   0.101  0.0943 -1.6842 -0.1166
19433TIP3    H279715   6.408   4.289  -0.019 -0.3513  1.0624 -2.2917
19434TIP3   OH279716   3.119   1.307  11.271  0.0038  0.4632 -0.5393
19434TIP3    H179717   3.077   1.262  11.197 -0.8466 -0.2977  0.3777
19434TIP3    H279718   3.087   1.397  11.265 -1.5890 -0.0330 -0.0290
19435TIP3   OH279719   3.640   6.403  11.422  0.0649 -0.9283  0.0835
19435TIP3    H179720   3.716   6.360  11.460  0.8163  0.0914 -0.2209
19435TIP3    H279721   3.565   6.351  11.451  0.8823 -1.9815  0.3304
19436TIP3   OH279722   3.966   6.125  15.072 -0.7199 -0.0397  0.7472
19436TIP3    H179723   3.945   6.121  14.979 -2.7201  0.0257  1.1556
19436TIP3    H279724   4.017   6.206  15.082 -3.3219  1.8011  0.1613
19437TIP3   OH279725   3.371   4.552   4.759 -0.1365  0.5174  0.2060
19437TIP3    H179726   3.428   4.476   4.748 -0.2539  0.5308 -0.5856
19437TIP3    H279727   3.320   4.532   4.837  0.0147 -0.1095  0.1535
19438TIP3   OH279728   5.818   0.095  16.540  0.6081  0.9809 -0.0845
19438TIP3    H179729   5.879   0.128  16.474  0.9182  0.1271 -0.2318
19438TIP3    H279730   5.737   0.143  16.523 -0.0195 -0.7817 -2.5656
19439TIP3   OH279731   4.182   5.661  16.480 -1.0502  0.5535 -0.8107
19439TIP3    H179732   4.185   5.681  16.573  1.5483 -0.3785 -0.6029
19439TIP3    H279733   4.245   5.721  16.441  0.9483 -1.7067 -1.3007
19440TIP3   OH279734   3.128   4.952  11.811  0.0408 -0.3058 -0.0749
19440TIP3    H179735   3.076   5.021  11.852  0.0894  0.4255 -1.1731
19440TIP3    H279736   3.067   4.881  11.795 -1.0651  1.0795 -2.6546
19441TIP3   OH279737   6.208   5.731   0.992  0.3144  0.3196  0.2036
19441TIP3    H179738   6.281   5.691   1.039 -0.0327  0.8231  1.1866
19441TIP3    H279739   6.130   5.706   1.041 -0.1726 -0.0760 -0.7412
19442TIP3   OH279740   0.700   6.468   3.401  0.6928  0.0507  0.2649
19442TIP3    H179741   0.763   6.489   3.470  0.3588 -0.5532  0.7710
19442TIP3    H279742   0.685   6.374   3.411 -0.1875  0.1623  0.0683
19443TIP3   OH279743   3.028   2.457  16.801  0.3239  0.5509  0.8209
19443TIP3    H179744   3.055   2.446  16.892  1.7885 -1.2895  0.2150
19443TIP3    H279745   3.021   2.552  16.790  1.8005  0.8884  2.3635
19444TIP3   OH279746   2.813   3.745  10.868 -0.1986  0.2348  0.2102
19444TIP3    H179747   2.801   3.671  10.927  4.0810 -1.5285 -0.7492
19444TIP3    H279748   2.760   3.724  10.791 -0.5182 -0.8589  0.7128
19445TIP3   OH279749   3.685   2.858   3.703 -0.3144  0.1688 -0.2093
19445TIP3    H179750   3.740   2.935   3.691 -0.5971  0.6202  1.1443
19445TIP3    H279751   3.681   2.846   3.798  0.1792 -1.8615 -0.3997
19446TIP3   OH279752   6.758   3.335  16.479 -0.2815 -0.2139  0.0486
19446TIP3    H179753   6.758   3.399  16.550 -0.5710  0.6619 -0.7210
19446TIP3    H279754   6.752   3.250  16.523  2.4710  0.0999  1.2160
19447TIP3   OH279755   0.103   4.141   3.487  0.5085 -0.3382  0.0966
19447TIP3    H179756   0.088   4.081   3.560 -0.4330 -1.4063 -0.9102
19447TIP3    H279757   0.168   4.203   3.519  0.1037 -0.7575  1.8318
19448TIP3   OH279758   2.239   1.010   4.529 -0.0964 -0.3199 -0.8069
19448TIP3    H179759   2.320   1.052   4.558 -0.9046  0.6904  0.0805
19448TIP3    H279760   2.266   0.922   4.503  1.4592  0.3392 -1.5857
19449TIP3   OH279761   4.311   2.533   6.125 -0.0160 -0.4016  0.3255
19449TIP3    H179762   4.404   2.511   6.115 -0.3481 -1.5996 -0.3805
19449TIP3    H279763   4.297   2.606   6.066  0.9159  1.2203  2.0078
19450TIP3   OH279764   0.210   1.282   6.552 -0.4141 -0.1250  0.0683
19450TIP3    H179765   0.204   1.215   6.620 -0.5554  0.4427  0.6254
19450TIP3    H279766   0.302   1.310   6.553 -0.9535  1.7342  1.8545
19451TIP3   OH279767   5.822   4.504  10.755  0.0344  0.4687  0.1173
19451TIP3    H179768   5.765   4.524  10.830 -2.6026  0.2255 -1.6899
19451TIP3    H279769   5.853   4.415  10.772  0.2404  0.7529  1.3313
19452TIP3   OH279770   3.702   3.552  13.335  0.4861 -0.2447 -0.1250
19452TIP3    H179771   3.631   3.497  13.366  0.9445  1.0064  3.5879
19452TIP3    H279772   3.670   3.642  13.345  1.8068  0.2987 -0.4585
19453TIP3   OH279773   3.798   4.977  14.997  0.0946  0.0550 -0.2819
19453TIP3    H179774   3.724   4.943  15.048  0.3094  1.0097  0.6984
19453TIP3    H279775   3.875   4.942  15.041  0.2552 -0.0724 -0.6649
19454TIP3   OH279776   5.074   3.871  16.747  0.6032  0.7090 -0.4053
19454TIP3    H179777   5.116   3.796  16.789 -0.9229  1.1009  2.0625
19454TIP3    H279778   5.017   3.832  16.681 -0.8812 -0.4886  1.4578
19455TIP3   OH279779   4.712   2.555  14.717 -0.3984  1.2628 -0.1087
19455TIP3    H179780   4.632   2.502  14.723  0.1849  0.2427 -1.0579
19455TIP3    H279781   4.748   2.554  14.806  0.6528 -1.6829 -0.4538
19456TIP3   OH279782   5.966   4.129  11.725  0.2440 -0.0771 -0.5014
19456TIP3    H179783   5.906   4.150  11.653  0.4585 -1.7558 -1.2196
19456TIP3    H279784   5.911   4.128  11.803 -0.0880  1.2596 -0.6955
19457TIP3   OH279785   2.036   3.592   2.654 -0.3398 -0.0162 -0.5040
19457TIP3    H179786   1.986   3.524   2.700 -1.1796  0.0653 -1.2710
19457TIP3    H279787   1.992   3.673   2.676  0.5148  0.2660  0.2110
19458TIP3   OH279788   6.437   1.269   0.393 -0.3412 -0.0628 -0.4563
19458TIP3    H179789   6.503   1.228   0.338  2.0314  3.0731 -0.2012
19458TIP3    H279790   6.366   1.291   0.334  0.7189  0.2852 -1.6401
19459TIP3   OH279791   2.114   3.491   3.281 -0.1714  0.1291 -0.4751
19459TIP3    H179792   2.046   3.424   3.279 -1.6004  1.4454  0.9469
19459TIP3    H279793   2.139   3.497   3.374  1.4294  0.1367 -0.8773
19460TIP3   OH279794   5.317   6.654   1.259 -0.4635  0.6555  0.0155
19460TIP3    H179795   5.344   6.564   1.275  1.0648  1.1133  0.2088
19460TIP3    H279796   5.259   6.675   1.331 -2.3978 -0.7475 -1.0425
19461TIP3   OH279797   0.673   4.923   3.407  0.6107 -0.0325  0.3522
19461TIP3    H179798   0.629   4.931   3.322 -1.3561 -1.5676  1.1233
19461TIP3    H279799   0.718   5.006   3.420 -2.1883  1.7347 -0.5103
19462TIP3   OH279800   4.255   0.433   4.119  0.5024 -0.9191  0.2024
19462TIP3    H179801   4.291   0.419   4.207 -0.3991 -2.7998  0.3373
19462TIP3    H279802   4.165   0.401   4.125 -0.4213  1.2775 -0.7828
19463TIP3   OH279803   5.567   3.329   4.280  0.6867 -0.1788  0.6055
19463TIP3    H179804   5.598   3.300   4.366  1.2105 -1.6573 -0.0297
19463TIP3    H279805   5.536   3.248   4.238 -1.1630  0.7835  0.0304
19464TIP3   OH279806   5.028   1.693   4.115  0.1274  0.3047  0.1009
19464TIP3    H179807   4.976   1.749   4.057 -0.1963  0.7892  0.8423
19464TIP3    H279808   4.968   1.623   4.141  0.3504 -0.0597 -0.3375
19465TIP3   OH279809   0.589   6.176  11.450 -0.5904 -0.1847  0.0842
19465TIP3    H179810   0.588   6.240  11.379 -0.3483 -1.0842 -0.7416
19465TIP3    H279811   0.518   6.116  11.429 -0.3876 -0.5704  0.4967
19466TIP3   OH279812   2.810   1.265  14.983 -0.0117  0.2016 -0.2414
19466TIP3    H179813   2.794   1.347  15.031 -2.3057 -0.2107 -0.2215
19466TIP3    H279814   2.856   1.209  15.047  1.5587  1.4085 -0.2497
19467TIP3   OH279815   0.191   1.166   4.604  0.2348  0.1154  0.2473
19467TIP3    H179816   0.213   1.214   4.684 -0.8271  0.6032  0.2594
19467TIP3    H279817   0.269   1.174   4.549 -0.3829  3.0852 -0.3321
19468TIP3   OH279818   4.331   1.648  10.984 -0.0725  0.7087 -0.3251
19468TIP3    H179819   4.299   1.658  11.074 -1.3523  1.6645 -0.8646
19468TIP3    H279820   4.319   1.555  10.964  1.6249  0.1424  0.9682
19469TIP3   OH279821   1.054   0.669   6.004 -0.1999 -0.2041  0.7568
19469TIP3    H179822   1.128   0.646   5.949 -0.9678 -1.5945  0.2450
19469TIP3    H279823   1.069   0.760   6.028  1.2936 -0.2419  0.0878
19470TIP3   OH279824   2.351   1.967  14.593 -0.0373  0.0237  0.1147
19470TIP3    H179825   2.288   1.989  14.662  1.3223 -0.2657  1.4889
19470TIP3    H279826   2.432   2.012  14.619  1.3649 -2.4765  0.3447
19471TIP3   OH279827   0.715   2.336  15.571  0.1905  0.1845  0.5250
19471TIP3    H179828   0.736   2.265  15.631 -1.5967 -0.4068  0.4993
19471TIP3    H279829   0.687   2.293  15.490 -3.7008  0.6656  1.3999
19472TIP3   OH279830   6.765   1.905  16.877 -0.1296  0.3433  0.4694
19472TIP3    H179831   6.828   1.833  16.886  0.8616  1.3770  2.7021
19472TIP3    H279832   6.808   1.968  16.819  0.3902  0.5081  1.0234
19473TIP3   OH279833   1.330   6.614  14.073 -0.1688  0.5504 -0.2584
19473TIP3    H179834   1.333   6.706  14.047 -1.2250  0.4198 -0.8974
19473TIP3    H279835   1.319   6.566  13.990 -1.8336  0.0107  0.2364
19474TIP3   OH279836   6.439   2.381  16.057  0.0832  0.3641 -0.1805
19474TIP3    H179837   6.360   2.418  16.096  0.8890  0.6229  1.2937
19474TIP3    H279838   6.504   2.383  16.128  1.9875  1.9285 -1.8447
19475TIP3   OH279839   0.412   2.815  12.647  0.5140  0.2491 -0.1045
19475TIP3    H179840   0.442   2.905  12.632  0.8297 -0.0532 -1.4002
19475TIP3    H279841   0.317   2.820  12.639  0.6409  0.0365 -3.1400
19476TIP3   OH279842   1.078   3.249   4.012  0.3134  0.4549 -0.0860
19476TIP3    H179843   1.164   3.287   3.998  0.5206  1.1009  2.4134
19476TIP3    H279844   1.018   3.323   4.009  0.0302  0.2155 -0.3664
19477TIP3   OH279845   5.228   2.799  10.788 -0.2404 -0.3503  0.2977
19477TIP3    H179846   5.302   2.749  10.755  0.7304 -0.6128  2.7001
19477TIP3    H279847   5.266   2.878  10.826 -1.0123 -0.9489  2.4726
19478TIP3   OH279848   2.188   6.029  16.627  0.4855  0.2045 -0.6253
19478TIP3    H179849   2.195   5.977  16.547  2.4720 -2.2880  1.0108
19478TIP3    H279850   2.094   6.040  16.641  0.0736 -0.6612 -2.4635
19479TIP3   OH279851   2.374   3.894  11.018 -0.3697 -0.2088  0.1547
19479TIP3    H179852   2.338   3.983  11.024 -0.4068 -0.2573  0.6332
19479TIP3    H279853   2.299   3.837  11.034 -0.1077 -0.3114  1.0312
19480TIP3   OH279854   2.503   0.931  14.791  0.5079 -0.6203  0.3200
19480TIP3    H179855   2.498   0.953  14.698  0.2304  0.7152  0.6231
19480TIP3    H279856   2.549   0.847  14.793  0.2095 -0.8436 -1.0365
19481TIP3   OH279857   0.786   4.084   2.633  0.2727 -0.1337  0.1789
19481TIP3    H179858   0.755   4.175   2.631  2.3851  0.6506 -0.6046
19481TIP3    H279859   0.876   4.091   2.664 -0.2213 -2.2674  2.3909
19482TIP3   OH279860   3.279   3.992  11.254 -0.7774 -0.6151  0.2407
19482TIP3    H179861   3.328   3.919  11.291 -0.6386 -0.6079  0.0757
19482TIP3    H279862   3.328   4.016  11.175 -1.3424 -0.9679 -0.2318
19483TIP3   OH279863   2.754   5.812  14.019  0.1559 -0.2301 -0.0310
19483TIP3    H179864   2.783   5.821  13.928 -1.0902  1.6931 -0.3141
19483TIP3    H279865   2.658   5.812  14.013  0.0636 -0.4256  1.2677
19484TIP3   OH279866   0.176   1.134  12.199  0.0886 -0.3417  0.3211
19484TIP3    H179867   0.105   1.159  12.140 -0.1340 -1.6439  0.0068
19484TIP3    H279868   0.189   1.040  12.182  1.7415 -0.1701  0.5114
19485TIP3   OH279869   5.653   1.298   1.104  0.0081 -0.0917 -0.9107
19485TIP3    H179870   5.698   1.382   1.096  0.9700 -0.6971 -2.2049
19485TIP3    H279871   5.717   1.241   1.145 -1.4812  0.3626  2.3804
19486TIP3   OH279872   0.963   4.331   3.889  0.6820  0.3928 -0.0298
19486TIP3    H179873   0.986   4.341   3.981 -1.3802 -0.4436  0.6440
19486TIP3    H279874   1.046   4.334   3.842  2.0904 -1.7153  2.1037
19487TIP3   OH279875   3.057   0.631   2.338  0.0746  0.2440 -0.0234
19487TIP3    H179876   3.071   0.719   2.304  0.2214 -0.5665 -2.3058
19487TIP3    H279877   3.141   0.605   2.375  0.7739  0.2406 -1.5193
19488TIP3   OH279878   3.281   3.905  15.210 -0.3271  0.0924  0.0257
19488TIP3    H179879   3.326   3.961  15.272  1.8406 -3.3217  1.8050
19488TIP3    H279880   3.334   3.908  15.130  0.5779 -0.4427  0.5941
19489TIP3   OH279881   0.095   3.684  10.919 -0.0758 -0.5205 -0.2027
19489TIP3    H179882   0.058   3.663  11.004 -0.4193  2.9794  0.6658
19489TIP3    H279883   0.190   3.673  10.930 -0.0319  0.8415  1.0041
19490TIP3   OH279884   3.187   1.889   0.071  0.4053  0.7401  0.5177
19490TIP3    H179885   3.218   1.980   0.068  2.1490  0.1780  0.0160
19490TIP3    H279886   3.097   1.893   0.042  0.9621  2.1162 -1.1796
19491TIP3   OH279887   5.951   2.231  12.667 -0.2434 -0.4029 -0.0734
19491TIP3    H179888   6.025   2.178  12.699  0.5253 -0.2772 -1.5147
19491TIP3    H279889   5.909   2.175  12.602 -0.3039  0.2093 -0.5694
19492TIP3   OH279890   3.244   3.321   6.153 -0.1657 -1.0883 -0.3953
19492TIP3    H179891   3.310   3.269   6.198  0.6460  1.8820  2.1897
19492TIP3    H279892   3.186   3.354   6.222 -0.5966  1.4071 -1.7922
19493TIP3   OH279893   0.620   0.972   3.500  0.1614 -0.4154 -0.4174
19493TIP3    H179894   0.709   0.986   3.470 -0.0356 -0.4423 -1.0295
19493TIP3    H279895   0.608   0.877   3.501  0.1882 -0.4177 -0.1826
19494TIP3   OH279896   3.055   4.146  15.824 -0.4479 -0.2060  0.3946
19494TIP3    H179897   3.117   4.168  15.754 -1.8290 -0.2629 -0.8758
19494TIP3    H279898   2.978   4.200  15.807 -0.7414 -0.0368  2.0310
19495TIP3   OH279899   2.930   4.407   2.124 -0.6114 -0.6235 -0.3024
19495TIP3    H179900   2.920   4.499   2.099 -1.0044 -0.6744 -0.3276
19495TIP3    H279901   2.994   4.372   2.062  0.0333 -0.2041  0.1140
19496TIP3   OH279902   0.076   5.619  15.255 -0.4034  0.5564  0.0793
19496TIP3    H179903   0.006   5.672  15.295  1.2810  1.9672  1.2940
19496TIP3    H279904   0.039   5.590  15.172 -2.3021  1.5680  0.5110
19497TIP3   OH279905   2.983   0.848   3.104 -0.0970 -0.5122 -0.0608
19497TIP3    H179906   3.020   0.824   3.188 -0.5894  1.3014  0.7329
19497TIP3    H279907   3.057   0.882   3.053 -0.0284 -0.3581  0.1424
19498TIP3   OH279908   2.401   5.773  12.243  0.3763 -1.3985 -0.3606
19498TIP3    H179909   2.358   5.805  12.163  1.4169  0.7765 -0.1224
19498TIP3    H279910   2.490   5.751  12.214  1.4243  1.3588  0.4856
19499TIP3   OH279911   2.860   4.900   0.197 -0.4415 -0.4269 -0.3631
19499TIP3    H179912   2.913   4.822   0.180  1.2423  1.1677 -3.5143
19499TIP3    H279913   2.920   4.962   0.238 -0.9266  0.1714 -0.5325
19500TIP3   OH279914   4.906   4.909   3.054  0.8691  0.0982  0.0244
19500TIP3    H179915   4.842   4.969   3.016 -0.1981 -1.6532 -1.0666
19500TIP3    H279916   4.965   4.888   2.982  0.5956 -0.9740  0.1007
19501TIP3   OH279917   4.660   6.260   1.586 -0.0177 -0.3467  0.3174
19501TIP3    H179918   4.712   6.219   1.656  0.4255 -1.7005 -0.7749
19501TIP3    H279919   4.721   6.273   1.515 -0.8394 -0.5756 -0.4495
19502TIP3   OH279920   4.699   0.841  14.664 -0.0941  0.4119 -0.5864
19502TIP3    H179921   4.719   0.862  14.755 -0.3245 -0.0617 -0.4222
19502TIP3    H279922   4.718   0.747  14.657  0.1535  0.4964 -1.0901
19503TIP3   OH279923   0.065   1.249  16.086 -0.1970  0.0466 -0.8651
19503TIP3    H179924   0.065   1.301  16.006 -1.3296  2.0522  0.3511
19503TIP3    H279925  -0.025   1.216  16.093 -0.1522  0.0173 -0.3422
19504TIP3   OH279926   6.358   5.307  12.266 -0.4398 -0.9036  0.0420
19504TIP3    H179927   6.321   5.381  12.218  0.0734 -0.3494  0.4865
19504TIP3    H279928   6.418   5.266  12.204 -1.8141 -1.8743 -0.7238
19505TIP3   OH279929   5.681   1.725  11.029  0.2113  0.3502  0.1489
19505TIP3    H179930   5.732   1.776  10.966 -1.3342 -0.5620 -1.9677
19505TIP3    H279931   5.686   1.635  10.996 -0.5403 -0.1799  1.4215
19506TIP3   OH279932   5.101   1.069  16.478 -0.6344 -0.0469  0.4265
19506TIP3    H179933   5.087   1.144  16.535 -0.9286 -0.3840  0.7942
19506TIP3    H279934   5.194   1.048  16.488 -0.5106  0.3849  0.1795
19507TIP3   OH279935   1.570   6.492   3.805 -0.4576 -0.1699 -0.2626
19507TIP3    H179936   1.572   6.406   3.763 -0.7787 -0.1743 -0.2668
19507TIP3    H279937   1.479   6.504   3.834 -0.7048  0.6766 -1.3184
19508TIP3   OH279938   0.107   1.288   1.462  0.3572  0.5601  0.1301
19508TIP3    H179939   0.109   1.348   1.536  1.0941 -0.8377  1.2951
19508TIP3    H279940   0.017   1.256   1.460  0.4344  0.2942  0.6939
19509TIP3   OH279941   2.224   4.220  12.233 -0.2436 -0.6473 -0.6195
19509TIP3    H179942   2.162   4.216  12.305  0.3314  0.9635  0.0077
19509TIP3    H279943   2.293   4.158  12.257  0.0482  0.0310  0.3431
19510TIP3   OH279944   6.149   2.115  16.158 -0.5439  0.1343  0.2406
19510TIP3    H179945   6.203   2.125  16.079 -0.0814  0.2540  0.5637
19510TIP3    H279946   6.103   2.033  16.146 -0.1597 -0.0515  0.0254
19511TIP3   OH279947   5.604   5.191   1.962 -0.1740  0.6816 -0.0547
19511TIP3    H179948   5.533   5.192   2.027 -0.3759 -2.4780 -0.0555
19511TIP3    H279949   5.560   5.171   1.879  0.4356  1.5073 -0.5866
19512TIP3   OH279950   5.921   5.867  15.087 -0.1618  0.1757  0.0813
19512TIP3    H179951   5.905   5.779  15.053 -0.4002 -0.1697  1.0460
19512TIP3    H279952   6.016   5.877  15.082 -0.1656  0.0237 -0.3963
19513TIP3   OH279953   3.761   4.160  14.801  0.5379 -0.3733 -0.2081
19513TIP3    H179954   3.836   4.216  14.778  0.2895 -0.3664 -1.0334
19513TIP3    H279955   3.695   4.181  14.734 -0.4320  0.0719  0.8614
19514TIP3   OH279956   5.821   1.294   2.442 -0.6806 -0.3112  0.2390
19514TIP3    H179957   5.832   1.230   2.372 -0.2072 -0.4442  0.4331
19514TIP3    H279958   5.730   1.283   2.470 -1.1907  0.4548 -1.0451
19515TIP3   OH279959   6.354   4.497   1.805  0.0182  0.6233  0.5895
19515TIP3    H179960   6.431   4.502   1.862  1.6871  1.7615 -1.6086
19515TIP3    H279961   6.358   4.409   1.768  0.9518  1.0317 -0.3411
19516TIP3   OH279962   6.489   1.884   2.977  0.3200  0.3735  0.1230
19516TIP3    H179963   6.439   1.874   3.058  1.2363  1.1487  0.8077
19516TIP3    H279964   6.439   1.835   2.912 -0.5419 -0.0952  1.1074
19517TIP3   OH279965   2.231   5.577  12.351 -0.5771  0.1760 -0.0352
19517TIP3    H179966   2.165   5.605  12.288 -0.7335 -0.9947 -0.4191
19517TIP3    H279967   2.310   5.626  12.326 -0.8757  0.3861 -0.5853
19518TIP3   OH279968   1.605   6.008  12.362 -0.3291  0.1487  0.6963
19518TIP3    H179969   1.660   5.930  12.354 -0.0253  0.2139  1.8576
19518TIP3    H279970   1.592   6.039  12.273  0.9205 -0.2919  0.3494
19519TIP3   OH279971   1.803   6.634   3.794  0.3652  0.1513 -0.0911
19519TIP3    H179972   1.724   6.581   3.797 -0.1370  0.8678 -0.2908
19519TIP3    H279973   1.867   6.586   3.846  0.0511 -0.8363 -0.6047
19520TIP3   OH279974   4.583   1.776  16.884  0.0033  0.7326 -0.3844
19520TIP3    H179975   4.663   1.741  16.845  0.4542  2.1896 -0.8386
19520TIP3    H279976   4.591   1.871  16.874  0.1429  1.2365  3.2611
19521TIP3   OH279977   0.751   1.190   3.614  0.5584  0.6103  0.6382
19521TIP3    H179978   0.680   1.128   3.600  2.2015 -1.1757 -0.1440
19521TIP3    H279979   0.744   1.251   3.541  1.2917 -1.0264 -0.8514
19522TIP3   OH279980   3.580   4.452   3.015  0.5351  0.1568 -0.1344
19522TIP3    H179981   3.536   4.471   3.098  0.7372 -0.5788  0.1499
19522TIP3    H279982   3.596   4.358   3.017 -0.7183 -0.1529 -1.6210
19523TIP3   OH279983   2.343   3.794   3.680  0.1345  0.6977 -0.5468
19523TIP3    H179984   2.427   3.780   3.637 -1.1576 -0.4072 -2.9668
19523TIP3    H279985   2.328   3.888   3.675  0.5858  0.7327 -1.4770
19524TIP3   OH279986   6.511   2.044   2.628 -0.3468  0.2285  0.1426
19524TIP3    H179987   6.600   2.065   2.657  0.2295 -0.5253 -1.0460
19524TIP3    H279988   6.499   1.953   2.654 -0.7546  0.3092  0.2353
19525TIP3   OH279989   5.301   1.074   5.739 -0.1384  0.4391 -0.2897
19525TIP3    H179990   5.233   1.131   5.704 -1.0000  0.0253  0.6705
19525TIP3    H279991   5.272   1.053   5.828  0.5260 -0.8941 -0.3572
19526TIP3   OH279992   3.609   1.617  11.287 -0.2159  0.4943 -0.4654
19526TIP3    H179993   3.699   1.646  11.296  0.2504 -1.1960  0.8498
19526TIP3    H279994   3.612   1.546  11.222 -0.7563  1.0353 -1.0974
19527TIP3   OH279995   5.098   1.787  16.175  0.4748 -0.4367  0.3290
19527TIP3    H179996   5.099   1.793  16.270  1.1585 -0.8395  0.3580
19527TIP3    H279997   5.151   1.861  16.146  0.8558 -0.7161  0.2976
19528TIP3   OH279998   4.182   0.519  15.059 -0.4033 -0.6171 -0.1237
19528TIP3    H179999   4.259   0.575  15.065  1.4989 -3.1248  1.1533
19528TIP3    H280000   4.189   0.476  14.974 -1.2235  0.2293 -0.6258
19529TIP3   OH280001   0.665   4.026   0.972 -0.1069 -0.1080  0.3993
19529TIP3    H180002   0.695   3.971   1.045  1.8309  1.1702  0.6462
19529TIP3    H280003   0.706   3.987   0.894  0.1606  0.1770  0.3942
19530TIP3   OH280004   0.951   1.800  15.915 -0.4166  0.4849 -0.4208
19530TIP3    H180005   1.003   1.766  15.988 -0.5459  0.3131 -0.4090
19530TIP3    H280006   0.905   1.723  15.880  0.4382  0.3584 -1.3335
19531TIP3   OH280007   2.069   5.927  14.880  0.1685  0.3434  0.4086
19531TIP3    H180008   2.144   5.870  14.894  1.9601  2.3612 -0.3551
19531TIP3    H280009   1.995   5.881  14.920  1.7488 -1.8180  1.0087
19532TIP3   OH280010   0.789   2.487   0.157  0.1129 -0.3259 -0.1597
19532TIP3    H180011   0.742   2.510   0.077  1.9152  1.1566 -0.8580
19532TIP3    H280012   0.854   2.423   0.129  1.9452  1.5116 -0.3231
19533TIP3   OH280013   0.109   2.636  16.312 -0.1934 -0.5609  0.0659
19533TIP3    H180014   0.201   2.610  16.314 -0.1075 -0.2105  1.0338
19533TIP3    H280015   0.107   2.725  16.347 -0.5673  0.6138 -2.6758
19534TIP3   OH280016   0.162   2.740   6.469  0.3825 -0.2161 -0.4164
19534TIP3    H180017   0.095   2.736   6.400  1.2707 -0.8215 -1.2664
19534TIP3    H280018   0.213   2.818   6.448 -1.1029  1.2982  1.2671
19535TIP3   OH280019   2.591   1.294   0.977 -0.3235 -0.1232  0.3586
19535TIP3    H180020   2.657   1.245   1.026  0.3043  0.0898 -0.2679
19535TIP3    H280021   2.518   1.302   1.039  1.1431  1.7599  1.9787
19536TIP3   OH280022   5.577   2.549  11.784  0.1707  0.6958 -0.5351
19536TIP3    H180023   5.625   2.560  11.866  0.2355 -3.2646  0.1577
19536TIP3    H280024   5.485   2.552  11.810  0.1889 -0.9276 -0.1341
19537TIP3   OH280025   6.678   2.124   0.535  0.1527 -0.1285 -0.0020
19537TIP3    H180026   6.588   2.141   0.509  0.9119  1.4186 -1.8239
19537TIP3    H280027   6.671   2.060   0.607 -2.4731  1.6468  1.4675
19538TIP3   OH280028   4.019   5.754  17.006  0.0763  0.4769 -0.0295
19538TIP3    H180029   3.999   5.713  16.922  0.3758  1.9688 -0.8650
19538TIP3    H280030   4.005   5.685  17.071  0.6102 -0.9295 -1.3643
19539TIP3   OH280031   4.011   5.064  10.173  0.0830 -0.8044  0.1707
19539TIP3    H180032   4.072   5.039  10.103  0.1217  2.0940 -0.9740
19539TIP3    H280033   4.063   5.117  10.232 -0.2049 -2.4102  1.9459
19540TIP3   OH280034   1.418   5.284   1.964 -0.0385 -0.0880  0.1609
19540TIP3    H180035   1.364   5.348   2.011 -0.6791 -1.0608  0.7860
19540TIP3    H280036   1.495   5.272   2.019 -0.3779 -0.5709  0.5409
19541TIP3   OH280037   4.991   1.042   6.793 -0.0698 -0.0373 -0.5952
19541TIP3    H180038   5.014   1.122   6.840  0.8062  0.5823 -2.0317
19541TIP3    H280039   5.075   0.997   6.781 -0.4914 -0.9463 -0.2495
19542TIP3   OH280040   6.751   2.099  14.850 -0.2848 -0.0942  0.3557
19542TIP3    H180041   6.758   2.088  14.945  0.2602 -0.8688  0.2274
19542TIP3    H280042   6.808   2.032  14.813  0.0940  0.6952 -0.5146
19543TIP3   OH280043   5.466   4.911  17.061 -0.3177 -0.3013 -1.0240
19543TIP3    H180044   5.477   4.904  16.966 -0.3829  0.2611 -1.0796
19543TIP3    H280045   5.555   4.916  17.096 -0.2976  1.0274 -1.1957
19544TIP3   OH280046   6.314   1.838  16.807 -0.2349 -0.5525 -0.3606
19544TIP3    H180047   6.354   1.802  16.886  0.9858 -2.1579 -1.6322
19544TIP3    H280048   6.386   1.885  16.764 -0.8672  0.2365 -0.5758
19545TIP3   OH280049   5.642   0.916  16.134  0.7512 -0.4279  0.6251
19545TIP3    H180050   5.720   0.915  16.078  0.9186  1.5470  0.7724
19545TIP3    H280051   5.579   0.969  16.086  0.8186  1.1369  2.1682
19546TIP3   OH280052   3.050   0.810  11.901 -0.3594  0.3592 -0.3362
19546TIP3    H180053   2.995   0.883  11.932 -0.6770  0.1571 -0.4205
19546TIP3    H280054   3.115   0.851  11.845 -0.2157  0.6446  0.0329
19547TIP3   OH280055   0.618   5.325  16.436 -0.0044 -0.1889 -0.0245
19547TIP3    H180056   0.611   5.317  16.531 -0.1062  1.2352  0.1161
19547TIP3    H280057   0.706   5.359  16.421 -0.8586  2.1964 -0.1878
19548TIP3   OH280058   1.588   5.725  14.255 -0.1632 -0.4259 -0.3583
19548TIP3    H180059   1.639   5.805  14.257  1.3632 -1.3676  1.1190
19548TIP3    H280060   1.516   5.740  14.317  0.0202 -0.1317 -0.2155
19549TIP3   OH280061   3.172   6.225   2.397  0.5988  0.4500  0.4264
19549TIP3    H180062   3.088   6.217   2.353  0.9827 -0.5770 -0.1644
19549TIP3    H280063   3.156   6.285   2.469 -0.3902  1.0731 -0.2824
19550TIP3   OH280064   1.204   0.366  13.457  0.3179 -0.3133 -1.0432
19550TIP3    H180065   1.190   0.278  13.423  0.3903 -0.3513 -0.9757
19550TIP3    H280066   1.156   0.368  13.540  5.8557 -2.7186  2.8793
19551TIP3   OH280067   6.796   6.123  14.423  0.7153  0.2512 -0.2615
19551TIP3    H180068   6.795   6.165  14.509  0.8217 -0.6863  0.2041
19551TIP3    H280069   6.854   6.179  14.370  2.5070 -0.3951  0.9201
19552TIP3   OH280070   0.159   4.282  10.701  0.7510  0.1707 -0.3535
19552TIP3    H180071   0.247   4.319  10.705  0.2455  1.6836 -1.8305
19552TIP3    H280072   0.166   4.211  10.636  0.7978  0.5935 -0.8166
19553TIP3   OH280073   5.352   3.371   3.939  0.1459 -0.2906 -0.6561
19553TIP3    H180074   5.291   3.383   4.011 -0.2905  1.0704 -1.2180
19553TIP3    H280075   5.301   3.390   3.861  1.3674  1.3436 -1.1098
19554TIP3   OH280076   4.202   4.083   5.622  0.1532  0.2262  0.1578
19554TIP3    H180077   4.233   4.061   5.534 -1.3061 -0.3142 -0.2614
19554TIP3    H280078   4.191   4.178   5.621  1.0981  0.3439  0.1005
19555TIP3   OH280079   2.191   6.065  15.503  0.0124 -0.6882 -0.0718
19555TIP3    H180080   2.248   6.074  15.427 -1.8903 -0.5273 -1.5647
19555TIP3    H280081   2.228   6.124  15.568  0.6165  0.6425 -1.5663
19556TIP3   OH280082   5.898   0.105   1.787 -0.2203  0.3154  0.0827
19556TIP3    H180083   5.827   0.046   1.815  0.6035 -1.4417 -1.3404
19556TIP3    H280084   5.973   0.078   1.841 -0.1523  0.9315  0.2998
19557TIP3   OH280085   1.379   5.328  10.852 -0.4448  0.0431 -0.4433
19557TIP3    H180086   1.450   5.270  10.879  1.0093  0.8999 -2.1413
19557TIP3    H280087   1.417   5.416  10.858 -1.2183  0.4954 -1.7466
19558TIP3   OH280088   4.230   3.498  13.229 -0.4460  0.6555 -0.4607
19558TIP3    H180089   4.145   3.464  13.254 -0.8302  1.3119 -0.8143
19558TIP3    H280090   4.272   3.427  13.181 -0.7072  0.2566 -0.0974
19559TIP3   OH280091   0.574   1.674   5.900  0.4391 -0.4605 -0.0092
19559TIP3    H180092   0.661   1.708   5.919  0.2912 -0.8364  1.3996
19559TIP3    H280093   0.514   1.747   5.917  0.4164 -0.3723 -0.4384
19560TIP3   OH280094   5.637   6.065  11.475 -0.1956  0.0333  0.2827
19560TIP3    H180095   5.720   6.086  11.431 -0.8860 -0.2695 -1.2554
19560TIP3    H280096   5.652   5.979  11.514  0.2882  0.0703  0.1882
19561TIP3   OH280097   1.452   5.358   2.665 -0.6328  0.2036  0.2475
19561TIP3    H180098   1.410   5.436   2.702 -1.5981  0.4984 -1.3525
19561TIP3    H280099   1.405   5.284   2.703 -0.3646  0.4227  1.0221
19562TIP3   OH280100   3.491   5.760   0.921 -0.0840  0.5432 -0.1431
19562TIP3    H180101   3.470   5.852   0.938 -0.9414  0.8250 -2.4080
19562TIP3    H280102   3.408   5.722   0.891  0.1783 -1.0788  1.0392
19563TIP3   OH280103   1.915   4.173   2.997 -0.4500  0.2199  0.2419
19563TIP3    H180104   1.846   4.136   3.052  0.2979 -1.4116  0.1244
19563TIP3    H280105   1.909   4.267   3.013 -0.9460 -0.1073  2.2905
19564TIP3   OH280106   0.122   2.070   0.404 -0.2137 -0.5227  0.4595
19564TIP3    H180107   0.133   2.135   0.334  1.0033  0.5487  1.5875
19564TIP3    H280108   0.035   2.088   0.440  1.0462  2.3376  2.4591
19565TIP3   OH280109   2.592   2.762   4.654 -0.1939  0.3557 -0.1140
19565TIP3    H180110   2.677   2.757   4.697 -0.2985  1.0842  0.1927
19565TIP3    H280111   2.571   2.856   4.652 -0.0005  0.3928 -2.1170
19566TIP3   OH280112   0.574   3.996   4.234 -0.0743 -0.2615 -0.2022
19566TIP3    H180113   0.625   3.987   4.314 -1.0983  0.5736  0.5625
19566TIP3    H280114   0.526   4.078   4.244  0.1257  0.1051 -1.8849
19567TIP3   OH280115   0.285   6.289   5.094 -0.0102  0.0817  0.2731
19567TIP3    H180116   0.292   6.345   5.017  1.5820 -0.3389  0.0794
19567TIP3    H280117   0.289   6.200   5.060 -0.3191 -0.1250  0.7657
19568TIP3   OH280118   5.302   0.360   4.596 -0.6627  0.2340 -0.0410
19568TIP3    H180119   5.321   0.338   4.687 -1.4349 -0.6490 -0.0715
19568TIP3    H280120   5.379   0.408   4.566  0.4964 -1.2174  0.4772
19569TIP3   OH280121   3.444   3.303  11.766 -0.2534 -0.0263 -0.4902
19569TIP3    H180122   3.507   3.231  11.756 -0.5352 -0.2220 -0.9176
19569TIP3    H280123   3.362   3.260  11.788 -0.0839  0.2815  0.8434
19570TIP3   OH280124   5.151   4.722   5.883  0.5810  0.1658  0.6335
19570TIP3    H180125   5.059   4.747   5.868  0.6913  0.0880 -0.2497
19570TIP3    H280126   5.191   4.728   5.796  1.4377  0.2879  1.0326
19571TIP3   OH280127   4.919   5.512   2.919 -0.8713  0.1229  0.1379
19571TIP3    H180128   4.934   5.459   2.841 -1.7401  1.3968 -0.9374
19571TIP3    H280129   4.876   5.453   2.980 -0.2438 -0.8753 -0.3528
19572TIP3   OH280130   2.102   0.494  13.810 -0.2813 -0.3314 -0.5842
19572TIP3    H180131   2.017   0.527  13.782  0.1272  1.1202 -0.2161
19572TIP3    H280132   2.154   0.489  13.730  0.0979  1.4042 -0.5013
19573TIP3   OH280133   5.327   6.453   4.517 -0.1556 -0.0256 -0.1864
19573TIP3    H180134   5.330   6.368   4.474 -0.2759  0.0624 -0.3708
19573TIP3    H280135   5.243   6.491   4.489 -1.4335 -0.9816  2.0424
19574TIP3   OH280136   1.736   4.739  11.579  0.9165  0.0147 -0.1754
19574TIP3    H180137   1.730   4.816  11.522 -0.5335  0.1413  0.0959
19574TIP3    H280138   1.794   4.766  11.650  0.6715  0.7649 -0.2528
19575TIP3   OH280139   3.306   5.066  12.695  0.5018  0.3926 -0.2341
19575TIP3    H180140   3.297   5.060  12.600  4.1761 -1.7790 -0.6392
19575TIP3    H280141   3.377   5.129  12.708  2.2064 -1.6280  0.7791
19576TIP3   OH280142   3.361   0.123  13.615 -0.2582 -0.1461  0.2694
19576TIP3    H180143   3.348   0.056  13.682  0.5243  0.9913  1.6035
19576TIP3    H280144   3.403   0.077  13.543 -0.0336 -1.1600  1.0304
19577TIP3   OH280145   1.094   0.139  16.907 -0.1845 -0.4680  0.3472
19577TIP3    H180146   1.129   0.133  16.818  0.6658  0.7595  0.5667
19577TIP3    H280147   1.107   0.052  16.944  0.2930 -0.7415 -0.4286
19578TIP3   OH280148   0.368   0.988  11.307 -0.6246  0.0007 -0.7066
19578TIP3    H180149   0.345   0.972  11.398 -0.8054 -0.1154 -0.7700
19578TIP3    H280150   0.432   0.920  11.286  0.9978  1.2667 -0.0786
19579TIP3   OH280151   3.621   6.540   3.323 -0.6962  0.3159  0.2769
19579TIP3    H180152   3.573   6.527   3.241  1.5459 -0.9884 -0.9176
19579TIP3    H280153   3.659   6.628   3.315 -0.8216  0.3546  0.1018
19580TIP3   OH280154   4.685   1.033  15.375  0.1412 -0.0624  0.1257
19580TIP3    H180155   4.718   1.122  15.363  0.2337  0.3790  3.0256
19580TIP3    H280156   4.648   1.010  15.290  3.2186  1.3851 -1.7943
19581TIP3   OH280157   2.805   4.845  14.668 -0.1483  0.7989 -0.4668
19581TIP3    H180158   2.884   4.796  14.644  0.6387  1.9205 -0.2321
19581TIP3    H280159   2.733   4.785  14.647  0.7430 -0.1657 -0.8878
19582TIP3   OH280160   1.915   1.653  11.907  0.1517  0.1020  0.0914
19582TIP3    H180161   1.942   1.611  11.826  4.4128  0.2737  1.1394
19582TIP3    H280162   1.866   1.586  11.954 -1.0353 -0.5144 -1.9338
19583TIP3   OH280163   1.006   6.628   1.375 -0.4720  0.2749 -0.3447
19583TIP3    H180164   1.031   6.718   1.355 -0.4350  0.3525  0.0323
19583TIP3    H280165   1.063   6.575   1.320  1.0229  0.4307  0.9605
19584TIP3   OH280166   2.652   5.628  16.133  0.4117 -0.2709  0.2171
19584TIP3    H180167   2.619   5.680  16.206  1.3193  0.8166 -0.1158
19584TIP3    H280168   2.712   5.565  16.174  0.0889 -0.3854  0.5185
19585TIP3   OH280169   2.288   4.914   1.501  0.1382 -0.0609 -0.0333
19585TIP3    H180170   2.267   4.960   1.582  0.0838 -1.4464  0.7788
19585TIP3    H280171   2.383   4.922   1.492 -0.1379  2.8784 -1.6333
19586TIP3   OH280172   1.458   1.555   4.643  0.0215 -0.2949 -0.1816
19586TIP3    H180173   1.392   1.578   4.708  0.4352 -0.3357  0.2569
19586TIP3    H280174   1.531   1.615   4.660 -0.3812  0.6304 -1.4817
19587TIP3   OH280175   3.971   6.351   1.167 -1.0010 -0.0387  0.7383
19587TIP3    H180176   3.963   6.354   1.072 -2.4835  2.5221  0.8543
19587TIP3    H280177   4.044   6.410   1.187 -0.3958 -0.9167  1.2037
19588TIP3   OH280178   4.806   4.038   2.334  0.4097 -0.0461 -0.0054
19588TIP3    H180179   4.888   4.081   2.357  1.1528 -1.5275  0.2577
19588TIP3    H280180   4.796   3.969   2.400 -2.0599  1.2789  1.1600
19589TIP3   OH280181   3.939   1.890   3.096 -0.3456  0.0783 -0.1527
19589TIP3    H180182   3.935   1.801   3.133  1.1358  0.8637  2.0998
19589TIP3    H280183   4.024   1.893   3.052  0.7872  1.0859  1.9655
19590TIP3   OH280184   3.881   0.519   5.626 -0.0213  0.1628 -0.2367
19590TIP3    H180185   3.825   0.595   5.611 -1.0984 -0.6612 -0.4713
19590TIP3    H280186   3.891   0.515   5.721  1.3617  1.5128 -0.2903
19591TIP3   OH280187   0.725   5.255  12.020 -0.0436  0.6482  0.0031
19591TIP3    H180188   0.819   5.262  12.001 -0.2796  0.1436 -1.4499
19591TIP3    H280189   0.720   5.255  12.116  1.3971  1.1255  0.1042
19592TIP3   OH280190   6.775   4.412  14.055 -0.0410  0.4580  0.1468
19592TIP3    H180191   6.727   4.431  13.974 -2.0948 -0.3892  1.1099
19592TIP3    H280192   6.827   4.335  14.034  0.5005  1.0364 -0.7392
19593TIP3   OH280193   4.161   3.161   2.521 -0.4519  0.3793  0.6858
19593TIP3    H180194   4.177   3.214   2.599 -3.2541 -0.2080  1.7683
19593TIP3    H280195   4.104   3.216   2.467 -1.6450 -0.6627  0.8516
19594TIP3   OH280196   0.943   1.086  15.257 -0.7130 -0.3463  0.4419
19594TIP3    H180197   0.885   1.122  15.190 -0.3906  1.4219  1.0508
19594TIP3    H280198   1.010   1.039  15.207 -1.1674 -0.1156 -0.4091
19595TIP3   OH280199   4.771   5.597   3.186 -0.1970 -0.5442 -0.1151
19595TIP3    H180200   4.862   5.615   3.209  0.2755 -0.0198 -2.1749
19595TIP3    H280201   4.727   5.582   3.270  1.3864  1.0149  1.0604
19596TIP3   OH280202   6.552   2.690   2.570  0.2009 -0.2293  0.2321
19596TIP3    H180203   6.563   2.675   2.476 -2.1301  0.0181 -0.1518
19596TIP3    H280204   6.637   2.721   2.600  0.6502  0.9507 -2.0607
19597TIP3   OH280205   3.321   1.965   1.039 -0.1576  0.0753  0.0716
19597TIP3    H180206   3.305   2.051   1.000  0.9449  0.6926  0.9294
19597TIP3    H280207   3.307   1.978   1.132 -1.5282 -1.0921  0.0622
19598TIP3   OH280208   6.381   0.434  15.013 -0.1325  0.4692  0.6433
19598TIP3    H180209   6.372   0.406  14.922  0.4256  3.4200 -0.4407
19598TIP3    H280210   6.431   0.363  15.055  2.3023  0.3287 -2.1354
19599TIP3   OH280211   6.002   3.266  13.787 -0.4419  0.4108  0.3772
19599TIP3    H180212   5.978   3.289  13.877  0.1943  0.8967  0.4282
19599TIP3    H280213   6.003   3.170  13.786 -0.3127  0.4067  0.9196
19600TIP3   OH280214   2.089   0.779  13.631 -0.2359 -0.6056 -0.1298
19600TIP3    H180215   2.129   0.697  13.601  1.1998 -0.1388  0.4149
19600TIP3    H280216   2.015   0.752  13.684  0.6190 -1.5970  0.6056
19601TIP3   OH280217   6.798   2.593   6.100  0.7734 -0.5539  0.2390
19601TIP3    H180218   6.878   2.542   6.091  1.3645  0.5149 -0.9085
19601TIP3    H280219   6.822   2.662   6.162  0.1326 -1.3450  1.3940
19602TIP3   OH280220   6.364   3.595   4.797 -0.8884  0.1971  0.1490
19602TIP3    H180221   6.341   3.554   4.881 -2.7241 -1.4349 -1.0591
19602TIP3    H280222   6.305   3.670   4.790  0.8739  1.7718  1.3048
19603TIP3   OH280223   1.701   1.786  13.272 -0.4811  0.0428  0.2925
19603TIP3    H180224   1.781   1.735  13.286  0.3505  1.5253  1.2034
19603TIP3    H280225   1.690   1.787  13.177  0.3022 -0.6067  0.1822
19604TIP3   OH280226   3.713   0.155  13.577  0.2378  0.3764 -0.1148
19604TIP3    H180227   3.672   0.210  13.510 -2.3571  0.2012  1.2167
19604TIP3    H280228   3.665   0.073  13.573  1.1125 -0.2068  0.9132
19605TIP3   OH280229   1.076   2.426   2.185  0.0543 -0.0381 -0.3720
19605TIP3    H180230   1.105   2.372   2.111  0.9696 -0.3542  0.1913
19605TIP3    H280231   1.145   2.414   2.250 -1.7298 -1.4223  1.3628
19606TIP3   OH280232   6.470   0.599  13.981 -0.2415  0.3278 -0.0640
19606TIP3    H180233   6.440   0.546  14.055  0.5457 -1.5076 -0.9944
19606TIP3    H280234   6.429   0.559  13.904 -2.5655  3.3202 -0.5839
19607TIP3   OH280235   6.353   6.681   5.548  0.1461 -0.0199  0.0202
19607TIP3    H180236   6.360   6.626   5.626 -1.2385  1.5728  1.3546
19607TIP3    H280237   6.259   6.694   5.536  0.4024  1.6465 -0.5012
19608TIP3   OH280238   0.541   0.394   3.198 -0.1680 -0.2539  0.1965
19608TIP3    H180239   0.451   0.394   3.229  0.0950  2.4860  1.2145
19608TIP3    H280240   0.592   0.364   3.273 -0.0821 -0.1138  0.1940
19609TIP3   OH280241   0.861   2.615  11.396 -0.2463  0.1168  0.2118
19609TIP3    H180242   0.895   2.676  11.330 -0.3028  1.2030  1.1572
19609TIP3    H280243   0.769   2.605  11.374  0.3688 -2.0382 -1.7519
19610TIP3   OH280244   1.952   3.023   5.132 -0.0746  0.0101 -0.5096
19610TIP3    H180245   1.863   3.004   5.162  0.1907 -1.1377 -0.4390
19610TIP3    H280246   1.983   2.941   5.094  1.4430 -0.0033  0.6714
19611TIP3   OH280247   5.157   2.391   3.555  0.4944 -0.1080 -0.1843
19611TIP3    H180248   5.094   2.332   3.513  0.5191  0.1775 -0.6290
19611TIP3    H280249   5.132   2.391   3.647 -0.0446 -0.1443 -0.3252
19612TIP3   OH280250   4.002   4.606   0.090  0.2544  0.7205 -0.6296
19612TIP3    H180251   3.926   4.583   0.144  0.9382  0.2211  0.1560
19612TIP3    H280252   4.040   4.682   0.134  1.2533 -0.1481  0.0558
19613TIP3   OH280253   4.898   5.776   3.646 -0.5131  0.5503 -0.0693
19613TIP3    H180254   4.821   5.724   3.671  0.2038 -1.4322 -1.6392
19613TIP3    H280255   4.971   5.734   3.693 -0.0099  0.5887 -0.8039
19614TIP3   OH280256   5.637   1.055   0.964 -0.1165  0.0645 -0.4036
19614TIP3    H180257   5.587   1.112   0.906 -0.3517  0.4352  0.1551
19614TIP3    H280258   5.614   1.084   1.053  0.0770 -0.6255 -0.1157
19615TIP3   OH280259   1.546   1.222   5.421  0.2119 -0.7877  0.2081
19615TIP3    H180260   1.598   1.164   5.366 -0.1651  0.4293 -1.4767
19615TIP3    H280261   1.459   1.223   5.380  0.2716  1.1318  0.0576
19616TIP3   OH280262   6.220   1.655  16.566 -0.6516  0.4347  0.4901
19616TIP3    H180263   6.280   1.579  16.566  1.9072  2.2900 -0.6162
19616TIP3    H280264   6.218   1.684  16.657  0.1237  0.3157  0.5544
19617TIP3   OH280265   5.817   2.273  12.084  0.2562  0.0219 -0.5191
19617TIP3    H180266   5.790   2.218  12.010  0.4323  0.0503 -0.6042
19617TIP3    H280267   5.757   2.248  12.155  0.5467 -0.5168 -0.4576
19618TIP3   OH280268   5.637   3.492   3.399 -0.0381  0.0747  0.5224
19618TIP3    H180269   5.579   3.483   3.474  0.3082  1.5086  0.9896
19618TIP3    H280270   5.713   3.539   3.433  0.1389  0.7333 -0.7167
19619TIP3   OH280271   3.805   2.120  15.352  0.5626 -0.1722 -0.4450
19619TIP3    H180272   3.731   2.103  15.410 -1.7600  1.8609 -2.5698
19619TIP3    H280273   3.857   2.185  15.398 -0.6124  0.5769 -0.1431
19620TIP3   OH280274   0.290   0.617  16.831  0.3426 -0.4914  0.2398
19620TIP3    H180275   0.250   0.666  16.759  2.2120  2.4380  0.9990
19620TIP3    H280276   0.217   0.593  16.888 -0.8642 -0.3658 -1.2069
19621TIP3   OH280277   2.011   0.157   1.881 -0.6186 -0.6944  0.7805
19621TIP3    H180278   1.960   0.210   1.942 -0.6461  0.4795 -0.2110
19621TIP3    H280279   2.078   0.217   1.847  2.3189 -2.4795  2.9618
19622TIP3   OH280280   0.508   1.500  11.555  0.5168  0.2675 -0.0181
19622TIP3    H180281   0.461   1.534  11.480  1.3514 -0.6567 -0.9954
19622TIP3    H280282   0.439   1.477  11.618 -0.1336  2.1210  0.0128
19623TIP3   OH280283   0.514   6.805   1.073  0.6727  0.2481 -0.0097
19623TIP3    H180284   0.421   6.782   1.074  0.5934  0.3113  3.3025
19623TIP3    H280285   0.560   6.721   1.070  0.4315  0.0044  1.9161
19624TIP3   OH280286   1.614   0.582  13.811  0.2958 -0.1008  0.0513
19624TIP3    H180287   1.604   0.551  13.901 -3.4019  0.4727 -0.0078
19624TIP3    H280288   1.660   0.666  13.819 -1.9149  1.0405  1.7334
19625TIP3   OH280289   5.631   2.284  15.060  0.4941 -0.4215  0.4131
19625TIP3    H180290   5.548   2.320  15.093  0.8856  0.1977  0.7395
19625TIP3    H280291   5.611   2.257  14.970  0.2837  0.9751  0.0239
19626TIP3   OH280292   5.220   5.174  16.858 -0.5859 -0.3262 -0.2354
19626TIP3    H180293   5.184   5.087  16.875  0.2406 -0.7929 -0.8062
19626TIP3    H280294   5.188   5.196  16.771  0.9265 -0.9926 -0.9923
19627TIP3   OH280295   6.567   1.685   1.299 -0.3670  0.4425 -0.2688
19627TIP3    H180296   6.541   1.596   1.322 -1.4398  1.1596  1.5117
19627TIP3    H280297   6.645   1.701   1.353  0.3743  0.2880 -1.2713
19628TIP3   OH280298   5.305   0.065  11.610 -0.4800 -0.0251  0.7207
19628TIP3    H180299   5.309  -0.020  11.568 -2.2099 -0.3320  1.0832
19628TIP3    H280300   5.319   0.048  11.703  0.8281  0.3274  0.6105
19629TIP3   OH280301   0.504   5.039   1.706  0.3501  0.1187  0.1524
19629TIP3    H180302   0.534   5.036   1.797 -0.6957  0.9169  0.5421
19629TIP3    H280303   0.492   4.947   1.682  1.5096 -0.1503  0.4993
19630TIP3   OH280304   2.199   5.569   5.920  0.2806 -0.0537 -0.0431
19630TIP3    H180305   2.236   5.628   5.985 -0.3260  0.7499 -0.4053
19630TIP3    H280306   2.170   5.493   5.971  0.7704  0.0997  0.4759
19631TIP3   OH280307   3.080   5.057  13.587  0.4080 -0.3283  0.1154
19631TIP3    H180308   3.001   5.006  13.607 -0.9980  1.2595 -1.0404
19631TIP3    H280309   3.069   5.084  13.496  2.2685  0.0082 -0.0508
19632TIP3   OH280310   2.214   0.796  12.924 -0.1815 -0.5230  0.1611
19632TIP3    H180311   2.289   0.776  12.980  1.1385 -0.2690 -1.4322
19632TIP3    H280312   2.146   0.827  12.984  0.8433 -1.1475  1.6922
19633TIP3   OH280313   6.328   0.394  13.537 -0.0195  0.6796  0.2983
19633TIP3    H180314   6.274   0.408  13.459  0.2610  0.0348 -0.0149
19633TIP3    H280315   6.417   0.383  13.503 -0.1338 -1.3629  0.5437
19634TIP3   OH280316   2.238   6.542   4.293 -0.0047 -0.1872  0.2277
19634TIP3    H180317   2.147   6.558   4.267 -0.3928 -1.1431  0.9308
19634TIP3    H280318   2.289   6.570   4.217 -1.0864 -2.9729 -1.7123
19635TIP3   OH280319   3.892   3.269   6.077 -0.2382 -0.0221 -0.3541
19635TIP3    H180320   3.803   3.261   6.109  0.3333 -4.9498  0.9184
19635TIP3    H280321   3.947   3.265   6.155  1.0874 -1.0374 -1.2711
19636TIP3   OH280322   4.661   0.650   6.092 -0.0676 -0.1481 -0.1085
19636TIP3    H180323   4.585   0.708   6.090 -0.8025 -0.9012  2.3799
19636TIP3    H280324   4.626   0.565   6.119  1.4786 -0.8597 -0.2377
19637TIP3   OH280325   1.079   5.875  15.353 -0.8272  0.6351  0.2070
19637TIP3    H180326   1.096   5.783  15.332  0.7556  0.8449  0.3860
19637TIP3    H280327   1.053   5.874  15.445  1.4783  0.5082  0.9347
19638TIP3   OH280328   2.370   3.515   0.261  0.1113  0.1612  0.1085
19638TIP3    H180329   2.366   3.493   0.354 -1.5275  0.2180  0.0687
19638TIP3    H280330   2.288   3.560   0.243  0.8420  1.0751 -1.1499
19639TIP3   OH280331   1.014   3.499   2.766  0.5921  0.0535  0.2480
19639TIP3    H180332   0.966   3.522   2.686 -0.6221 -0.2588  0.8480
19639TIP3    H280333   1.083   3.564   2.773  1.1250 -0.2859 -1.3798
19640TIP3   OH280334   5.318   2.887  16.321  0.0691  0.2528 -0.3914
19640TIP3    H180335   5.354   2.825  16.258 -0.4634  0.0101 -0.4637
19640TIP3    H280336   5.387   2.899  16.386 -0.2711 -1.3984  0.3209
19641TIP3   OH280337   4.785   6.073  11.059  0.5112 -0.1543  0.3770
19641TIP3    H180338   4.858   6.065  11.120  0.6439  0.3643  0.2925
19641TIP3    H280339   4.766   6.167  11.056 -1.3373 -0.4135  1.7764
19642TIP3   OH280340   2.556   2.078   2.259  0.0254  0.1533 -0.0904
19642TIP3    H180341   2.470   2.053   2.292 -0.9116 -1.1164 -3.0637
19642TIP3    H280342   2.600   1.995   2.243  0.5528  0.6519 -1.4332
19643TIP3   OH280343   2.050   5.635   2.800 -0.8446  0.1121 -0.0909
19643TIP3    H180344   2.085   5.671   2.718  0.3890 -0.9876 -0.0877
19643TIP3    H280345   2.128   5.623   2.855 -1.3549 -1.3414  0.3603
19644TIP3   OH280346   2.292   4.841  16.842 -0.7412 -0.2170  0.2085
19644TIP3    H180347   2.339   4.759  16.826  0.1164  0.3764 -0.4008
19644TIP3    H280348   2.261   4.868  16.755  1.9465  1.8315 -0.2598
19645TIP3   OH280349   2.239   6.554   0.908 -0.0411  0.2344  0.0669
19645TIP3    H180350   2.283   6.469   0.906  0.1948  0.3564 -1.4570
19645TIP3    H280351   2.256   6.591   0.821 -0.5343  1.6398  0.5459
19646TIP3   OH280352   1.715   5.026  13.349  0.0568 -0.2173 -0.1724
19646TIP3    H180353   1.707   4.935  13.378 -0.5246 -0.1445 -0.0903
19646TIP3    H280354   1.694   5.023  13.256 -0.4690 -0.0967 -0.0622
19647TIP3   OH280355   5.574   0.875  12.281  0.3428 -0.3382  0.0456
19647TIP3    H180356   5.626   0.933  12.336 -0.5328  1.5667 -1.0509
19647TIP3    H280357   5.506   0.841  12.340 -0.1719  1.1397  0.3385
19648TIP3   OH280358   6.696   6.396   4.210 -0.1362 -0.2270 -0.1884
19648TIP3    H180359   6.694   6.369   4.302  0.9893 -2.0399 -0.6205
19648TIP3    H280360   6.746   6.478   4.210 -1.3763  0.5607  0.9442
19649TIP3   OH280361   1.484   0.818  14.392 -0.4043  0.1971 -0.2451
19649TIP3    H180362   1.419   0.756  14.425 -0.0388  0.7113  1.5372
19649TIP3    H280363   1.457   0.836  14.302 -1.2313 -1.5713 -0.3968
19650TIP3   OH280364   1.575   3.267  10.900 -0.2178 -0.4678 -0.0400
19650TIP3    H180365   1.554   3.340  10.841 -2.7003  0.5799  1.9777
19650TIP3    H280366   1.667   3.248  10.882  0.3457  2.6985 -1.1752
19651TIP3   OH280367   1.171   0.663   1.661  0.2285  0.3163 -0.1758
19651TIP3    H180368   1.180   0.633   1.571  1.2971 -0.6485  0.2253
19651TIP3    H280369   1.207   0.592   1.714  0.5056  1.2647  0.9616
19652TIP3   OH280370   1.791   1.357  15.596  0.0022 -0.3012  0.0595
19652TIP3    H180371   1.718   1.418  15.603 -0.5301 -0.5758 -2.2309
19652TIP3    H280372   1.749   1.273  15.575  0.9202 -0.6791 -0.2865
19653TIP3   OH280373   4.290   0.017  16.460  0.9076  0.4775 -0.4034
19653TIP3    H180374   4.232   0.042  16.532 -0.5185  0.3874 -1.4676
19653TIP3    H280375   4.286  -0.079  16.459  0.5670  0.4950 -0.8780
19654TIP3   OH280376   6.082   5.978   1.851 -0.0071  0.5079  0.1017
19654TIP3    H180377   6.172   5.947   1.848 -0.3155 -0.5148  0.7107
19654TIP3    H280378   6.087   6.071   1.830  1.4373  0.9854  2.2638
19655TIP3   OH280379   4.758   0.289   2.426  0.0072  0.0412 -0.4268
19655TIP3    H180380   4.666   0.297   2.401  0.3416 -0.2486 -1.8227
19655TIP3    H280381   4.794   0.377   2.414  0.0035  0.0646 -0.2666
19656TIP3   OH280382   4.061   3.340  16.098 -0.1213 -0.1379 -0.1950
19656TIP3    H180383   4.127   3.301  16.154  0.4753  0.9339 -0.1304
19656TIP3    H280384   3.980   3.338  16.149  0.1859 -0.1275  0.2876
19657TIP3   OH280385   1.589   1.303   4.978 -0.6457 -0.2419 -0.2052
19657TIP3    H180386   1.520   1.369   4.974  0.5858  1.0286 -1.1183
19657TIP3    H280387   1.604   1.290   5.072 -0.2694  1.4707 -0.0075
19658TIP3   OH280388   1.380   2.296   1.533 -0.1659 -0.3533 -0.6529
19658TIP3    H180389   1.319   2.306   1.460  0.6369  2.5612 -1.0731
19658TIP3    H280390   1.376   2.203   1.556 -2.1471 -0.9133 -2.8891
19659TIP3   OH280391   2.215   1.377  12.125  0.1524 -0.6361  0.4253
19659TIP3    H180392   2.267   1.355  12.202 -0.3816  0.2383  1.0600
19659TIP3    H280393   2.187   1.468  12.140 -0.9149 -0.8278 -0.2469
19660TIP3   OH280394   5.635   2.978   3.098  0.6600 -0.0915 -0.3610
19660TIP3    H180395   5.697   2.914   3.135 -0.3104 -0.7406  0.1996
19660TIP3    H280396   5.663   3.062   3.133  1.9176 -0.2095 -1.0459
19661TIP3   OH280397   5.080   0.069   5.095 -0.1105  0.1550  0.0325
19661TIP3    H180398   5.111   0.148   5.050  0.0681 -0.7782 -1.5564
19661TIP3    H280399   5.128  -0.003   5.053  0.6826 -0.7358  2.2895
19662TIP3   OH280400   6.336   0.966  14.535 -0.7572  0.1900  0.0131
19662TIP3    H180401   6.276   1.041  14.534  0.7396  1.4495  0.1222
19662TIP3    H280402   6.347   0.943  14.442 -0.6755  0.5825 -0.0787
19663TIP3   OH280403   6.800   5.375   4.761  0.0427  0.5878 -0.5184
19663TIP3    H180404   6.745   5.313   4.714 -1.7899  0.3065  1.8190
19663TIP3    H280405   6.773   5.461   4.726  0.1197  0.2965 -1.3269
19664TIP3   OH280406   5.567   1.230  12.072 -0.3985 -0.7748 -0.0432
19664TIP3    H180407   5.486   1.253  12.118 -0.7183 -0.1554 -0.9002
19664TIP3    H280408   5.634   1.284  12.114 -0.5997 -0.5848  0.0368
19665TIP3   OH280409   3.363   6.321   1.996  0.1184  0.4491 -0.8154
19665TIP3    H180410   3.327   6.233   1.985  0.1994  0.3451 -0.2843
19665TIP3    H280411   3.286   6.377   2.001 -0.0547  0.1204  1.2517
19666TIP3   OH280412   2.046   6.034  14.071  0.0991  0.3693 -0.5453
19666TIP3    H180413   2.000   6.037  14.156 -0.8992  1.8168 -1.0930
19666TIP3    H280414   1.982   5.997  14.011  0.6169 -0.1298 -0.7976
19667TIP3   OH280415   2.400   5.757  12.921 -0.5117  0.0497  0.1408
19667TIP3    H180416   2.458   5.698  12.970  1.0534  0.5024 -1.0970
19667TIP3    H280417   2.352   5.804  12.989  1.0138  0.0901  1.2645
19668TIP3   OH280418   3.895   1.247  11.813 -0.4033 -0.3409 -0.4791
19668TIP3    H180419   3.939   1.270  11.895 -0.4515 -1.0997 -0.2365
19668TIP3    H280420   3.911   1.322  11.756  1.3166 -0.6511 -0.4370
19669TIP3   OH280421   0.314   1.330  11.684  0.3883 -0.2854  0.1042
19669TIP3    H180422   0.358   1.290  11.759  1.1330 -1.1490 -0.7764
19669TIP3    H280423   0.268   1.257  11.642 -0.7478  0.3479  0.2011
19670TIP3   OH280424   1.754   2.725   1.557 -0.4197  0.4301  0.5344
19670TIP3    H180425   1.761   2.819   1.576 -0.7236  0.5562  0.0288
19670TIP3    H280426   1.699   2.691   1.627 -0.8964  0.7584  0.3217
19671TIP3   OH280427   3.001   0.708   0.736  0.5139 -0.0718 -0.0461
19671TIP3    H180428   3.047   0.663   0.666  0.2586 -1.7715  0.8166
19671TIP3    H280429   3.059   0.701   0.812  0.4694  1.0996  0.1172
19672TIP3   OH280430   6.591   1.963  10.797 -0.5329 -0.3181 -0.6277
19672TIP3    H180431   6.626   1.965  10.708  3.6091 -0.2736  0.7837
19672TIP3    H280432   6.635   2.036  10.841 -0.8315 -1.5892  1.9613
19673TIP3   OH280433   4.344   6.042   2.373 -0.5167 -0.0473 -0.1271
19673TIP3    H180434   4.327   6.021   2.281  0.1983 -1.2864 -0.0062
19673TIP3    H280435   4.360   6.136   2.374  0.0770 -0.1144 -1.3895
19674TIP3   OH280436   2.475   2.212  11.053 -0.0336 -0.1371  0.1755
19674TIP3    H180437   2.432   2.270  10.990 -1.0611  0.2613  1.2137
19674TIP3    H280438   2.490   2.267  11.130 -0.8493 -1.1756  1.1115
19675TIP3   OH280439   1.536   2.394   5.500 -0.5212 -0.1290 -0.0738
19675TIP3    H180440   1.588   2.474   5.490 -0.4760 -0.1287  0.1697
19675TIP3    H280441   1.448   2.425   5.522 -0.4604 -0.1505  0.2058
19676TIP3   OH280442   0.359   3.209  14.418  1.0640  0.2588 -0.0481
19676TIP3    H180443   0.429   3.151  14.449 -0.3453 -1.6506 -0.3001
19676TIP3    H280444   0.311   3.157  14.354 -2.2762  0.4147  2.0703
19677TIP3   OH280445   2.661   5.547   0.640  0.3331  0.2713 -0.2921
19677TIP3    H180446   2.641   5.483   0.571  2.2828  1.3346 -1.9325
19677TIP3    H280447   2.673   5.494   0.719  2.2654 -1.4995 -1.6680
19678TIP3   OH280448   5.566   4.191  15.934 -0.2028 -0.0927 -0.3160
19678TIP3    H180449   5.507   4.213  16.006 -1.8675  0.7965 -1.8609
19678TIP3    H280450   5.508   4.170  15.861  1.4193 -1.6736 -1.2238
19679TIP3   OH280451   0.326   6.138   4.358  0.1404  0.2518  0.1193
19679TIP3    H180452   0.392   6.099   4.302  0.6376 -0.6951  1.3071
19679TIP3    H280453   0.258   6.169   4.298  0.4966 -0.9897 -0.9709
19680TIP3   OH280454   2.012   1.847   1.108 -0.1013  0.4942 -0.2681
19680TIP3    H180455   2.006   1.843   1.012 -0.1629  0.1746 -0.2499
19680TIP3    H280456   1.923   1.872   1.135 -0.2705 -0.1056 -0.2543
19681TIP3   OH280457   4.245   4.134  12.034  0.0521  0.1180 -0.6974
19681TIP3    H180458   4.244   4.228  12.053  1.1752  0.4874 -2.3016
19681TIP3    H280459   4.336   4.109  12.044 -0.6129 -1.4930  2.5507
19682TIP3   OH280460   3.234   3.588  13.759  0.6398 -0.2363 -0.5456
19682TIP3    H180461   3.255   3.623  13.672 -0.4358  1.4742 -0.1591
19682TIP3    H280462   3.146   3.553  13.749  0.0414  1.0306  0.1239
19683TIP3   OH280463   6.406   5.856  14.536 -0.6474 -0.4532  0.3826
19683TIP3    H180464   6.398   5.875  14.629 -0.5145  0.6722  0.1856
19683TIP3    H280465   6.464   5.925  14.503  1.6778 -2.4887 -0.0331
19684TIP3   OH280466   0.252   4.908   3.938 -1.0314 -0.4163  0.3015
19684TIP3    H180467   0.240   4.914   4.033  1.7820 -0.8809  0.7637
19684TIP3    H280468   0.287   4.994   3.913 -0.8087 -0.6426 -0.1709
19685TIP3   OH280469   2.118   6.717  14.172  0.7289 -0.0987  0.4288
19685TIP3    H180470   2.056   6.650  14.144 -1.4304  1.1840  1.8732
19685TIP3    H280471   2.107   6.787  14.107 -0.5658  0.7904  1.5715
19686TIP3   OH280472   2.914   2.565   3.488 -0.1852  0.4027 -1.2118
19686TIP3    H180473   2.822   2.569   3.462 -0.3743  0.1599 -0.6073
19686TIP3    H280474   2.930   2.649   3.531 -1.4482 -1.1706  2.8131
19687TIP3   OH280475   1.252   1.135  14.193  0.3995  0.3401 -0.1336
19687TIP3    H180476   1.263   1.045  14.163 -0.3226  0.7880 -1.8223
19687TIP3    H280477   1.270   1.189  14.116  0.7600  1.6507  0.8319
19688TIP3   OH280478   6.125   1.922   1.929  0.4891 -0.0630 -0.0253
19688TIP3    H180479   6.061   1.990   1.908  0.9281  0.9114  1.6353
19688TIP3    H280480   6.170   1.906   1.846 -1.3798 -0.2366 -1.0480
19689TIP3   OH280481   2.730   1.135  11.198  0.0467  0.2447 -0.1657
19689TIP3    H180482   2.740   1.042  11.219  0.9367  0.4103  0.1447
19689TIP3    H280483   2.636   1.145  11.179 -0.2028 -0.5467  0.5971
19690TIP3   OH280484   4.045   1.543  12.410 -0.0834 -0.5784 -0.0386
19690TIP3    H180485   3.996   1.591  12.476 -1.8717 -2.3254  0.0130
19690TIP3    H280486   4.108   1.606  12.376 -1.6839  1.5063  0.6390
19691TIP3   OH280487   2.366   6.731  11.545  0.7969  0.3619  1.0023
19691TIP3    H180488   2.315   6.650  11.543 -0.0480  0.8886  1.0116
19691TIP3    H280489   2.350   6.767  11.632 -1.8095  2.3917 -0.1784
19692TIP3   OH280490   4.386   1.436  15.999 -0.7387  0.1644  0.1707
19692TIP3    H180491   4.417   1.362  16.052 -0.5121  0.2243  0.1230
19692TIP3    H280492   4.445   1.437  15.924 -1.7654 -0.6428 -0.6878
19693TIP3   OH280493   4.818   0.550   5.610  0.0314 -0.4516 -0.4854
19693TIP3    H180494   4.903   0.589   5.591  0.3452 -1.1755 -0.6145
19693TIP3    H280495   4.800   0.574   5.701  0.9153 -1.2461 -0.0809
19694TIP3   OH280496   2.283   4.382  10.923 -0.0464 -0.0986 -0.3411
19694TIP3    H180497   2.353   4.426  10.875  0.7363 -2.1669 -1.2231
19694TIP3    H280498   2.202   4.408  10.879  0.4104  0.3191 -0.9355
19695TIP3   OH280499   3.763   3.848   1.250 -0.4482  0.3753  0.3429
19695TIP3    H180500   3.812   3.766   1.245  0.0298  0.3897  3.2515
19695TIP3    H280501   3.804   3.904   1.184  1.5082 -0.5836  0.6822
19696TIP3   OH280502   0.950   1.906  12.234 -0.0274  0.0095 -0.1644
19696TIP3    H180503   0.870   1.953  12.210 -0.3014 -0.3215  0.0877
19696TIP3    H280504   0.972   1.939  12.321  0.8462  1.0533 -0.7626
19697TIP3   OH280505   5.450   1.020  11.871 -0.2295  0.2199  0.0683
19697TIP3    H180506   5.434   0.959  11.942  1.0900 -0.4615 -0.1760
19697TIP3    H280507   5.456   1.105  11.913  1.4304 -0.2822  0.9404
19698TIP3   OH280508   5.379   4.884   2.046  0.2352 -0.0832  0.0934
19698TIP3    H180509   5.404   4.939   2.120 -1.6447 -0.3446  1.0067
19698TIP3    H280510   5.303   4.835   2.078 -0.5697 -0.3029 -1.9705
19699TIP3   OH280511   5.534   1.698  12.601  0.4920 -0.2790  0.2233
19699TIP3    H180512   5.547   1.752  12.679 -1.0638 -0.3916  0.5799
19699TIP3    H280513   5.448   1.660  12.612  0.3405 -0.4889 -1.4493
19700TIP3   OH280514   2.124   1.311   1.249  0.7237  0.1297  0.2200
19700TIP3    H180515   2.038   1.270   1.247  1.4043 -1.4025  0.2492
19700TIP3    H280516   2.109   1.401   1.222 -0.7959 -0.2660 -0.3755
19701TIP3   OH280517   4.808   4.694  16.108 -0.3323 -0.1394 -0.1996
19701TIP3    H180518   4.804   4.783  16.143 -0.2403 -0.3725  0.4033
19701TIP3    H280519   4.724   4.681  16.065 -0.1133  0.4629 -0.8467
19702TIP3   OH280520   3.876   1.173   3.847 -0.1539 -0.3378  0.0685
19702TIP3    H180521   3.923   1.123   3.780  0.1729  0.1886 -0.1047
19702TIP3    H280522   3.868   1.261   3.810 -1.1713 -0.3811  0.1491
19703TIP3   OH280523   6.634   3.576  14.728  0.4342 -0.9648  0.0448
19703TIP3    H180524   6.629   3.671  14.738  1.4986 -0.9416  0.4554
19703TIP3    H280525   6.605   3.541  14.812 -0.2553 -1.0142 -0.2109
19704TIP3   OH280526   4.887   1.593   6.126  0.4839  0.3548 -0.0408
19704TIP3    H180527   4.816   1.534   6.102  0.6363  0.1326  0.0464
19704TIP3    H280528   4.966   1.538   6.123  1.0624  1.2222 -2.7967
19705TIP3   OH280529   4.393   2.651  13.174  1.1673  0.2200 -0.8856
19705TIP3    H180530   4.434   2.730  13.138  0.9527  1.3735  1.2691
19705TIP3    H280531   4.464   2.604  13.217  1.4877 -1.3294 -2.9716
19706TIP3   OH280532   1.413   3.742  13.810 -0.0927 -0.1873  0.1729
19706TIP3    H180533   1.436   3.801  13.882 -0.9146 -0.2794  0.5243
19706TIP3    H280534   1.459   3.661  13.830 -0.7602 -0.3947  0.9008
19707TIP3   OH280535   1.268   0.986  11.412  0.2551 -0.2350  0.2738
19707TIP3    H180536   1.224   0.985  11.327 -0.7124 -0.1566  0.7644
19707TIP3    H280537   1.358   0.959  11.392 -0.0373 -0.5348 -0.7195
19708TIP3   OH280538   4.626   3.096   0.676 -0.5570  0.7454  0.4510
19708TIP3    H180539   4.588   3.184   0.685 -0.4944  0.7022  1.1882
19708TIP3    H280540   4.557   3.037   0.708 -0.5543  0.5334  0.0678
19709TIP3   OH280541   2.891   6.154   3.478 -0.6718 -0.3023  0.0558
19709TIP3    H180542   2.961   6.100   3.514 -2.2523 -2.0987  0.6022
19709TIP3    H280543   2.908   6.157   3.384 -0.7945 -2.2128 -0.0638
19710TIP3   OH280544   4.251   1.478   3.730  0.0116  0.4777  0.2488
19710TIP3    H180545   4.257   1.573   3.727  2.0413  0.3894 -0.5582
19710TIP3    H280546   4.294   1.453   3.812 -2.4173  0.2883  1.5518
19711TIP3   OH280547   5.621   0.721   6.406 -0.5385  0.3332  0.3877
19711TIP3    H180548   5.589   0.662   6.474  1.8957  0.7448  2.0499
19711TIP3    H280549   5.682   0.668   6.355 -1.0429  0.4959 -0.3972
19712TIP3   OH280550   3.521   1.533   3.810  0.2389 -0.4028  0.4726
19712TIP3    H180551   3.522   1.451   3.761  1.5447 -0.0665 -0.0977
19712TIP3    H280552   3.546   1.600   3.746 -0.6979  0.4274  0.9570
19713TIP3   OH280553   6.116   6.781  12.992  0.0781  0.3560 -0.1440
19713TIP3    H180554   6.099   6.769  12.898  1.7523 -0.7289 -0.3484
19713TIP3    H280555   6.050   6.727  13.035 -0.5503  0.6707 -0.6987
19714TIP3   OH280556   4.310   0.690   1.087 -0.1665  0.3361 -0.3226
19714TIP3    H180557   4.395   0.722   1.058 -0.3952  1.1579 -0.1152
19714TIP3    H280558   4.293   0.739   1.168 -1.3364  1.0168 -0.9562
19715TIP3   OH280559   2.046   0.052  16.915 -0.0475 -0.3356  0.0178
19715TIP3    H180560   2.062   0.098  16.832  1.2151 -0.0601  0.3879
19715TIP3    H280561   1.955   0.072  16.936  0.0539  0.8366 -0.5510
19716TIP3   OH280562   3.450   2.718   5.470 -0.0044 -0.4746  0.0215
19716TIP3    H180563   3.527   2.735   5.416  0.6658 -0.6217  0.9109
19716TIP3    H280564   3.413   2.805   5.485 -0.2384 -0.4376 -0.7194
19717TIP3   OH280565   0.919   1.722   0.344  0.6080 -0.4314  0.5084
19717TIP3    H180566   0.844   1.776   0.368  1.6857  0.6223  1.6786
19717TIP3    H280567   0.988   1.786   0.325  1.0366 -1.3522 -1.2393
19718TIP3   OH280568   4.530   1.437  10.825 -0.6020  0.2555 -0.4043
19718TIP3    H180569   4.568   1.356  10.791 -0.2483 -0.3273  1.3157
19718TIP3    H280570   4.435   1.424  10.816 -0.5388 -0.2170 -0.4234
19719TIP3   OH280571   5.242   2.844  11.169 -0.3271 -0.0601 -0.2555
19719TIP3    H180572   5.280   2.931  11.182 -0.4885 -0.0277  0.0244
19719TIP3    H280573   5.294   2.786  11.226 -0.8085  0.0175  0.2732
19720TIP3   OH280574   5.612   2.729   2.594  0.0049 -0.2818  0.9182
19720TIP3    H180575   5.656   2.645   2.601 -2.3195 -1.7122 -0.1331
19720TIP3    H280576   5.638   2.777   2.672  4.1276 -0.4909 -0.1005
19721TIP3   OH280577   4.435   2.382  14.010 -0.3717 -0.2805 -0.1798
19721TIP3    H180578   4.523   2.363  13.979 -0.4310 -0.9651  0.0609
19721TIP3    H280579   4.437   2.361  14.103 -0.8160 -0.3903 -0.1921
19722TIP3   OH280580   4.988   2.207   5.816  0.1471 -0.1430  0.3353
19722TIP3    H180581   4.970   2.169   5.730 -0.5546  0.0431  0.3963
19722TIP3    H280582   5.079   2.183   5.835 -0.2036 -1.5588  0.2659
19723TIP3   OH280583   5.948   3.630   0.744 -0.1741 -0.7073 -0.6047
19723TIP3    H180584   6.032   3.675   0.734 -0.5109 -0.2531 -1.5125
19723TIP3    H280585   5.882   3.695   0.718 -0.9510 -0.5155  1.6441
19724TIP3   OH280586   3.386   5.999  15.463 -0.0299  0.0111 -0.0951
19724TIP3    H180587   3.339   6.017  15.544 -1.2753 -2.3950 -0.1777
19724TIP3    H280588   3.449   5.931  15.487  1.6879  1.3468 -0.5751
19725TIP3   OH280589   0.411   0.777   4.948  0.4631 -0.1510  0.2262
19725TIP3    H180590   0.416   0.828   5.029  0.7868  0.2424 -0.0385
19725TIP3    H280591   0.499   0.742   4.936  0.8865  1.1695 -0.8328
19726TIP3   OH280592   1.051   4.935   4.088  0.3414  0.1987  0.4861
19726TIP3    H180593   1.078   4.843   4.094  0.4394  0.1825 -0.1515
19726TIP3    H280594   1.123   4.984   4.127  0.4464  0.0235  0.5117
19727TIP3   OH280595   6.109   2.118   4.417 -0.4683  0.0621  0.5342
19727TIP3    H180596   6.033   2.089   4.366 -0.5792 -1.5546  1.5594
19727TIP3    H280597   6.087   2.096   4.507  0.0933  2.0920  1.2240
19728TIP3   OH280598   1.987   1.781  12.817  0.5637  0.5973  0.3883
19728TIP3    H180599   2.072   1.759  12.780 -0.2680  0.4496 -1.5324
19728TIP3    H280600   1.934   1.806  12.742 -2.5362 -3.8129  0.7694
19729TIP3   OH280601   1.715   5.241  12.869 -0.4114 -0.5028 -0.1217
19729TIP3    H180602   1.799   5.281  12.846  0.6287 -1.5307  1.6955
19729TIP3    H280603   1.658   5.315  12.888  0.3442  0.1937 -0.4864
19730TIP3   OH280604   2.274   1.460  15.524  0.6067 -0.0448  0.2639
19730TIP3    H180605   2.315   1.374  15.524  1.2295  0.2039  1.9598
19730TIP3    H280606   2.210   1.456  15.595 -1.3038  0.0508 -1.3908
19731TIP3   OH280607   5.217   3.390   6.150  0.4441 -0.3070 -0.1677
19731TIP3    H180608   5.287   3.453   6.134  0.6097  0.1420  2.0390
19731TIP3    H280609   5.139   3.444   6.163  0.5161 -0.5317  1.3740
19732TIP3   OH280610   6.133   1.219  11.159  0.5520 -0.2515  0.4097
19732TIP3    H180611   6.198   1.289  11.153  0.5591 -0.1996  1.0212
19732TIP3    H280612   6.181   1.139  11.139  0.7354 -0.1756  0.5439
19733TIP3   OH280613   2.946   4.524  16.578 -0.1347 -0.0545  0.4522
19733TIP3    H180614   3.019   4.585  16.570 -0.2147 -0.1484 -1.3579
19733TIP3    H280615   2.879   4.572  16.626  0.6099  0.5007  0.9546
19734TIP3   OH280616   1.943   6.088  15.428 -0.2266  0.0776 -0.0442
19734TIP3    H180617   2.035   6.067  15.441 -0.0735  0.6765 -0.1621
19734TIP3    H280618   1.900   6.056  15.507 -0.0271 -0.8529 -0.2959
19735TIP3   OH280619   0.354   5.292  15.133 -0.3882 -0.5913 -0.1427
19735TIP3    H180620   0.330   5.364  15.192 -0.2391  0.9264 -1.8528
19735TIP3    H280621   0.447   5.279  15.149 -0.0441  0.7207 -0.9441
19736TIP3   OH280622   1.106   2.075  16.533  0.3247 -0.2310 -0.0789
19736TIP3    H180623   1.027   2.064  16.586  0.1663  0.2913 -0.2076
19736TIP3    H280624   1.074   2.098  16.446  0.6349  1.8829  0.3065
19737TIP3   OH280625   3.867   2.740  13.593 -0.0360  0.0889 -0.0479
19737TIP3    H180626   3.902   2.656  13.621 -0.6185 -0.0100  0.4072
19737TIP3    H280627   3.847   2.786  13.674  0.3781  0.7129 -0.2911
19738TIP3   OH280628   3.608   2.328  11.414  0.3071  0.0544 -0.7118
19738TIP3    H180629   3.586   2.372  11.332  0.5190  1.7907  0.1153
19738TIP3    H280630   3.612   2.399  11.478  0.5502 -1.2166  0.7180
19739TIP3   OH280631   5.846   6.030  10.788 -0.0795 -0.0823  0.1474
19739TIP3    H180632   5.789   6.095  10.829  0.3912 -0.1234  0.8693
19739TIP3    H280633   5.857   6.062  10.698 -0.1637  0.6378  0.3831
19740TIP3   OH280634   3.609   4.320   3.352 -0.2004 -0.1471  0.6937
19740TIP3    H180635   3.663   4.246   3.324  1.8143  0.9875  1.3479
19740TIP3    H280636   3.579   4.295   3.440 -0.8047 -0.8026  0.3139
19741TIP3   OH280637   4.457   4.183  14.790  0.3298  0.2768 -0.2079
19741TIP3    H180638   4.544   4.162  14.825  1.3046  2.0991 -1.3599
19741TIP3    H280639   4.473   4.255  14.729 -2.5158  3.6912  2.6165
19742TIP3   OH280640   2.098   3.886  13.369 -0.3349 -0.0041  0.5974
19742TIP3    H180641   2.181   3.909  13.327  1.2341 -2.4816  2.0725
19742TIP3    H280642   2.045   3.849  13.299 -1.0420  3.1920 -0.7614
19743TIP3   OH280643   6.125   5.786   6.430 -0.0788  0.5870 -0.0359
19743TIP3    H180644   6.051   5.753   6.379 -1.9966  2.3976  1.4083
19743TIP3    H280645   6.119   5.739   6.513  1.9533 -1.0378 -0.7239
19744TIP3   OH280646   0.987   0.384  16.483  0.3055  0.1089  0.1561
19744TIP3    H180647   1.026   0.465  16.516 -2.5676  1.8088 -0.2785
19744TIP3    H280648   0.904   0.377  16.530  0.2864 -2.4103 -0.1203
19745TIP3   OH280649   0.154   5.550  15.652 -0.7158 -0.0450 -0.1138
19745TIP3    H180650   0.152   5.605  15.730 -0.8116  0.2645 -0.3316
19745TIP3    H280651   0.191   5.607  15.584  0.3597 -0.6390 -0.0387
19746TIP3   OH280652   3.538   4.236   6.612  0.2420  0.3313 -0.1842
19746TIP3    H180653   3.630   4.247   6.636  0.0162 -1.1477  1.4833
19746TIP3    H280654   3.489   4.254   6.693 -0.7679 -1.4243 -0.3664
19747TIP3   OH280655   4.649   5.587   3.423  0.4604 -0.4458  0.0508
19747TIP3    H180656   4.649   5.677   3.456  1.2636  0.1334 -1.4411
19747TIP3    H280657   4.566   5.550   3.453 -2.1275  2.2371 -3.0651
19748TIP3   OH280658   5.379   6.600  17.049 -0.4514 -0.2522  0.2932
19748TIP3    H180659   5.449   6.650  17.090 -0.6087 -0.4936  0.8762
19748TIP3    H280660   5.330   6.664  16.997  0.2162 -0.0923 -0.1456
19749TIP3   OH280661   2.335   0.856  13.519  0.3212  0.1920  0.4198
19749TIP3    H180662   2.402   0.821  13.578  0.8431 -0.7939 -0.7186
19749TIP3    H280663   2.255   0.856  13.572  0.6378 -1.2788  0.9586
19750TIP3   OH280664   0.280   2.980  14.244  0.1284  0.4234  0.2536
19750TIP3    H180665   0.292   2.957  14.152  0.6596 -0.1396  0.4549
19750TIP3    H280666   0.185   2.974  14.258  0.0223  0.7008 -0.2989
19751TIP3   OH280667   5.284   1.518  12.390 -0.5455  0.1207 -0.4002
19751TIP3    H180668   5.196   1.553  12.375 -0.0408  1.8728  0.3577
19751TIP3    H280669   5.290   1.508  12.485 -0.1917 -0.7633 -0.5090
19752TIP3   OH280670   5.347   0.834  14.661 -1.1000  0.4604 -0.0433
19752TIP3    H180671   5.428   0.809  14.705  0.4735  1.1039 -2.3981
19752TIP3    H280672   5.294   0.754  14.660  0.3733 -0.5478 -0.2313
19753TIP3   OH280673   2.408   5.233   2.412 -0.3815  0.3530  0.0065
19753TIP3    H180674   2.327   5.184   2.424 -0.9400  0.6884 -1.9498
19753TIP3    H280675   2.384   5.324   2.432 -0.1566  0.2788  0.6271
19754TIP3   OH280676   2.093   0.524   1.964 -0.4093  0.2640  0.4920
19754TIP3    H180677   2.150   0.462   1.919 -1.5353  0.0413 -0.6763
19754TIP3    H280678   2.018   0.535   1.906 -1.5928  0.5021  1.9908
19755TIP3   OH280679   5.596   3.076   4.759  0.4719 -0.3717 -0.7072
19755TIP3    H180680   5.502   3.094   4.747  0.4016 -0.0717  0.1805
19755TIP3    H280681   5.610   2.991   4.718  0.0021  0.0018 -1.6587
19756TIP3   OH280682   6.209   1.420   3.157  0.5826  0.3644  0.1155
19756TIP3    H180683   6.199   1.496   3.100  3.2047 -0.0248 -0.9902
19756TIP3    H280684   6.217   1.346   3.097  0.3081 -0.4978  1.1074
19757TIP3   OH280685   2.021   6.515  14.897 -0.0903  0.3550  0.5071
19757TIP3    H180686   2.056   6.431  14.869  0.1955  0.1636  1.3890
19757TIP3    H280687   2.004   6.504  14.991 -1.7080  0.7246  0.2910
19758TIP3   OH280688   1.246   5.178  12.974 -0.1425 -0.2816  0.2059
19758TIP3    H180689   1.254   5.129  12.893 -0.6442 -0.3526  0.2021
19758TIP3    H280690   1.295   5.127  13.038 -1.1835 -1.1046  0.3488
19759TIP3   OH280691   5.494   3.588  15.767 -0.8819  0.4199 -0.4848
19759TIP3    H180692   5.579   3.545  15.776 -1.0957  0.4718  3.2244
19759TIP3    H280693   5.436   3.538  15.825 -2.4793  2.4471 -0.2427
19760TIP3   OH280694   0.487   3.645  16.860  0.0303  0.3985 -0.2075
19760TIP3    H180695   0.409   3.589  16.856  0.9003 -0.8796 -0.1223
19760TIP3    H280696   0.452   3.734  16.864 -1.5952 -0.2018  3.9788
19761TIP3   OH280697   1.906   4.700   4.143 -0.1995 -0.3618  0.6175
19761TIP3    H180698   1.966   4.673   4.213  1.7310 -0.0118 -0.8009
19761TIP3    H280699   1.930   4.644   4.069 -1.1680  0.2667 -0.1971
19762TIP3   OH280700   1.312   6.026  15.497  0.3649 -0.5422  0.6222
19762TIP3    H180701   1.220   6.053  15.509  0.4673  0.8239 -1.1950
19762TIP3    H280702   1.312   5.932  15.515 -1.3897 -0.5619  0.6979
19763TIP3   OH280703   4.465   2.844   4.822  0.2380 -0.0689 -0.3693
19763TIP3    H180704   4.452   2.866   4.914  0.7536 -0.1503 -0.2765
19763TIP3    H280705   4.542   2.788   4.821 -0.3747 -0.9217 -0.7390
19764TIP3   OH280706   0.215   2.825   1.513 -0.0483 -0.3160 -0.7483
19764TIP3    H180707   0.149   2.886   1.482  0.8373  0.8193 -0.4356
19764TIP3    H280708   0.194   2.810   1.605  0.7826  0.9613 -0.3273
19765TIP3   OH280709   5.120   3.019  16.958 -0.4191 -0.4037  0.1530
19765TIP3    H180710   5.066   2.946  16.987 -0.9954 -0.4275 -0.9308
19765TIP3    H280711   5.126   3.076  17.035 -2.8396  0.0961  0.0458
19766TIP3   OH280712   0.631   5.922  11.172 -0.1540  0.3631  0.1712
19766TIP3    H180713   0.689   5.867  11.119 -0.6435 -1.0181  1.0185
19766TIP3    H280714   0.648   5.894  11.262  0.8945  2.8674  0.8427
19767TIP3   OH280715   2.847   4.305   4.800 -0.3461  0.2546  0.2232
19767TIP3    H180716   2.789   4.366   4.754 -1.2946 -1.2804 -0.7317
19767TIP3    H280717   2.821   4.313   4.892 -1.1468  0.5800 -0.0192
19768TIP3   OH280718   5.354   6.292   3.904  0.4975 -0.0144  0.3132
19768TIP3    H180719   5.324   6.225   3.844  1.7788 -0.1650 -0.1701
19768TIP3    H280720   5.279   6.352   3.912 -0.2632 -0.8951 -0.1024
19769TIP3   OH280721   5.212   3.558   2.805 -0.5562 -0.4711  0.2328
19769TIP3    H180722   5.307   3.565   2.800 -0.6442  0.9862 -0.0449
19769TIP3    H280723   5.192   3.565   2.898 -0.3184 -2.4953  0.4704
19770TIP3   OH280724   6.449   1.664  11.891  0.2400  0.0581 -0.5533
19770TIP3    H180725   6.499   1.707  11.822 -0.2474  0.9968 -0.3425
19770TIP3    H280726   6.513   1.646  11.960  0.6302 -0.4336 -1.0410
19771TIP3   OH280727   1.976   4.291  15.667  0.4402 -0.9808  0.9402
19771TIP3    H180728   2.016   4.374  15.642 -0.9224 -0.1767  1.3149
19771TIP3    H280729   1.998   4.232  15.595  0.7340 -0.0689  0.2599
19772TIP3   OH280730   4.144   2.701   0.656  0.5745 -0.2132 -0.1978
19772TIP3    H180731   4.210   2.714   0.588  0.8411  1.4377  0.3412
19772TIP3    H280732   4.152   2.608   0.680  2.4096 -0.1458 -0.4399
19773TIP3   OH280733   4.805   0.713   1.345 -0.2876  0.0738  0.2864
19773TIP3    H180734   4.878   0.754   1.300 -1.7815  1.6819 -0.8132
19773TIP3    H280735   4.811   0.743   1.436  0.2789  0.3724  0.1489
19774TIP3   OH280736   2.607   5.266  15.768 -0.1506  0.1906 -0.2377
19774TIP3    H180737   2.635   5.181  15.735 -1.1596 -0.0233 -0.6036
19774TIP3    H280738   2.630   5.265  15.861  0.2651 -0.2992 -0.3422
19775TIP3   OH280739   0.089   0.328   3.754  0.4884  0.9232  0.0534
19775TIP3    H180740   0.063   0.238   3.738  0.3441  0.6619  1.6374
19775TIP3    H280741   0.162   0.322   3.815  0.5351  1.8666  0.1078
19776TIP3   OH280742   6.466   5.116  15.415  0.1021 -0.4151  0.3103
19776TIP3    H180743   6.403   5.087  15.482 -0.6036 -0.9045 -0.5479
19776TIP3    H280744   6.508   5.193  15.454 -2.2623  1.0201  0.2216
19777TIP3   OH280745   6.120   1.629   4.873  0.8501 -0.4917 -0.0820
19777TIP3    H180746   6.124   1.548   4.924  1.6897  0.8302  2.0645
19777TIP3    H280747   6.035   1.667   4.895  0.0878 -1.1304 -1.7408
19778TIP3   OH280748   3.543   3.803  15.587 -0.1807  0.2137  0.0453
19778TIP3    H180749   3.448   3.810  15.599 -0.0468  0.1341  1.3606
19778TIP3    H280750   3.554   3.779  15.495 -1.6219 -3.0014  0.5740
19779TIP3   OH280751   2.434   4.796   4.453 -0.1393  0.0434  0.1534
19779TIP3    H180752   2.428   4.777   4.546 -1.0909  0.5076  0.2045
19779TIP3    H280753   2.393   4.883   4.444  3.8307  2.1107 -0.0535
19780TIP3   OH280754   2.280   0.590  15.509 -0.3936  0.4329 -0.1723
19780TIP3    H180755   2.306   0.576  15.418 -1.1339  1.3841 -0.5465
19780TIP3    H280756   2.269   0.502  15.545 -0.6238  0.0546 -1.1591
19781TIP3   OH280757   4.497   3.741   5.994  0.1859  0.2656 -0.7372
19781TIP3    H180758   4.569   3.748   5.931  1.3832  3.3997  0.7674
19781TIP3    H280759   4.508   3.655   6.035  1.8930 -0.1042 -1.9070
19782TIP3   OH280760   1.235   4.765   5.302 -0.1719  0.3480  0.5797
19782TIP3    H180761   1.298   4.725   5.241  0.7561  1.5217  0.7318
19782TIP3    H280762   1.238   4.710   5.380 -0.2444 -0.3009  0.1300
19783TIP3   OH280763   2.455   1.988   4.217  0.2256  0.8450  0.4048
19783TIP3    H180764   2.481   1.930   4.144 -0.4645  1.4803 -0.3629
19783TIP3    H280765   2.520   1.971   4.285  1.4528  0.9249 -0.7132
19784TIP3   OH280766   0.177   3.980   0.377 -0.7224  0.4779  0.0606
19784TIP3    H180767   0.087   3.949   0.374 -0.4714 -0.3543  0.7317
19784TIP3    H280768   0.170   4.075   0.371 -1.3741  0.3840 -5.0536
19785TIP3   OH280769   6.795   2.104  12.475  0.1996 -0.4343  0.4325
19785TIP3    H180770   6.863   2.061  12.528  0.7678  2.8085  2.5790
19785TIP3    H280771   6.760   2.173  12.531  0.4796  3.0175 -3.2034
19786TIP3   OH280772   4.817   0.616  15.565 -0.4529 -0.5067  0.0215
19786TIP3    H180773   4.769   0.543  15.604  0.6519 -0.6491  1.1755
19786TIP3    H280774   4.808   0.688  15.627 -0.4127 -0.0772 -0.4612
19787TIP3   OH280775   3.494   0.336  15.782 -0.2085 -0.0464 -0.1586
19787TIP3    H180776   3.529   0.418  15.747 -1.2685 -0.2736 -1.8430
19787TIP3    H280777   3.561   0.270  15.762 -0.1265  0.1001 -0.3612
19788TIP3   OH280778   5.773   5.124   4.164  0.1990  0.3717  0.0069
19788TIP3    H180779   5.850   5.071   4.144  0.3219  1.0920 -1.6126
19788TIP3    H280780   5.774   5.132   4.259  0.8624 -1.4657  0.1933
19789TIP3   OH280781   5.265   5.572   2.491 -0.0724  0.3714 -0.7584
19789TIP3    H180782   5.308   5.572   2.577  0.5234  0.1584 -1.0447
19789TIP3    H280783   5.335   5.596   2.430 -0.4694  0.4278 -1.1925
19790TIP3   OH280784   5.322   0.685  11.340 -0.7523  0.0526  0.5195
19790TIP3    H180785   5.412   0.656  11.331 -1.0463 -0.8111  0.2864
19790TIP3    H280786   5.284   0.626  11.405 -1.3928 -0.1841 -0.0533
19791TIP3   OH280787   4.022   6.707  14.737  0.0701 -0.2290  0.7419
19791TIP3    H180788   4.086   6.778  14.732  2.0137 -1.9201 -3.4518
19791TIP3    H280789   3.946   6.739  14.687  0.6259 -0.6928 -0.4529
19792TIP3   OH280790   5.139   1.137   5.255 -0.1369 -0.1376 -0.6756
19792TIP3    H180791   5.088   1.094   5.187  1.2934 -0.0053 -1.8764
19792TIP3    H280792   5.216   1.171   5.210 -0.8440  3.1353  0.2937
19793TIP3   OH280793   3.822   5.563  14.633 -0.5546 -0.7082  0.0407
19793TIP3    H180794   3.910   5.601  14.622 -2.1344  3.1003 -1.2289
19793TIP3    H280795   3.801   5.580  14.725 -1.3122  1.9931 -0.5524
19794TIP3   OH280796   0.946   3.810   0.584  0.0003  0.3347  0.7579
19794TIP3    H180797   0.866   3.806   0.637 -0.7190  0.3077 -0.2991
19794TIP3    H280798   0.924   3.868   0.511  0.1381 -1.5392 -0.8413
19795TIP3   OH280799   0.515   5.445  12.971 -0.0841  0.1269  0.5921
19795TIP3    H180800   0.553   5.496  12.899 -1.0631  0.0906  0.0304
19795TIP3    H280801   0.463   5.377  12.927 -1.8699  0.9768  1.3016
19796TIP3   OH280802   6.062   5.683   2.631  0.3077  0.9927  0.1921
19796TIP3    H180803   6.053   5.617   2.700  0.9871  1.7018  0.9706
19796TIP3    H280804   5.972   5.708   2.611  0.0159 -0.3411 -0.3016
19797TIP3   OH280805   0.298   4.025  14.145  0.4763 -0.5205  0.4066
19797TIP3    H180806   0.257   3.981  14.219  1.4333 -0.3038  1.0938
19797TIP3    H280807   0.389   3.995  14.147  0.8259  0.4627  0.0870
19798TIP3   OH280808   5.983   3.813  16.260 -0.6064  0.0442  0.2869
19798TIP3    H180809   6.076   3.792  16.261 -0.3243  1.2006  1.8350
19798TIP3    H280810   5.978   3.898  16.216 -0.9608 -0.1014  0.0380
19799TIP3   OH280811   2.193   5.975   2.249  0.4418  0.4163 -0.0196
19799TIP3    H180812   2.154   6.055   2.285 -0.4784 -0.4699  1.0260
19799TIP3    H280813   2.287   5.992   2.249  0.3696  0.9738  1.5572
19800TIP3   OH280814   4.050   4.591  14.955  0.0799 -0.2865  0.0039
19800TIP3    H180815   4.137   4.612  14.921 -0.0564  0.0470 -0.1489
19800TIP3    H280816   4.049   4.496  14.965  0.4197 -0.2995 -0.1066
19801TIP3   OH280817   0.477   2.506  16.808  0.2134 -0.1163 -0.0400
19801TIP3    H180818   0.404   2.526  16.867 -0.2494 -1.8413  0.0297
19801TIP3    H280819   0.455   2.421  16.770  1.1880  0.2955 -1.6417
19802TIP3   OH280820   6.553   0.412   2.140 -0.0161 -0.5737 -0.9905
19802TIP3    H180821   6.625   0.427   2.079 -0.5428 -1.4943 -1.8748
19802TIP3    H280822   6.494   0.485   2.126  0.6787  0.1236 -0.3443
19803TIP3   OH280823   2.336   4.504  15.043  0.2236 -0.3737  0.1977
19803TIP3    H180824   2.289   4.582  15.072  1.7977  0.2708  1.0956
19803TIP3    H280825   2.281   4.468  14.972  0.7600  3.0644 -2.1956
19804TIP3   OH280826   1.917   1.995  13.372  0.4545  0.3691 -0.3617
19804TIP3    H180827   1.993   1.939  13.383 -0.0562 -0.3070 -0.1914
19804TIP3    H280828   1.843   1.934  13.365 -0.0563  1.0062 -0.6202
19805TIP3   OH280829   0.573   1.843  11.508 -0.2533 -0.1925 -0.2777
19805TIP3    H180830   0.548   1.752  11.490 -1.3167  0.2064 -0.8949
19805TIP3    H280831   0.493   1.893  11.492  0.3575  0.8729 -0.0587
19806TIP3   OH280832   1.824   3.060  15.590  0.1514  0.6041  0.1927
19806TIP3    H180833   1.730   3.075  15.602  0.1264  1.4051 -0.8906
19806TIP3    H280834   1.864   3.147  15.596  0.5757  0.5425 -1.3801
19807TIP3   OH280835   4.431   4.574   2.282  0.2302 -0.2423 -0.0405
19807TIP3    H180836   4.337   4.559   2.279  0.4204 -1.8239  0.5756
19807TIP3    H280837   4.453   4.569   2.375  1.3271 -3.3271 -0.3282
19808TIP3   OH280838   0.520   0.862   3.216  0.1924 -0.2617  0.0285
19808TIP3    H180839   0.541   0.800   3.146 -0.6529 -0.6510  0.1145
19808TIP3    H280840   0.551   0.819   3.296  3.2756  1.1557 -0.2812
19809TIP3   OH280841   3.112   4.211  15.252 -0.2157 -0.0366 -0.2188
19809TIP3    H180842   3.195   4.179  15.216 -0.0138 -0.0732  0.2758
19809TIP3    H280843   3.138   4.283  15.310 -0.5435  0.0469 -0.1766
19810TIP3   OH280844   1.673   6.742  13.756 -1.0381  0.1257 -0.2391
19810TIP3    H180845   1.683   6.712  13.666  1.9160 -0.0792  0.0521
19810TIP3    H280846   1.643   6.665  13.804 -1.7668 -0.0019 -0.8835
19811TIP3   OH280847   6.570   3.084   2.953 -0.5895  0.4320  0.4144
19811TIP3    H180848   6.490   3.092   3.004  0.3328 -0.5549  2.1020
19811TIP3    H280849   6.540   3.065   2.864 -2.2323 -0.5119  1.1206
19812TIP3   OH280850   4.740   4.399   5.674  0.5568 -0.1213 -0.7861
19812TIP3    H180851   4.665   4.380   5.618  1.3649  1.4476 -2.5129
19812TIP3    H280852   4.705   4.461   5.739  0.4827  1.2050 -2.0468
19813TIP3   OH280853   2.114   2.579   4.773 -0.1591 -0.1257 -0.1896
19813TIP3    H180854   2.189   2.593   4.716 -0.4105  1.4919 -0.1551
19813TIP3    H280855   2.151   2.543   4.854  0.3724 -0.8976 -0.7598
19814TIP3   OH280856   1.271   1.340  11.338 -0.8459  0.3918 -0.5266
19814TIP3    H180857   1.328   1.308  11.268 -0.5401 -1.7244  0.6032
19814TIP3    H280858   1.191   1.287  11.330 -0.5414 -0.3519  1.0978
19815TIP3   OH280859   1.509   2.715   5.688  0.8372 -0.1347  0.0388
19815TIP3    H180860   1.439   2.710   5.623  0.0586 -0.6470  0.8944
19815TIP3    H280861   1.590   2.708   5.637  0.2369 -0.9144 -0.8410
19816TIP3   OH280862   5.551   5.173  13.500 -0.0344  0.4034 -0.0591
19816TIP3    H180863   5.636   5.129  13.496  0.1590  0.7725 -0.1360
19816TIP3    H280864   5.548   5.225  13.420 -0.3242  0.4129 -0.0423
19817TIP3   OH280865   6.327   2.888  12.397 -0.1063 -0.2897 -0.0047
19817TIP3    H180866   6.272   2.844  12.333  1.1792 -0.6051 -0.9268
19817TIP3    H280867   6.394   2.933  12.345  1.8958 -1.7886  1.1247
19818TIP3   OH280868   1.818   4.096  11.074  0.4117 -0.2837  0.0742
19818TIP3    H180869   1.728   4.124  11.060 -0.0538 -0.6265  2.1126
19818TIP3    H280870   1.862   4.115  10.991 -2.0833 -2.4670 -1.9262
19819TIP3   OH280871   1.327   6.590   4.858  0.4286  0.0690 -0.0551
19819TIP3    H180872   1.317   6.576   4.764 -1.0117 -2.3171  0.3643
19819TIP3    H280873   1.421   6.576   4.875  0.3918 -1.3765 -0.9037
19820TIP3   OH280874   4.930   0.471   0.157  0.5040  0.3116  0.2483
19820TIP3    H180875   4.881   0.452   0.077 -1.9721  0.0833  1.7008
19820TIP3    H280876   4.939   0.566   0.158 -0.1311  0.3770  0.0545
19821TIP3   OH280877   0.126   4.128  13.562  0.6141 -0.0381 -0.7799
19821TIP3    H180878   0.070   4.159  13.633  0.2255  1.8375 -1.8211
19821TIP3    H280879   0.145   4.037  13.583 -0.6005  0.0829  1.0021
19822TIP3   OH280880   6.419   5.995  16.584  0.1013  0.1783  0.2672
19822TIP3    H180881   6.339   6.009  16.636 -1.0626  1.0642 -1.6534
19822TIP3    H280882   6.391   6.009  16.493  2.2769 -0.3414 -0.5340
19823TIP3   OH280883   4.061   1.340   5.198 -0.2016 -0.1181 -0.0173
19823TIP3    H180884   3.987   1.347   5.138 -0.9166 -0.2229  0.8267
19823TIP3    H280885   4.113   1.267   5.163  0.0546  0.5993 -1.1843
19824TIP3   OH280886   4.229   5.855  14.736 -0.4861  0.0804 -0.1075
19824TIP3    H180887   4.179   5.828  14.660 -0.5964  0.0604 -0.0279
19824TIP3    H280888   4.194   5.803  14.808 -0.3815  0.0977 -0.0429
19825TIP3   OH280889   6.266   5.890  11.063  0.1376 -0.2971 -0.0634
19825TIP3    H180890   6.254   5.962  11.001  0.7046  0.7516  0.9925
19825TIP3    H280891   6.336   5.837  11.025  0.3757  0.2522 -0.4009
19826TIP3   OH280892   1.843   5.616   3.576 -0.5785  0.9544  0.0564
19826TIP3    H180893   1.899   5.694   3.574 -0.2646  0.7444  0.5987
19826TIP3    H280894   1.767   5.642   3.628  0.9339 -0.0087  2.9549
19827TIP3   OH280895   5.651   2.032  11.382  0.0457 -0.3704 -0.8478
19827TIP3    H180896   5.579   2.048  11.321 -2.1330 -0.6764  1.4865
19827TIP3    H280897   5.714   1.979  11.332 -1.8827 -1.1264 -2.6217
19828TIP3   OH280898   4.599   3.924  14.341 -0.1072 -0.0481  0.0006
19828TIP3    H180899   4.683   3.908  14.298 -0.7522 -0.6532 -1.0550
19828TIP3    H280900   4.535   3.928  14.270 -1.1874 -1.0030  0.8845
19829TIP3   OH280901   4.206   6.512   1.206  0.2187 -0.3525  0.6320
19829TIP3    H180902   4.254   6.446   1.255 -1.2493 -1.5815  0.4737
19829TIP3    H280903   4.217   6.593   1.257 -0.6842 -1.4285  2.6730
19830TIP3   OH280904   1.950   2.742   5.067  0.2707  0.2853  0.6116
19830TIP3    H180905   1.879   2.736   5.003  1.3115  2.0467 -0.8306
19830TIP3    H280906   1.990   2.655   5.066 -1.7580 -0.7187  1.4104
19831TIP3   OH280907   2.654   5.891   2.432  0.2058  0.0863 -0.2489
19831TIP3    H180908   2.684   5.855   2.515 -0.4537  0.7802  0.3044
19831TIP3    H280909   2.734   5.914   2.385  0.5740  0.0602  0.3600
19832TIP3   OH280910   1.894   0.902   4.823  0.2830  0.4245 -0.2152
19832TIP3    H180911   1.889   0.984   4.872  1.5949  0.1540  0.4248
19832TIP3    H280912   1.876   0.927   4.732 -1.2498  1.0919  0.2397
19833TIP3   OH280913   2.630   2.625  15.663 -0.4133  0.1775 -0.1755
19833TIP3    H180914   2.675   2.696  15.708 -1.0044  0.2345  0.3167
19833TIP3    H280915   2.632   2.651  15.570  1.3350 -0.2291 -0.2999
19834TIP3   OH280916   3.271   2.875  15.808  0.3793  0.1087  0.3657
19834TIP3    H180917   3.191   2.862  15.758 -0.3948  2.1205  0.9652
19834TIP3    H280918   3.340   2.884  15.743 -0.2067  0.2286 -0.2458
19835TIP3   OH280919   4.528   1.240   3.231  0.1826 -0.3123  0.7075
19835TIP3    H180920   4.622   1.233   3.215  0.1739 -1.2866  0.9983
19835TIP3    H280921   4.488   1.229   3.144  0.2714 -2.0508  0.8485
19836TIP3   OH280922   4.856   1.113  12.583 -0.0354 -0.2200  0.2615
19836TIP3    H180923   4.936   1.149  12.544 -0.4571 -0.9823 -1.3937
19836TIP3    H280924   4.785   1.152  12.533 -0.6314 -0.9038  0.5617
19837TIP3   OH280925   4.128   3.027   1.427 -0.0907  0.5394  0.3932
19837TIP3    H180926   4.215   3.068   1.436 -0.1043  0.8706 -0.7831
19837TIP3    H280927   4.085   3.078   1.358 -0.3053 -1.1389 -0.7578
19838TIP3   OH280928   2.828   4.352   0.351  0.3966  0.0798  0.4570
19838TIP3    H180929   2.779   4.431   0.374 -0.9371 -0.2856 -0.9955
19838TIP3    H280930   2.772   4.306   0.289  2.3121 -0.6824 -0.8102
19839TIP3   OH280931   6.057   4.313  17.034  0.1948  0.0161  0.2754
19839TIP3    H180932   6.012   4.397  17.044  0.0989  0.3460 -2.1659
19839TIP3    H280933   6.088   4.291  17.122 -2.2059  1.1824  1.4921
19840TIP3   OH280934   6.168   0.673  13.580  0.5964 -0.2138  0.5355
19840TIP3    H180935   6.205   0.613  13.645 -1.1687 -2.8826 -0.7481
19840TIP3    H280936   6.152   0.754  13.629  3.3259 -0.6150  2.2935
19841TIP3   OH280937   3.254   6.429   0.468 -0.4459 -0.8103 -0.0864
19841TIP3    H180938   3.303   6.418   0.386 -0.9291 -2.6677 -0.1786
19841TIP3    H280939   3.267   6.346   0.515 -2.6813 -1.0070  0.3083
19842TIP3   OH280940   5.401   1.177  10.713 -0.5628 -0.0725  0.5352
19842TIP3    H180941   5.366   1.265  10.697  0.2839  0.2842  0.6113
19842TIP3    H280942   5.395   1.133  10.628 -1.0656  0.0232  0.5165
19843TIP3   OH280943   2.577   5.679   1.471 -0.4202  0.0124  0.3435
19843TIP3    H180944   2.549   5.658   1.382 -0.6905  0.0508  0.4186
19843TIP3    H280945   2.499   5.666   1.525 -0.3055  0.1635  0.5491
19844TIP3   OH280946   2.364   4.613  11.255 -0.0511  0.1671 -0.3840
19844TIP3    H180947   2.374   4.597  11.349  1.5337  3.3454  0.1479
19844TIP3    H280948   2.273   4.637  11.244 -0.7016 -1.9301 -0.0578
19845TIP3   OH280949   2.538   6.736   0.610  0.5560  0.0056  0.3637
19845TIP3    H180950   2.495   6.813   0.573 -1.2063 -0.9728  0.2723
19845TIP3    H280951   2.589   6.700   0.537  0.8546  0.6959  0.2223
19846TIP3   OH280952   2.327   2.920   1.049  0.7244 -0.3007  0.0085
19846TIP3    H180953   2.296   2.845   1.100  1.2070 -1.0354 -0.7650
19846TIP3    H280954   2.265   2.990   1.072 -1.5864 -1.7058 -1.4771
19847TIP3   OH280955   1.517   4.246   0.179 -0.4980  0.2189  0.7793
19847TIP3    H180956   1.497   4.215   0.268 -0.7184  0.1017  0.6911
19847TIP3    H280957   1.492   4.173   0.123 -2.0135  0.9320  0.4775
19848TIP3   OH280958   3.509   2.785  15.258  1.0605 -0.4559  0.2156
19848TIP3    H180959   3.578   2.829  15.307  1.3197 -0.1399 -0.4084
19848TIP3    H280960   3.460   2.856  15.217  1.0908 -0.7198 -0.2919
19849TIP3   OH280961   1.997   3.613  11.807  0.0331 -0.9512  0.0615
19849TIP3    H180962   2.082   3.639  11.771  0.9586  0.8996  3.1517
19849TIP3    H280963   1.941   3.689  11.792 -0.7246 -1.6576 -0.7823
19850TIP3   OH280964   5.022   6.366   1.945 -0.5798 -0.4868 -0.3174
19850TIP3    H180965   5.088   6.399   1.885  0.8388 -0.6539  1.0853
19850TIP3    H280966   5.013   6.273   1.923 -0.2325 -0.4966 -0.4200
19851TIP3   OH280967   5.749   3.456  15.827 -0.3085  0.1214  0.1801
19851TIP3    H180968   5.805   3.531  15.851 -1.5021  1.0699  0.0996
19851TIP3    H280969   5.720   3.420  15.911 -0.1953  0.1073  0.2139
19852TIP3   OH280970   1.303   0.741  16.389  0.2268 -0.5308  0.3109
19852TIP3    H180971   1.356   0.736  16.310  1.5027  1.4645  0.9660
19852TIP3    H280972   1.237   0.809  16.369  0.0488 -0.5922  0.6750
19853TIP3   OH280973   1.229   0.118  13.318 -0.4978  0.2953  0.2742
19853TIP3    H180974   1.196   0.035  13.352  0.5149  0.1947  1.0580
19853TIP3    H280975   1.179   0.133  13.238 -1.5840 -0.4294  0.8013
19854TIP3   OH280976   6.065   6.416   5.389 -0.3044 -0.2725  0.3435
19854TIP3    H180977   6.090   6.448   5.475 -1.2933 -0.1502  0.5921
19854TIP3    H280978   6.102   6.328   5.384  1.3553  0.3935  0.1420
19855TIP3   OH280979   3.386   3.936   0.614  0.3999 -0.0149  0.2487
19855TIP3    H180980   3.319   3.968   0.675 -0.8746  1.7702 -1.9121
19855TIP3    H280981   3.350   3.855   0.578  0.5141 -0.3267  0.8298
19856TIP3   OH280982   0.560   0.715   3.466  0.0013  0.0779 -0.8558
19856TIP3    H180983   0.490   0.665   3.424 -0.7735  1.2069 -0.9499
19856TIP3    H280984   0.586   0.662   3.541 -1.4763 -0.0271 -0.3824
19857TIP3   OH280985   3.144   2.311   2.023 -0.6039 -0.2936 -0.1960
19857TIP3    H180986   3.110   2.256   2.093  1.1928 -1.9054 -0.4940
19857TIP3    H280987   3.227   2.345   2.058 -0.9213  0.9547 -0.6198
19858TIP3   OH280988   0.881   6.351  10.771 -0.2431 -0.1535 -0.5703
19858TIP3    H180989   0.866   6.257  10.757 -1.5855  0.0412 -0.6047
19858TIP3    H280990   0.830   6.394  10.702 -1.0746  0.6312  0.4802
19859TIP3   OH280991   0.865   2.211  12.832  0.4170 -0.2567  0.1199
19859TIP3    H180992   0.885   2.302  12.853  1.6390 -0.6690  0.8695
19859TIP3    H280993   0.836   2.173  12.916  0.6088 -0.7299 -0.0242
19860TIP3   OH280994   5.461   4.611  16.385  0.2416  0.4749 -0.1915
19860TIP3    H180995   5.400   4.666  16.335 -0.9742 -1.8112 -1.4102
19860TIP3    H280996   5.514   4.672  16.435 -2.9341  2.6442  0.8315
19861TIP3   OH280997   3.308   0.104  12.706 -0.6102 -0.4632 -0.6442
19861TIP3    H180998   3.237   0.060  12.659 -2.5605  2.0739 -0.3186
19861TIP3    H280999   3.340   0.169  12.644 -0.1353 -0.0562  0.0147
19862TIP3   OH281000   5.037   4.013   5.464  0.4832 -0.2128  0.6507
19862TIP3    H181001   4.964   4.053   5.510  1.7104  1.4382  1.2654
19862TIP3    H281002   5.010   3.922   5.450 -2.2851  0.7063 -0.5432
19863TIP3   OH281003   3.353   1.608   2.984 -0.0054 -0.0507  0.6254
19863TIP3    H181004   3.298   1.537   3.018 -0.5048 -0.5432 -1.1274
19863TIP3    H281005   3.440   1.589   3.019 -0.8585  0.7184  3.4123
19864TIP3   OH281006   2.254   1.913  11.293 -0.1849 -0.2421 -0.1797
19864TIP3    H181007   2.219   2.001  11.288 -0.2362 -0.3244 -3.1899
19864TIP3    H281008   2.318   1.908  11.221 -0.7454 -2.8526 -0.6006
19865TIP3   OH281009   2.910   4.086  13.519  0.8164  0.1789  0.0448
19865TIP3    H181010   2.849   4.106  13.590  0.1697  0.7232 -0.6405
19865TIP3    H281011   2.910   4.165  13.465  1.7406 -0.0076 -0.2540
19866TIP3   OH281012   6.050   2.276  13.310 -0.0005  0.4892 -0.5867
19866TIP3    H181013   5.992   2.220  13.258  0.2000  1.7639 -2.2869
19866TIP3    H281014   6.138   2.252  13.282  0.2530 -0.2624  0.7564
19867TIP3   OH281015   6.784   3.621   2.376  0.9259 -0.0664 -0.0010
19867TIP3    H181016   6.846   3.559   2.416 -0.0011 -1.1272 -0.1466
19867TIP3    H281017   6.723   3.565   2.328 -0.3045  0.9291  0.3593
19868TIP3   OH281018   2.768   2.193   6.364 -0.5768  0.2976 -0.4167
19868TIP3    H181019   2.819   2.114   6.379  1.0504  1.0688 -1.6274
19868TIP3    H281020   2.824   2.264   6.392 -1.5160  1.1068 -0.5197
19869TIP3   OH281021   1.572   6.383  15.489 -0.3674 -0.0545 -0.0956
19869TIP3    H181022   1.506   6.332  15.442 -0.5262  1.1548 -1.2586
19869TIP3    H281023   1.526   6.465  15.512  0.8944  1.1701 -1.6716
19870TIP3   OH281024   4.652   3.747   2.438  0.1158 -0.1986  0.1779
19870TIP3    H181025   4.597   3.814   2.399  0.4737  0.8734  1.4426
19870TIP3    H281026   4.592   3.676   2.461 -0.7997  0.9520  1.5496
19871TIP3   OH281027   1.844   2.853  13.947 -0.0413  0.1468 -0.0490
19871TIP3    H181028   1.793   2.919  13.900 -0.2276  1.1084  1.4593
19871TIP3    H281029   1.779   2.788  13.975 -0.2442  0.6550  0.6725
19872TIP3   OH281030   2.913   3.179   3.659  0.2131  0.0862  1.1237
19872TIP3    H181031   2.915   3.097   3.708 -0.3169 -2.9272 -3.3028
19872TIP3    H281032   2.831   3.176   3.610  0.8229  2.6082 -0.2295
19873TIP3   OH281033   0.196   2.962  16.718 -0.0097 -0.6643 -0.2311
19873TIP3    H181034   0.191   2.923  16.806  0.1530  1.1246  0.6153
19873TIP3    H281035   0.283   2.999  16.713 -0.1046 -0.5435 -1.0746
19874TIP3   OH281036   4.944   6.389   4.930 -0.0910  0.1678 -0.1389
19874TIP3    H181037   4.970   6.299   4.951 -0.5836 -0.3966 -1.7637
19874TIP3    H281038   4.998   6.412   4.854  0.8406  1.6805  0.9428
19875TIP3   OH281039   4.070   4.868   4.246  0.1633 -0.0821 -0.2853
19875TIP3    H181040   4.095   4.788   4.201 -4.2812 -1.3208 -1.1083
19875TIP3    H281041   4.017   4.916   4.182 -1.2348  1.1154  1.6467
19876TIP3   OH281042   2.041   2.588  12.567 -0.1860  0.1786  0.3998
19876TIP3    H181043   1.980   2.593  12.494 -0.7553 -0.0321  0.8511
19876TIP3    H281044   1.998   2.531  12.631  0.4012  0.1730  0.8054
19877TIP3   OH281045   5.744   0.134  10.347 -0.4158  0.0152  0.4949
19877TIP3    H181046   5.733   0.047  10.308  0.3256 -0.0724  0.4729
19877TIP3    H281047   5.662   0.149  10.394 -0.2415 -1.0461  1.1799
19878TIP3   OH281048   2.395   1.101   5.748 -0.6996  0.4373 -0.4023
19878TIP3    H181049   2.386   1.171   5.812  0.6373 -0.7955  1.2433
19878TIP3    H281050   2.387   1.020   5.800  0.7346 -0.6073 -1.7211
19879TIP3   OH281051   1.584   4.775   2.568  0.3350 -0.1180 -0.4961
19879TIP3    H181052   1.607   4.718   2.495  0.9775  1.3287 -1.4549
19879TIP3    H281053   1.662   4.772   2.625  0.6699  0.3686 -0.9194
19880TIP3   OH281054   2.716   4.499   0.629  0.0388  0.6717 -0.3772
19880TIP3    H181055   2.663   4.514   0.551  0.1741  1.6803 -0.2898
19880TIP3    H281056   2.659   4.526   0.702 -0.6032 -1.5525  0.0147
19881TIP3   OH281057   0.860   3.377  11.638  0.4995  0.2969 -0.1642
19881TIP3    H181058   0.814   3.329  11.569  0.9838  1.3982 -1.2887
19881TIP3    H281059   0.837   3.331  11.719 -0.7472 -0.5197 -0.9579
19882TIP3   OH281060   5.631   1.943  13.918 -0.4126  0.2211  0.7276
19882TIP3    H181061   5.710   1.931  13.866 -0.6814  3.8286 -0.8232
19882TIP3    H281062   5.568   1.880  13.882  0.9734 -0.9522  0.2827
19883TIP3   OH281063   6.578   1.821  10.309 -0.2012  0.1166  0.2492
19883TIP3    H181064   6.650   1.783  10.259 -0.7954 -0.2230 -0.3704
19883TIP3    H281065   6.535   1.746  10.351  0.0370  0.3571  0.9403
19884TIP3   OH281066   1.337   2.465  15.543  0.1004  0.2826 -0.5982
19884TIP3    H181067   1.326   2.476  15.637  3.5671  0.6312 -0.1130
19884TIP3    H281068   1.345   2.371  15.530  0.6044  0.2978 -0.4000
19885TIP3   OH281069   6.138   0.628   3.617  0.4245 -0.1110 -0.2691
19885TIP3    H181070   6.128   0.704   3.676 -0.6473  0.1420 -0.7566
19885TIP3    H281071   6.100   0.555   3.666 -2.2936  0.4643 -1.3285
19886TIP3   OH281072   3.404   6.350  15.975 -0.3629  0.1472  0.0983
19886TIP3    H181073   3.360   6.376  15.893  0.9230  4.2971  0.4920
19886TIP3    H281074   3.491   6.322  15.948 -1.1515 -2.3447 -0.1512
19887TIP3   OH281075   2.207   1.817   3.105 -0.1958  0.7868 -0.2724
19887TIP3    H181076   2.169   1.751   3.164  0.5728 -0.6366 -1.3049
19887TIP3    H281077   2.280   1.854   3.154  0.2330 -0.1431 -0.1997
19888TIP3   OH281078   6.612   3.706   0.648 -0.4519 -0.1902 -0.6958
19888TIP3    H181079   6.526   3.697   0.608 -0.0528 -1.5019 -1.3282
19888TIP3    H281080   6.658   3.626   0.623  1.3005  0.9287 -1.2295
19889TIP3   OH281081   4.573   3.978   1.795  0.2951 -0.0002 -0.6917
19889TIP3    H181082   4.552   4.071   1.806  0.0877 -0.1664  0.4735
19889TIP3    H281083   4.508   3.932   1.848  1.2015 -0.7293 -0.1778
19890TIP3   OH281084   5.198   2.313   2.996 -0.0302  0.2560  0.3236
19890TIP3    H181085   5.191   2.222   3.026  2.3892  0.6915  2.5370
19890TIP3    H281086   5.214   2.306   2.902 -4.3447 -1.3146 -0.5549
19891TIP3   OH281087   0.088   6.296  14.257 -0.1110 -0.0532  0.8533
19891TIP3    H181088   0.035   6.286  14.178 -0.4368 -0.9382  1.1691
19891TIP3    H281089   0.165   6.243  14.242  1.5675  2.5171 -0.2857
19892TIP3   OH281090   3.634   6.407  10.775 -0.1466  0.6101 -0.1709
19892TIP3    H181091   3.709   6.439  10.725  0.8154 -0.3221  0.6301
19892TIP3    H281092   3.604   6.330  10.727 -0.5082  0.8981 -0.4122
19893TIP3   OH281093   6.496   1.945   1.261 -0.3003  0.2164 -0.4904
19893TIP3    H181094   6.408   1.915   1.237  0.4047 -1.4894 -1.0978
19893TIP3    H281095   6.545   1.864   1.278  1.6680  1.0102 -2.0260
19894TIP3   OH281096   5.056   6.621  15.147  0.3556 -0.1257 -0.0645
19894TIP3    H181097   5.067   6.533  15.113 -0.9011 -0.9125  1.4210
19894TIP3    H281098   4.961   6.636  15.148  0.4672  0.7267  0.8726
19895TIP3   OH281099   3.579   4.669   0.894  0.2399  0.1727 -0.1398
19895TIP3    H181100   3.659   4.713   0.864  0.2527  0.5107  0.3675
19895TIP3    H281101   3.514   4.688   0.827  0.0244  1.6646  0.4606
19896TIP3   OH281102   5.434   3.756  14.756 -0.1309  0.0281  0.5922
19896TIP3    H181103   5.436   3.829  14.694 -0.0915 -3.2974 -3.8659
19896TIP3    H281104   5.526   3.740  14.777 -0.1195  1.0193  1.3652
19897TIP3   OH281105   5.882   0.199   2.492 -0.0247  0.2866  0.5169
19897TIP3    H181106   5.830   0.179   2.414 -2.4186 -0.6099  2.1901
19897TIP3    H281107   5.893   0.114   2.536  2.6623  0.5044  0.4334
19898TIP3   OH281108   3.313   4.874  12.187 -0.4055 -0.0636 -0.1405
19898TIP3    H181109   3.369   4.799  12.206 -0.2557  0.2181  0.5980
19898TIP3    H281110   3.252   4.844  12.121 -0.1556 -0.7454 -0.0624
19899TIP3   OH281111   1.768   3.634  13.785  0.4555  0.0952  0.0109
19899TIP3    H181112   1.864   3.633  13.783  0.4519 -0.0578 -0.0859
19899TIP3    H281113   1.742   3.630  13.693  0.3416 -1.6254  0.0993
19900TIP3   OH281114   2.655   3.108   0.318 -0.3427 -0.6166 -0.3356
19900TIP3    H181115   2.714   3.043   0.281 -1.5364 -1.3662 -0.9720
19900TIP3    H281116   2.590   3.058   0.367 -0.4081  0.1943  0.4430
19901TIP3   OH281117   5.223   5.259   4.647 -0.0833 -0.4178  0.1176
19901TIP3    H181118   5.302   5.273   4.700 -0.5775 -0.6667  0.9553
19901TIP3    H281119   5.230   5.322   4.575  1.3546 -1.1160 -0.3806
19902TIP3   OH281120   0.574   3.785  11.976  0.0381  0.4768 -0.0500
19902TIP3    H181121   0.654   3.837  11.977 -0.6565  1.6042 -1.2082
19902TIP3    H281122   0.560   3.762  11.884 -1.4046  1.0042  0.0106
19903TIP3   OH281123   6.338   6.606  16.078  0.2200  0.0447 -0.2195
19903TIP3    H181124   6.320   6.512  16.072 -1.0873  0.3887 -2.7538
19903TIP3    H281125   6.388   6.627  15.999  1.0816  1.3888  0.6398
19904TIP3   OH281126   0.610   0.204   4.621 -0.0687 -0.1876 -0.1882
19904TIP3    H181127   0.601   0.288   4.575 -1.3937 -0.6215 -0.7630
19904TIP3    H281128   0.685   0.217   4.680  0.0150  1.2504 -0.5731
19905TIP3   OH281129   6.460   5.484   4.664 -0.1624 -0.2766  0.3490
19905TIP3    H181130   6.549   5.518   4.653 -0.0577 -0.5859  0.2428
19905TIP3    H281131   6.421   5.491   4.577 -0.3857  0.2551  0.4853
19906TIP3   OH281132   2.644   6.100   3.115  0.1446 -0.6632  0.3540
19906TIP3    H181133   2.694   6.047   3.177  1.9920 -1.1187 -1.4191
19906TIP3    H281134   2.705   6.118   3.044 -0.5944  3.3057  0.5000
19907TIP3   OH281135   0.049   0.693   2.797 -0.2726  0.1732  0.0280
19907TIP3    H181136   0.061   0.641   2.718 -1.1070  1.3693 -0.9121
19907TIP3    H281137   0.131   0.742   2.807 -0.0456 -0.2195  0.0924
19908TIP3   OH281138   5.692   0.270   0.885  0.5828 -0.0613 -0.5061
19908TIP3    H181139   5.617   0.329   0.887 -0.9278 -1.9148  0.9700
19908TIP3    H281140   5.711   0.257   0.792 -0.9597  0.3770 -0.9015
19909TIP3   OH281141   2.899   3.302   0.665 -0.6761 -0.4242  0.4074
19909TIP3    H181142   2.986   3.315   0.627 -1.3967 -1.7012 -1.9033
19909TIP3    H281143   2.910   3.231   0.728  0.0366 -0.2887  0.4404
19910TIP3   OH281144   4.988   2.378  13.723 -0.6086  0.2485  0.0936
19910TIP3    H181145   4.928   2.453  13.724  0.2908  1.0349  1.9613
19910TIP3    H281146   5.067   2.411  13.680 -0.4960  0.1328  0.2080
19911TIP3   OH281147   6.137   4.941  12.650  0.1864  1.0465  0.4457
19911TIP3    H181148   6.112   4.981  12.566 -0.6795 -0.5132 -0.0811
19911TIP3    H281149   6.197   5.005  12.689 -2.4404  3.7378  0.5116
19912TIP3   OH281150   2.156   4.337  14.608  0.0226  0.2802  0.6761
19912TIP3    H181151   2.082   4.354  14.549  0.7522 -0.4629 -0.4751
19912TIP3    H281152   2.166   4.242  14.607  1.9505  0.4649 -0.3850
19913TIP3   OH281153   6.698   4.268   1.181 -0.0407 -0.1241 -0.0022
19913TIP3    H181154   6.640   4.195   1.157  0.1674 -0.9375  1.8023
19913TIP3    H281155   6.773   4.226   1.222 -0.6470  1.1179  2.5758
19914TIP3   OH281156   3.338   4.225   1.074  0.5804 -0.2808 -0.0932
19914TIP3    H181157   3.404   4.294   1.067 -0.8335  1.0568 -0.7779
19914TIP3    H281158   3.262   4.259   1.027 -0.6676 -1.7202  0.7845
19915TIP3   OH281159   0.749   0.673  11.748  0.3426 -0.2881 -0.7456
19915TIP3    H181160   0.677   0.619  11.781  0.3722 -1.0848 -1.9289
19915TIP3    H281161   0.716   0.763  11.753  0.1986 -0.4190  1.0039
19916TIP3   OH281162   2.517   2.597  13.280  0.4408 -0.0901  0.5736
19916TIP3    H181163   2.448   2.599  13.214  2.0815 -1.7173 -1.3505
19916TIP3    H281164   2.578   2.667  13.254  0.9882 -0.5963  0.4611
19917TIP3   OH281165   3.706   0.816  15.591  0.4077  0.0097  0.0214
19917TIP3    H181166   3.776   0.790  15.532  2.1348 -2.8772  2.9809
19917TIP3    H281167   3.626   0.796  15.544  1.5981 -0.3072 -2.0029
19918TIP3   OH281168   6.566   1.303   6.227  0.4517  0.6330  0.6028
19918TIP3    H181169   6.614   1.328   6.306  1.8437  1.1926 -0.3637
19918TIP3    H281170   6.634   1.272   6.167 -0.6649 -0.6038 -0.0882
19919TIP3   OH281171   4.993   1.689   5.521  0.5141  0.3547  0.5300
19919TIP3    H181172   4.979   1.722   5.432  3.0775 -1.3887 -0.6282
19919TIP3    H281173   5.007   1.768   5.574  0.5782  1.3655 -0.9449
19920TIP3   OH281174   2.296   2.356   1.975  0.5245 -0.2384 -0.2546
19920TIP3    H181175   2.363   2.398   2.029 -0.3950  1.2822 -0.2448
19920TIP3    H281176   2.306   2.396   1.889 -0.8635  0.6157 -0.0526
19921TIP3   OH281177   4.514   1.380  13.231  0.4802 -0.3528  0.6833
19921TIP3    H181178   4.517   1.460  13.284  0.8095 -0.2247  0.4723
19921TIP3    H281179   4.586   1.390  13.169  0.8713 -1.0701  1.0114
19922TIP3   OH281180   4.854   4.490   6.211 -0.5919 -0.2159  0.1598
19922TIP3    H181181   4.891   4.504   6.298 -1.7313  1.6308  0.4155
19922TIP3    H281182   4.929   4.489   6.152  0.0641  0.8261  0.9427
19923TIP3   OH281183   1.990   6.686   1.054 -0.2616 -0.0747  0.0350
19923TIP3    H181184   2.015   6.670   0.963 -0.0710  1.1335 -0.1389
19923TIP3    H281185   2.062   6.649   1.105 -1.5189 -3.0578 -0.1475
19924TIP3   OH281186   1.527   0.903  12.235 -0.3129 -0.1248 -0.2958
19924TIP3    H181187   1.537   0.894  12.330 -0.5997  1.5046 -0.0777
19924TIP3    H281188   1.612   0.933  12.205 -0.1712 -0.8086 -0.5865
19925TIP3   OH281189   1.772   5.671   0.235  0.0547 -0.1768 -0.1271
19925TIP3    H181190   1.834   5.671   0.308 -0.8177 -1.5795  0.6766
19925TIP3    H281191   1.768   5.579   0.208 -0.3741  0.1794 -1.3046
19926TIP3   OH281192   0.577   0.196  12.215 -0.0874 -0.2897 -0.1209
19926TIP3    H181193   0.630   0.242  12.280  1.5348 -1.0171 -0.8839
19926TIP3    H281194   0.537   0.124  12.265 -0.8986  0.6170  0.5914
19927TIP3   OH281195   6.162   5.757   4.880  0.4305  0.1032 -0.4097
19927TIP3    H181196   6.105   5.737   4.954  1.6091 -0.1011  0.4812
19927TIP3    H281197   6.159   5.852   4.872  0.0747  0.1031 -0.2898
19928TIP3   OH281198   0.767   0.833   0.649 -0.1287  0.0409 -0.3855
19928TIP3    H181199   0.759   0.777   0.726 -2.5154  0.9412  0.1053
19928TIP3    H281200   0.736   0.779   0.576 -0.4154  0.0250 -0.2555
19929TIP3   OH281201   2.034   5.588  13.101 -0.6556 -0.2338 -0.6080
19929TIP3    H181202   2.029   5.679  13.130  1.4261 -0.5401  0.9477
19929TIP3    H281203   1.955   5.547  13.136 -1.9256  1.0381 -1.8351
19930TIP3   OH281204   4.861   4.320  12.679 -0.1198  0.1631  0.2932
19930TIP3    H181205   4.909   4.351  12.756  1.9565 -1.2762 -0.3296
19930TIP3    H281206   4.854   4.397  12.623  1.9798  0.3624  0.2056
19931TIP3   OH281207   5.641   2.202  12.322  0.4916 -0.3662 -0.0224
19931TIP3    H181208   5.605   2.128  12.371  0.6353 -1.3735 -1.3690
19931TIP3    H281209   5.569   2.229  12.264  0.3540  0.7392  0.6271
19932TIP3   OH281210   6.214   3.864   6.066  0.6439  0.9932 -0.1690
19932TIP3    H181211   6.173   3.782   6.093 -0.8377  1.1659 -1.7233
19932TIP3    H281212   6.231   3.910   6.148 -1.3604  0.4397  0.6334
19933TIP3   OH281213   0.735   3.249  11.015 -0.2584  0.0981  0.2681
19933TIP3    H181214   0.765   3.182  10.953  0.0635 -0.6084  1.1592
19933TIP3    H281215   0.641   3.233  11.025 -0.1365 -0.4097  0.6777
19934TIP3   OH281216   5.072   4.971  13.310  0.2515  0.4074 -0.0199
19934TIP3    H181217   5.027   4.892  13.281 -0.9210  1.3228 -0.7603
19934TIP3    H281218   5.010   5.042  13.294  1.3339  1.5088  0.4850
19935TIP3   OH281219   1.054   5.664   5.733  0.4085  0.5143  0.2959
19935TIP3    H181220   0.989   5.603   5.767  2.7179 -1.5745  1.2929
19935TIP3    H281221   1.078   5.629   5.647  0.6853  0.8748  0.2229
19936TIP3   OH281222   6.343   1.978   5.099 -0.1000 -0.1832 -0.4635
19936TIP3    H181223   6.249   1.969   5.090 -0.3731  1.3279  0.6254
19936TIP3    H281224   6.365   2.057   5.049  0.7947 -1.1771 -1.7165
19937TIP3   OH281225   2.299   3.997  16.856 -0.5943  0.1630  0.2286
19937TIP3    H181226   2.223   3.954  16.897  0.7713 -2.5594  0.1614
19937TIP3    H281227   2.326   3.935  16.787  0.8878  1.7173 -0.6496
19938TIP3   OH281228   3.725   1.983   2.858 -0.1583  0.5802 -0.0683
19938TIP3    H181229   3.634   1.968   2.884  0.6760 -1.8512  1.8539
19938TIP3    H281230   3.758   2.046   2.922  0.0215 -0.0807  0.5020
19939TIP3   OH281231   6.484   3.948  12.513 -0.1940 -0.0053 -0.0079
19939TIP3    H181232   6.515   4.037  12.501 -1.1991  0.3764  0.0614
19939TIP3    H281233   6.429   3.953  12.591 -0.6231 -0.5809 -0.2678
19940TIP3   OH281234   1.046   2.930   0.462 -0.0049 -0.2541  0.7726
19940TIP3    H181235   1.061   2.836   0.457 -3.6572 -0.9557 -0.1877
19940TIP3    H281236   1.074   2.964   0.377 -0.9120 -0.9384  0.1836
19941TIP3   OH281237   2.345   2.516  14.392  0.3650  0.4408 -0.0009
19941TIP3    H181238   2.285   2.441  14.394  0.2193  0.5226 -0.8035
19941TIP3    H281239   2.432   2.477  14.399  0.3191  0.1380 -0.9018
19942TIP3   OH281240   6.035   6.755  12.463  0.1147  0.8833  0.2582
19942TIP3    H181241   6.122   6.718  12.445  0.7449  0.9634  2.7260
19942TIP3    H281242   5.974   6.687  12.437  0.9029  0.7067 -1.2476
19943TIP3   OH281243   6.103   2.675  14.181  0.6693 -0.1803 -0.8192
19943TIP3    H181244   6.038   2.738  14.150  1.6882  0.2761 -2.1258
19943TIP3    H281245   6.086   2.596  14.130  0.5785 -0.3615 -0.5125
19944TIP3   OH281246   0.647   2.834   1.444 -0.2492 -0.1546 -0.1438
19944TIP3    H181247   0.655   2.916   1.395  0.3195 -0.9307 -1.3994
19944TIP3    H281248   0.566   2.795   1.412 -0.2731 -0.3116  0.1036
19945TIP3   OH281249   5.347   1.004  12.591  0.1712 -0.0627 -0.2866
19945TIP3    H181250   5.376   0.918  12.559  1.1510 -0.1988  0.9084
19945TIP3    H281251   5.304   1.044  12.515  0.7199 -1.1444 -1.2021
19946TIP3   OH281252   3.520   0.361   4.720 -0.0163 -0.1155 -0.1185
19946TIP3    H181253   3.552   0.433   4.666  1.5229 -0.6433  0.0500
19946TIP3    H281254   3.461   0.402   4.783  0.5615  0.9326 -0.2580
19947TIP3   OH281255   0.695   0.152   0.008  0.4984  0.2833 -0.2369
19947TIP3    H181256   0.715   0.064  -0.022 -1.6203 -0.6237  0.7868
19947TIP3    H281257   0.602   0.164  -0.012  0.5732  2.0378  0.2580
19948TIP3   OH281258   2.054   4.896  15.891  0.1802  0.2459 -0.3005
19948TIP3    H181259   1.978   4.916  15.837  1.0265  1.0593 -1.2294
19948TIP3    H281260   2.058   4.967  15.955  0.5479  0.6120 -0.7129
19949TIP3   OH281261   0.752   1.396   4.180  0.2648  0.0788 -0.1188
19949TIP3    H181262   0.658   1.383   4.194  0.5201 -1.2230  0.5137
19949TIP3    H281263   0.774   1.471   4.236 -0.2533 -0.1152  0.3564
19950TIP3   OH281264   5.033   3.680   2.244  0.3799 -0.4270 -0.3848
19950TIP3    H181265   5.128   3.680   2.231  0.4978 -2.0392  0.2067
19950TIP3    H281266   5.006   3.770   2.226  2.1202  0.2432  0.1694
19951TIP3   OH281267   2.842   6.015   1.660 -0.4887 -0.1005  0.1210
19951TIP3    H181268   2.899   6.001   1.736 -0.3095  0.5944  0.1206
19951TIP3    H281269   2.834   6.110   1.654  1.8407  0.0438 -2.4590
19952TIP3   OH281270   6.237   5.555   5.713 -0.3661  0.0563  0.5886
19952TIP3    H181271   6.198   5.468   5.721 -0.8210  0.2401  0.4291
19952TIP3    H281272   6.237   5.573   5.619 -0.3978  0.2783  0.6289
19953TIP3   OH281273   2.872   0.544  10.858  0.2736  0.0954 -0.0692
19953TIP3    H181274   2.947   0.502  10.816 -0.4340  0.0289 -1.3287
19953TIP3    H281275   2.796   0.515  10.806 -0.4883  1.0462  0.4771
19954TIP3   OH281276   3.589   3.928  16.575  0.7174 -0.9450  0.1699
19954TIP3    H181277   3.608   4.004  16.520  1.3389  0.6310  2.4075
19954TIP3    H281278   3.499   3.903  16.551 -0.2356  1.7120  0.6167
19955TIP3   OH281279   2.308   5.696  16.557 -0.0225  0.0043  1.0309
19955TIP3    H181280   2.372   5.627  16.538 -0.3735 -0.4732  1.5346
19955TIP3    H281281   2.282   5.680  16.648 -1.2740 -0.1587  0.6647
19956TIP3   OH281282   3.236   4.322  14.765  0.2348  0.5724 -0.1818
19956TIP3    H181283   3.226   4.278  14.681 -0.1819  2.0839 -0.9708
19956TIP3    H281284   3.301   4.391  14.749  0.1287  0.9065  0.7247
19957TIP3   OH281285   5.936   1.830  13.454 -0.3875  0.5800  0.4275
19957TIP3    H181286   5.933   1.761  13.521  0.1074  1.3470  1.2716
19957TIP3    H281287   5.885   1.795  13.381  2.5022 -2.0834 -0.5325
19958TIP3   OH281288   0.670   0.610  15.238 -0.1733 -0.3993  0.2607
19958TIP3    H181289   0.737   0.657  15.187 -0.1082  0.2709  0.9564
19958TIP3    H281290   0.590   0.660  15.224 -1.1634 -2.4565 -2.4679
19959TIP3   OH281291   1.563   2.150  13.883 -0.4493  0.1079 -0.1659
19959TIP3    H181292   1.589   2.098  13.959 -0.2763 -0.2489 -0.4595
19959TIP3    H281293   1.494   2.098  13.841 -1.2398  0.7742  0.2859
19960TIP3   OH281294   0.955   2.141   4.925 -0.0869 -0.0294  0.6701
19960TIP3    H181295   0.966   2.099   4.840 -1.0418 -2.0321  1.4545
19960TIP3    H281296   0.975   2.233   4.910 -2.6121  0.1913 -2.2705
19961TIP3   OH281297   1.787   0.910  12.138 -0.2112  0.0091 -0.7726
19961TIP3    H181298   1.851   0.870  12.197 -0.7333  1.7728  1.1344
19961TIP3    H281299   1.819   1.000  12.127 -1.2069  0.2771 -1.5756
19962TIP3   OH281300   1.567   6.066   2.771 -0.5660 -0.0026  0.0875
19962TIP3    H181301   1.575   6.067   2.676  0.0248 -0.2849  0.1312
19962TIP3    H281302   1.517   6.145   2.792  0.2881  0.6735 -0.3689
19963TIP3   OH281303   2.938   6.629   4.729  0.1128  0.0428  0.4035
19963TIP3    H181304   2.972   6.565   4.792 -2.5277  0.2297  2.1958
19963TIP3    H281305   2.846   6.608   4.721 -0.5863  2.7941  0.0504
19964TIP3   OH281306   5.839   5.498  15.122 -0.5881  0.6124 -0.5474
19964TIP3    H181307   5.894   5.538  15.055  0.2908  2.7776  1.3576
19964TIP3    H281308   5.749   5.518  15.095 -0.3146  0.1815 -1.8101
19965TIP3   OH281309   3.441   3.850   2.663  0.2483  0.4162 -0.0531
19965TIP3    H181310   3.430   3.843   2.758 -1.3326  0.7781 -0.1812
19965TIP3    H281311   3.521   3.801   2.645  0.2743 -0.1468  1.3933
19966TIP3   OH281312   1.177   1.995   5.474 -0.3836 -0.6169 -0.0559
19966TIP3    H181313   1.122   2.021   5.400 -1.2756 -0.5388  0.6254
19966TIP3    H281314   1.229   2.074   5.494  1.9983 -1.4399 -2.3884
19967TIP3   OH281315   6.085   3.000  13.470  0.1564 -0.0267 -0.3436
19967TIP3    H181316   6.173   3.012  13.505  0.3948  1.6134 -1.3601
19967TIP3    H281317   6.049   3.089  13.465 -0.0748 -0.1711 -3.5374
19968LIG      O81318   3.286   4.004   8.882 -0.3240  0.1962 -0.3862
19968LIG      N81319   3.388   3.838   9.085  1.0915  0.2052  0.6823
19968LIG     C181320   3.422   4.114   8.723  1.0769  0.6466 -0.2472
19968LIG     C281321   3.402   3.985   8.803 -0.0467  0.3270 -0.1512
19968LIG     C381322   3.293   4.152   8.638 -0.2257  0.4990 -0.5601
19968LIG     C481323   3.461   4.236   8.813  0.1264 -0.6531 -0.7661
19968LIG     C581324   3.516   3.967   8.911  0.2391  0.1356 -0.2719
19968LIG     C681325   3.316   4.281   8.554  1.1076  0.4781 -0.1808
19968LIG     C781326   3.482   4.364   8.731  0.0480 -1.1374  0.1633
19968LIG     C881327   3.358   4.397   8.650  0.4427 -0.2774  0.3465
19968LIG     C981328   3.506   3.841   9.003  0.4213 -0.5906  0.7165
19968LIG    C1081329   3.398   3.862   8.699 -0.1397 -0.7944 -0.5169
19968LIG    C1181330   3.326   3.706   9.111  0.4968  0.1081 -0.2260
19968LIG    C1281331   3.390   3.918   9.208 -0.2353 -0.0314  1.0437
19968LIG    C1381332   3.415   3.624   9.189  0.0022 -0.2437 -0.2486
19968LIG    C1481333   3.464   3.838   9.319 -1.0698 -0.0804 -0.6447
19968LIG    C1581334   3.435   3.687   9.330 -0.3023 -0.7803 -0.2285
19968LIG    C1681335   3.514   3.820   8.630 -0.0480 -0.0473 -0.2690
19968LIG    C1781336   3.275   3.795   8.666 -0.1901  0.2135  0.5450
19968LIG    C1881337   3.511   3.713   8.539 -0.1095 -0.0308  0.2858
19968LIG    C1981338   3.265   3.698   8.563 -0.6865 -0.3706  0.1852
19968LIG    C2081339   3.386   3.662   8.500  0.6383 -0.7746 -0.4635
19968LIG     H181340   3.496   4.095   8.642 -0.4072 -0.9569 -1.2954
19968LIG     H281341   3.210   4.177   8.709  0.8989  1.9445  0.3003
19968LIG     H381342   3.271   4.066   8.572  3.1281 -1.0552  0.1763
19968LIG     H481343   3.557   4.225   8.869 -0.7796  0.9286  1.2526
19968LIG     H581344   3.383   4.268   8.885  0.3507 -1.7269 -0.0149
19968LIG     H681345   3.512   4.046   8.989  1.7398 -0.3866  0.3886
19968LIG     H781346   3.615   3.979   8.861 -0.1764  1.8167 -0.7316
19968LIG     H881347   3.234   4.307   8.484  1.0812  1.4298  0.1881
19968LIG     H981348   3.408   4.261   8.495  1.1483 -1.8807  0.5730
19968LIG    H1081349   3.566   4.341   8.662  0.4287  1.5465 -0.3817
19968LIG    H1181350   3.522   4.443   8.799  1.3488 -0.3832 -1.4139
19968LIG    H1281351   3.268   4.415   8.713 -0.2942 -2.5977  0.0677
19968LIG    H1381352   3.367   4.489   8.590 -0.9205 -0.7067 -0.5753
19968LIG    H1481353   3.501   3.751   8.937  1.2568 -0.2748  0.2176
19968LIG    H1581354   3.595   3.817   9.065  1.4413  0.6304 -0.2290
19968LIG    H1681355   3.320   3.656   9.012 -2.0503  0.1651 -0.1790
19968LIG    H1781356   3.217   3.706   9.134  0.2799 -0.7922 -1.1889
19968LIG    H1881357   3.287   3.930   9.248 -0.8897  0.4605 -0.7018
19968LIG    H1981358   3.430   4.021   9.200  1.4914 -0.7305  0.2971
19968LIG    H2081359   3.298   3.932   8.943  0.9921  2.3304  2.0894
19968LIG    H2181360   3.517   3.615   9.146 -0.4395 -3.0961 -0.9091
19968LIG    H2281361   3.370   3.524   9.205 -1.0256 -0.1017 -1.9955
19968LIG    H2381362   3.444   3.890   9.415 -2.2031  0.5631 -1.2145
19968LIG    H2481363   3.574   3.836   9.303 -0.9515  0.7201 -0.0266
19968LIG    H2581364   3.503   3.618   9.383  3.2711  2.1450 -0.6250
19968LIG    H2681365   3.342   3.676   9.390 -1.1921 -2.6317 -1.7969
19968LIG    H2781366   3.604   3.875   8.655 -0.0531 -0.4678  0.7544
19968LIG    H2881367   3.186   3.806   8.727 -0.2992 -1.6373  0.7769
19968LIG    H2981368   3.595   3.682   8.479  0.1973  1.9673 -0.4146
19968LIG    H3081369   3.175   3.638   8.555 -0.5204 -0.5270 -0.5922
19968LIG    H3181370   3.375   3.578   8.432  0.7690 -1.1583 -0.0142
   6.81125   6.81125  17.09490
